INSANE! Membrane UpperLeaflet>loPI:POPI:DPPI:PYPI:ERGO=80.0:5.0:3.0:2.0:10.0 LowerLeaflet>PSPI:POPI:POPS:YOPS:POPE:YOPE:POPC:YOPC:ERGO=6.0:14.0:21.0:9.0:9.0:21.0:12.0:48.0:60.0
49377
    1loPI    C1    1   0.929  10.457   9.896  0.2454 -0.0344  0.0474
    1loPI    C2    2   0.598  10.484  10.120  0.2032  0.2024 -0.0402
    1loPI    C3    3   0.959  10.513  10.291  0.1848 -0.1882  0.0744
    1loPI   PO4    4   0.832  10.668   9.646  0.3806 -0.2016  0.0439
    1loPI   GL1    5   0.856  10.519   9.179  0.0973 -0.0924 -0.0185
    1loPI   GL2    6   0.593  10.661   9.177  0.0021  0.1865  0.1585
    1loPI   C1A    7   0.935  10.507   8.620 -0.1700 -0.2461  0.1658
    1loPI   C2A    8   0.918  10.509   8.135  0.1895 -0.0250 -0.4394
    1loPI   C3A    9   0.755  10.281   7.838 -0.0475  0.0496 -0.0249
    1loPI   C4A   10   0.522  10.061   7.530  0.0366 -0.0411  0.4801
    1loPI   C5A   11   0.186  10.151   7.407 -0.1711  0.1240  0.0564
    1loPI   C6A   12  -0.004   9.735   7.415 -0.1414  0.3325 -0.0220
    1loPI   C1B   13   0.536  10.845   8.738  0.2388 -0.0109 -0.0146
    1loPI   C2B   14   0.565  10.814   8.313  0.0605  0.0108 -0.0716
    1loPI   C3B   15   0.437  10.849   7.936 -0.0467 -0.1360  0.1702
    1loPI   C4B   16   0.221  11.026   7.477  0.0515 -0.2177 -0.0187
    2loPI    C1   17  15.792  10.322  10.234 -0.0755 -0.2874 -0.1578
    2loPI    C2   18  15.971   9.981  10.128  0.1466 -0.2094 -0.0394
    2loPI    C3   19  15.807  10.017  10.491 -0.2038 -0.3157 -0.1830
    2loPI   PO4   20  15.896  10.490  10.068  0.2278  0.2471  0.0491
    2loPI   GL1   21  16.022  10.347   9.699 -0.1946  0.1153  0.0666
    2loPI   GL2   22  16.338  10.442   9.448  0.0727  0.0353  0.2371
    2loPI   C1A   23  15.984  10.132   9.302 -0.2846  0.2477 -0.0551
    2loPI   C2A   24  15.951  10.079   8.839  0.0594  0.2973  0.2148
    2loPI   C3A   25  15.805  10.149   8.379  0.4236  0.0423 -0.2646
    2loPI   C4A   26  15.744  10.226   7.956  0.2667 -0.2109  0.1174
    2loPI   C5A   27  15.505  10.445   7.615  0.1346 -0.0838 -0.0887
    2loPI   C6A   28  15.118  10.478   7.621  0.0890 -0.0629 -0.1246
    2loPI   C1B   29  16.252  10.496   8.997 -0.1260 -0.2654 -0.0534
    2loPI   C2B   30  16.195  10.439   8.573 -0.1299 -0.1097 -0.2533
    2loPI   C3B   31  16.195  10.563   8.255  0.0438  0.1525 -0.0638
    2loPI   C4B   32  16.087  10.655   7.753  0.0140  0.0428  0.1267
    3loPI    C1   33   0.238   5.646  10.037 -0.2071  0.0091  0.1140
    3loPI    C2   34   0.407   5.294  10.121 -0.1917 -0.0242 -0.0525
    3loPI    C3   35   0.511   5.620  10.328 -0.0441 -0.0754 -0.0447
    3loPI   PO4   36   0.279   5.528   9.709 -0.1457 -0.1317 -0.0125
    3loPI   GL1   37   0.160   5.619   9.300 -0.1324 -0.1281 -0.0593
    3loPI   GL2   38   0.201   5.245   9.164  0.1588 -0.1469 -0.0169
    3loPI   C1A   39  -0.216   5.557   9.130 -0.0990 -0.0322  0.6576
    3loPI   C2A   40  -0.434   5.413   8.892 -0.0162 -0.1909 -0.1101
    3loPI   C3A   41  -0.222   5.467   8.510  0.0289  0.0599 -0.1420
    3loPI   C4A   42  -0.225   5.611   8.053  0.1386 -0.1464  0.3736
    3loPI   C5A   43  -0.269   5.654   7.697  0.2409 -0.4343 -0.2286
    3loPI   C6A   44  -0.106   5.886   7.428  0.5278  0.1997  0.0722
    3loPI   C1B   45  -0.014   5.151   8.848  0.1429  0.1481 -0.1530
    3loPI   C2B   46   0.018   5.009   8.392 -0.0463  0.3782 -0.0312
    3loPI   C3B   47  -0.052   5.132   7.947  0.1503 -0.1137  0.0140
    3loPI   C4B   48  -0.045   5.045   7.518  0.1003 -0.2715  0.2586
    4loPI    C1   49  17.013  16.108   9.980 -0.0750 -0.3215  0.0452
    4loPI    C2   50  16.814  16.112  10.327  0.0990  0.1171  0.1463
    4loPI    C3   51  16.640  15.965   9.999 -0.1456 -0.1061  0.3711
    4loPI   PO4   52  17.065  16.334   9.822  0.3134 -0.1740 -0.2026
    4loPI   GL1   53  17.164  16.103   9.480  0.0030 -0.3318 -0.0473
    4loPI   GL2   54  17.117  16.306   9.320  0.0010  0.1413 -0.4384
    4loPI   C1A   55  17.283  15.797   9.095  0.2534  0.1564 -0.0472
    4loPI   C2A   56  17.290  15.829   8.673 -0.2433 -0.0671 -0.1324
    4loPI   C3A   57  17.229  15.807   8.223 -0.1230 -0.1010  0.1259
    4loPI   C4A   58  17.168  15.768   7.721 -0.2448 -0.1488 -0.1427
    4loPI   C5A   59  17.195  15.975   7.296 -0.0071 -0.1697  0.1567
    4loPI   C6A   60  17.280  16.254   7.047  0.1138  0.0554  0.0993
    4loPI   C1B   61  17.179  16.287   8.936  0.4038  0.1209  0.1304
    4loPI   C2B   62  17.136  16.307   8.491 -0.2423  0.0046  0.0411
    4loPI   C3B   63  17.237  16.276   7.998  0.0489 -0.3475  0.1941
    4loPI   C4B   64  17.227  16.337   7.618 -0.0736  0.2272 -0.1129
    5loPI    C1   65  15.965   0.669  10.488  0.1451  0.2579  0.2507
    5loPI    C2   66  15.655   0.715  10.737 -0.1112  0.1042 -0.0335
    5loPI    C3   67  15.946   0.456  10.827 -0.0855  0.2156  0.2131
    5loPI   PO4   68  15.846   0.606  10.279 -0.1290  0.1347 -0.0985
    5loPI   GL1   69  15.568   0.877   9.976 -0.0969 -0.0922 -0.0342
    5loPI   GL2   70  15.867   0.932   9.873  0.0394  0.0010 -0.0082
    5loPI   C1A   71  15.495   1.239   9.698  0.4544 -0.1664  0.1611
    5loPI   C2A   72  15.383   1.293   9.239 -0.2666  0.2975 -0.0517
    5loPI   C3A   73  15.255   1.390   8.816 -0.0342 -0.0802  0.0063
    5loPI   C4A   74  15.182   1.338   8.319 -0.0935 -0.1440 -0.3006
    5loPI   C5A   75  15.376   1.291   7.907 -0.3036  0.0921  0.1189
    5loPI   C6A   76  15.498   1.198   7.499  0.1647  0.0147 -0.1481
    5loPI   C1B   77  15.616   0.782   9.440  0.3279  0.0681 -0.0229
    5loPI   C2B   78  15.444   0.789   8.969 -0.1717 -0.2240  0.1102
    5loPI   C3B   79  15.392   0.858   8.592 -0.1192 -0.1421 -0.2261
    5loPI   C4B   80  15.331   0.814   8.157  0.1056  0.0761  0.1672
    6loPI    C1   81   5.362  10.581  10.478  0.1987 -0.2309 -0.1327
    6loPI    C2   82   5.520  10.661  10.836 -0.1268 -0.2041  0.0084
    6loPI    C3   83   5.158  10.493  10.810 -0.2733  0.1475 -0.3102
    6loPI   PO4   84   5.306  10.773  10.277 -0.0328  0.4269 -0.3248
    6loPI   GL1   85   5.627  10.775   9.932 -0.0558 -0.3140  0.7716
    6loPI   GL2   86   5.320  10.762   9.777 -0.2362 -0.4273  0.0268
    6loPI   C1A   87   5.822  10.776   9.521  0.2959  0.1457  0.2311
    6loPI   C2A   88   5.893  10.727   9.061 -0.1429 -0.1661 -0.0670
    6loPI   C3A   89   5.908  10.654   8.650  0.1303 -0.0167 -0.0121
    6loPI   C4A   90   6.019  10.664   8.156 -0.0100 -0.2070  0.2056
    6loPI   C5A   91   6.120  10.320   7.941  0.0798  0.3023  0.5965
    6loPI   C6A   92   5.918  10.027   7.717  0.1342 -0.2975  0.1917
    6loPI   C1B   93   5.387  10.905   9.300  0.1432 -0.1021  0.2710
    6loPI   C2B   94   5.434  10.855   8.888  0.3188  0.0845  0.0829
    6loPI   C3B   95   5.442  10.816   8.403 -0.0296  0.2290 -0.0863
    6loPI   C4B   96   5.590  10.799   8.019  0.1780 -0.0898 -0.2430
    7loPI    C1   97   6.283  17.846  10.672 -0.0602 -0.0136  0.0551
    7loPI    C2   98   5.904  17.825  10.799 -0.0947  0.0808 -0.0311
    7loPI    C3   99   6.203  17.857  11.063 -0.1409 -0.0700  0.0405
    7loPI   PO4  100   6.239  17.972  10.467 -0.1930  0.1890  0.1594
    7loPI   GL1  101   6.344  18.119   9.984 -0.0609 -0.2008  0.1264
    7loPI   GL2  102   6.658  18.032   9.989  0.0061 -0.0363  0.0808
    7loPI   C1A  103   6.196  18.170   9.562 -0.0646 -0.1135 -0.0762
    7loPI   C2A  104   6.331  18.164   9.224 -0.2185  0.1485 -0.3965
    7loPI   C3A  105   6.461  18.116   8.767  0.0142  0.0873  0.0238
    7loPI   C4A  106   6.479  18.051   8.269  0.0629 -0.0895 -0.0836
    7loPI   C5A  107   6.701  17.738   7.953 -0.1517  0.0184  0.0125
    7loPI   C6A  108   6.687  17.417   7.806 -0.0221 -0.1165 -0.0205
    7loPI   C1B  109   6.703  17.995   9.556  0.0649  0.0397  0.2992
    7loPI   C2B  110   6.779  17.950   9.101  0.0818  0.0292 -0.2365
    7loPI   C3B  111   6.967  17.905   8.720  0.0154 -0.0089  0.2531
    7loPI   C4B  112   7.105  17.868   8.328  0.1669  0.0452  0.4162
    8loPI    C1  113   1.779   8.965   9.732  0.0560  0.2570  0.0733
    8loPI    C2  114   2.156   8.840   9.690 -0.0664 -0.2195  0.3218
    8loPI    C3  115   2.053   9.058  10.009  0.0701  0.2259  0.0698
    8loPI   PO4  116   1.624   9.041   9.480 -0.2752 -0.0646  0.0796
    8loPI   GL1  117   1.737   9.250   9.021  0.1172 -0.2316 -0.0589
    8loPI   GL2  118   1.966   9.452   8.931  0.2633 -0.0249  0.0669
    8loPI   C1A  119   1.599   9.163   8.571 -0.3440 -0.1273 -0.2382
    8loPI   C2A  120   1.655   9.095   8.172  0.2205 -0.1237  0.0376
    8loPI   C3A  121   2.031   8.953   7.858  0.0888 -0.0507  0.0769
    8loPI   C4A  122   2.338   8.990   7.434 -0.0871 -0.2041 -0.0646
    8loPI   C5A  123   2.702   8.931   7.315 -0.3492 -0.1268  0.0644
    8loPI   C6A  124   2.973   8.544   7.198 -0.4846  0.1666 -0.0223
    8loPI   C1B  125   1.958   9.486   8.486 -0.0138 -0.1065 -0.2127
    8loPI   C2B  126   1.860   9.624   8.072 -0.1735 -0.2162 -0.1308
    8loPI   C3B  127   1.588   9.845   7.885  0.0254  0.0648  0.2888
    8loPI   C4B  128   1.388   9.747   7.422 -0.1254 -0.3174  0.0494
    9loPI    C1  129   1.553  10.223   9.475  0.0264 -0.2065  0.0400
    9loPI    C2  130   1.372  10.021   9.181 -0.1271  0.2953 -0.2208
    9loPI    C3  131   1.156  10.170   9.482 -0.0320  0.1845 -0.0966
    9loPI   PO4  132   1.703  10.422   9.335 -0.0933  0.1096 -0.0302
    9loPI   GL1  133   1.652  10.710   9.009 -0.1602  0.0186  0.2570
    9loPI   GL2  134   1.432  10.430   8.921  0.2431  0.1820 -0.0348
    9loPI   C1A  135   1.575  10.845   8.609  0.0072 -0.1533  0.0034
    9loPI   C2A  136   1.438  10.834   8.130 -0.2788 -0.1848  0.0562
    9loPI   C3A  137   1.339  10.700   7.750  0.0737  0.0584 -0.0656
    9loPI   C4A  138   1.353  10.604   7.281  0.0012 -0.1381 -0.2136
    9loPI   C5A  139   1.414  10.901   6.908 -0.0045 -0.0322  0.2376
    9loPI   C6A  140   1.428  11.401   7.043 -0.3102  0.1103  0.2580
    9loPI   C1B  141   1.432  10.435   8.451  0.0894 -0.1652  0.2859
    9loPI   C2B  142   1.469  10.342   8.033  0.2150  0.3567  0.2388
    9loPI   C3B  143   1.240  10.217   7.658 -0.4102  0.1085  0.1169
    9loPI   C4B  144   0.943  10.370   7.333  0.0115  0.1891  0.3518
   10loPI    C1  145   6.091   6.454  10.927  0.2897  0.0235 -0.1851
   10loPI    C2  146   6.253   6.316  11.266  0.2450  0.1652 -0.1054
   10loPI    C3  147   6.276   6.705  11.177 -0.0257  0.1832 -0.1072
   10loPI   PO4  148   6.144   6.252  10.733 -0.1158  0.2252  0.0191
   10loPI   GL1  149   6.232   6.162  10.284  0.1248 -0.3030  0.1170
   10loPI   GL2  150   6.655   6.174  10.140  0.2107 -0.1747 -0.0034
   10loPI   C1A  151   6.143   6.442   9.888  0.4867  0.1586  0.0185
   10loPI   C2A  152   6.014   6.365   9.439 -0.2519  0.0827 -0.0553
   10loPI   C3A  153   6.168   6.433   9.005 -0.1744 -0.3610 -0.3532
   10loPI   C4A  154   6.012   6.309   8.668  0.0886  0.2720 -0.0351
   10loPI   C5A  155   6.105   6.429   8.331 -0.0910 -0.0808 -0.0263
   10loPI   C6A  156   6.153   6.421   7.848 -0.0777  0.4109 -0.2088
   10loPI   C1B  157   6.533   6.100   9.645  0.0334 -0.2126 -0.1893
   10loPI   C2B  158   6.584   6.226   9.172  0.3149 -0.0114 -0.0879
   10loPI   C3B  159   6.553   6.313   8.744  0.5841 -0.1031  0.2226
   10loPI   C4B  160   6.590   6.238   8.290  0.0569  0.2061 -0.2225
   11loPI    C1  161  14.482  14.971  10.515  0.1230  0.0295  0.0455
   11loPI    C2  162  14.551  15.123  10.879  0.0152 -0.1601  0.1465
   11loPI    C3  163  14.306  14.810  10.836  0.0300 -0.1407 -0.0898
   11loPI   PO4  164  14.555  15.192  10.349  0.1609 -0.0083  0.0994
   11loPI   GL1  165  14.624  15.237   9.898 -0.0877  0.1732 -0.0833
   11loPI   GL2  166  14.482  14.929   9.894 -0.1356  0.2913  0.1045
   11loPI   C1A  167  14.766  15.200   9.463 -0.3480 -0.1666  0.0064
   11loPI   C2A  168  14.740  15.189   9.036 -0.3360 -0.0962  0.0408
   11loPI   C3A  169  14.594  15.359   8.470 -0.3763  0.1229  0.0679
   11loPI   C4A  170  14.572  15.366   8.136 -0.1581  0.2382 -0.0637
   11loPI   C5A  171  14.265  15.326   7.843  0.1767  0.2936 -0.1505
   11loPI   C6A  172  14.150  15.093   7.487 -0.1707 -0.0465  0.2334
   11loPI   C1B  173  14.441  14.860   9.523  0.3675 -0.1694 -0.1556
   11loPI   C2B  174  14.383  14.859   9.052 -0.3792 -0.1258  0.0779
   11loPI   C3B  175  14.274  14.902   8.692 -0.1005 -0.5011  0.2030
   11loPI   C4B  176  14.255  14.974   8.215  0.0964  0.1177 -0.1569
   12loPI    C1  177  16.517  11.682  10.048  0.1222 -0.2407 -0.0558
   12loPI    C2  178  16.785  11.447  10.230  0.3146 -0.0136 -0.0416
   12loPI    C3  179  16.697  11.806  10.383  0.2017  0.0248 -0.1942
   12loPI   PO4  180  16.575  11.614   9.802 -0.1566 -0.3342  0.2717
   12loPI   GL1  181  16.502  11.783   9.417 -0.0483  0.0288 -0.0575
   12loPI   GL2  182  16.434  12.088   9.438 -0.0281  0.1202  0.0393
   12loPI   C1A  183  16.676  11.764   8.973 -0.2602  0.1719  0.1222
   12loPI   C2A  184  16.691  11.740   8.559  0.3225  0.3316 -0.5795
   12loPI   C3A  185  16.507  11.545   8.229  0.0916  0.1460 -0.2895
   12loPI   C4A  186  16.442  11.718   7.786 -0.2158  0.1778 -0.0845
   12loPI   C5A  187  16.542  11.555   7.380  0.0193  0.2374  0.0526
   12loPI   C6A  188  16.676  11.517   6.957  0.3043  0.0913  0.3658
   12loPI   C1B  189  16.154  12.040   9.124  0.0489 -0.0927 -0.2649
   12loPI   C2B  190  15.802  11.914   8.958  0.0432 -0.1561 -0.1908
   12loPI   C3B  191  15.750  12.059   8.595  0.0930 -0.3796 -0.0042
   12loPI   C4B  192  15.693  12.010   8.165  0.1884  0.0994  0.3635
   13loPI    C1  193  17.288  12.387  10.024  0.0403 -0.2218  0.2069
   13loPI    C2  194  17.570  12.623  10.183 -0.0663  0.0180  0.0456
   13loPI    C3  195  17.201  12.621  10.337 -0.0962  0.0445 -0.0254
   13loPI   PO4  196  17.371  12.472   9.768  0.0671 -0.0010 -0.0932
   13loPI   GL1  197  17.403  12.587   9.338 -0.1016  0.0192  0.1429
   13loPI   GL2  198  17.062  12.707   9.366 -0.1649 -0.3263  0.2292
   13loPI   C1A  199  17.225  12.539   8.908 -0.0054  0.2462  0.1190
   13loPI   C2A  200  17.132  12.734   8.566 -0.0520 -0.2397 -0.1850
   13loPI   C3A  201  16.938  12.901   8.119  0.1396  0.0740 -0.2863
   13loPI   C4A  202  16.618  13.105   7.863 -0.2478 -0.0735  0.0926
   13loPI   C5A  203  16.175  13.242   7.507  0.1241 -0.0051 -0.3344
   13loPI   C6A  204  15.887  12.945   7.390  0.1840  0.0128 -0.0126
   13loPI   C1B  205  16.796  12.748   9.005 -0.1363 -0.2110  0.1203
   13loPI   C2B  206  16.603  12.696   8.515  0.0480  0.1144  0.0648
   13loPI   C3B  207  16.461  12.614   8.162 -0.2238 -0.2167 -0.3474
   13loPI   C4B  208  16.465  12.354   7.785 -0.2118 -0.2304  0.1169
   14loPI    C1  209   6.122   4.927  10.850  0.2232 -0.2537  0.0599
   14loPI    C2  210   6.250   4.977  11.226 -0.1038 -0.1816  0.1652
   14loPI    C3  211   6.004   4.674  11.137 -0.1127 -0.1354  0.0305
   14loPI   PO4  212   5.998   5.150  10.749  0.3198  0.3094 -0.0085
   14loPI   GL1  213   6.007   5.327  10.335 -0.4739 -0.0829 -0.0666
   14loPI   GL2  214   5.850   5.134  10.113  0.1388 -0.0408  0.1526
   14loPI   C1A  215   6.236   5.292   9.901 -0.0232  0.2179 -0.1107
   14loPI   C2A  216   6.262   5.418   9.500 -0.3579  0.0081  0.2250
   14loPI   C3A  217   6.412   5.304   9.122 -0.1824  0.1327  0.0147
   14loPI   C4A  218   6.413   5.417   8.715 -0.0841  0.2706  0.1784
   14loPI   C5A  219   6.668   5.400   8.350 -0.2773  0.1332  0.4458
   14loPI   C6A  220   6.998   5.466   8.022 -0.0733 -0.1851 -0.1153
   14loPI   C1B  221   5.963   4.963   9.620  0.1107 -0.3576  0.0073
   14loPI   C2B  222   6.023   5.023   9.187  0.1778  0.2528 -0.1571
   14loPI   C3B  223   6.081   5.044   8.867 -0.1262 -0.0157 -0.3318
   14loPI   C4B  224   6.192   5.099   8.399  0.1499 -0.0822 -0.1938
   15loPI    C1  225  14.143  15.658  10.350 -0.1151  0.1770  0.2441
   15loPI    C2  226  14.462  15.619  10.587  0.1163 -0.0885 -0.1007
   15loPI    C3  227  14.163  15.354  10.609  0.0817 -0.0433 -0.0237
   15loPI   PO4  228  14.285  15.682  10.097  0.0798 -0.0834 -0.0740
   15loPI   GL1  229  14.506  15.909   9.859 -0.1616 -0.1934 -0.1130
   15loPI   GL2  230  14.647  15.723   9.682  0.1602 -0.0499 -0.1158
   15loPI   C1A  231  14.471  16.210   9.580 -0.2663  0.0628 -0.0836
   15loPI   C2A  232  14.497  16.218   9.128 -0.0572 -0.0964 -0.1375
   15loPI   C3A  233  14.444  16.279   8.681  0.1534 -0.0113  0.2120
   15loPI   C4A  234  14.256  16.463   8.342  0.0879  0.0692 -0.2202
   15loPI   C5A  235  14.098  16.396   8.003 -0.2517  0.1460 -0.1293
   15loPI   C6A  236  13.947  16.574   7.658 -0.1354 -0.3979  0.0000
   15loPI   C1B  237  14.579  15.735   9.251 -0.1959 -0.2579  0.0709
   15loPI   C2B  238  14.524  15.831   8.789 -0.3365 -0.0481  0.1848
   15loPI   C3B  239  14.509  15.881   8.360 -0.2234  0.1215 -0.1286
   15loPI   C4B  240  14.327  15.792   7.964 -0.0636 -0.2785 -0.1494
   16loPI    C1  241  11.574  15.771  11.311  0.0353 -0.0758  0.2001
   16loPI    C2  242  11.280  15.570  11.493 -0.0813  0.0384  0.1388
   16loPI    C3  243  11.453  15.881  11.676 -0.0925  0.0564  0.1188
   16loPI   PO4  244  11.476  15.860  11.061  0.0502  0.2681 -0.0434
   16loPI   GL1  245  11.706  15.906  10.682  0.0489  0.0207  0.0285
   16loPI   GL2  246  11.372  16.075  10.545  0.1514  0.0421  0.0374
   16loPI   C1A  247  11.799  15.831  10.349  0.2847  0.2080  0.0781
   16loPI   C2A  248  11.877  15.692   9.963  0.0534 -0.1936 -0.0960
   16loPI   C3A  249  11.893  15.713   9.546  0.1297  0.0216  0.0656
   16loPI   C4A  250  11.669  15.626   9.126 -0.0299 -0.3280  0.2183
   16loPI   C5A  251  11.690  15.718   8.806  0.3071 -0.0130 -0.0950
   16loPI   C6A  252  11.646  15.705   8.379 -0.0095  0.1816 -0.5607
   16loPI   C1B  253  11.247  16.227  10.084  0.0562 -0.0039 -0.0197
   16loPI   C2B  254  11.232  16.279   9.698  0.2234  0.0463  0.0793
   16loPI   C3B  255  11.085  16.335   9.269  0.3933  0.1624 -0.0955
   16loPI   C4B  256  11.017  16.268   8.765 -0.1921  0.1350 -0.4183
   17loPI    C1  257   2.803  11.224   9.926  0.0072 -0.0246  0.0892
   17loPI    C2  258   2.487  11.034   9.769 -0.0914  0.0190  0.2324
   17loPI    C3  259   2.511  11.089  10.165 -0.0586  0.2946  0.1943
   17loPI   PO4  260   2.958  11.178   9.658  0.0454 -0.1023  0.1488
   17loPI   GL1  261   3.262  11.102   9.364 -0.2139  0.2566  0.1285
   17loPI   GL2  262   3.512  10.947   9.519 -0.0833  0.1141 -0.3478
   17loPI   C1A  263   3.494  10.954   8.976 -0.1343  0.4083 -0.0823
   17loPI   C2A  264   3.571  10.881   8.468 -0.1190 -0.3910 -0.1108
   17loPI   C3A  265   3.567  10.799   8.020 -0.2534  0.0655 -0.0044
   17loPI   C4A  266   3.545  10.820   7.593  0.4470  0.2929  0.2618
   17loPI   C5A  267   3.279  11.076   7.373 -0.3870  0.0032  0.0024
   17loPI   C6A  268   2.876  11.000   7.339  0.2171  0.1461  0.0813
   17loPI   C1B  269   3.684  10.552   9.413  0.1875  0.1095  0.0111
   17loPI   C2B  270   3.719  10.378   8.983 -0.1174  0.1993 -0.0094
   17loPI   C3B  271   3.736  10.467   8.667 -0.1265 -0.2645 -0.3389
   17loPI   C4B  272   3.714  10.423   8.296 -0.1406  0.0341  0.1078
   18loPI    C1  273   8.519  12.849  10.858  0.0562  0.0440 -0.1033
   18loPI    C2  274   8.134  12.949  10.898  0.1346  0.2464  0.1814
   18loPI    C3  275   8.335  12.801  11.210  0.2643  0.0502  0.0076
   18loPI   PO4  276   8.554  12.931  10.638  0.0103 -0.3938  0.0921
   18loPI   GL1  277   8.451  12.818  10.250  0.1720 -0.2572  0.0572
   18loPI   GL2  278   8.208  13.013  10.057  0.3445  0.0709  0.2339
   18loPI   C1A  279   8.682  12.825   9.903  0.0959 -0.1637  0.1192
   18loPI   C2A  280   8.700  12.734   9.443  0.2563  0.0141 -0.0911
   18loPI   C3A  281   8.691  12.697   8.906  0.0190 -0.1131 -0.1601
   18loPI   C4A  282   8.645  12.662   8.518 -0.1554 -0.1465  0.0397
   18loPI   C5A  283   8.606  12.498   8.104  0.1191 -0.2325 -0.0145
   18loPI   C6A  284   8.444  12.206   7.833  0.0042  0.1466 -0.0372
   18loPI   C1B  285   8.177  12.895   9.682 -0.1482 -0.4010  0.2450
   18loPI   C2B  286   8.167  12.922   9.299 -0.0407 -0.1188  0.0698
   18loPI   C3B  287   8.200  12.800   8.797  0.0274 -0.1500 -0.0801
   18loPI   C4B  288   8.251  12.962   8.434  0.1179 -0.0597 -0.1862
   19loPI    C1  289   3.501   3.960  10.845 -0.1178 -0.1119  0.2169
   19loPI    C2  290   3.751   3.749  11.076  0.0086 -0.1786  0.0222
   19loPI    C3  291   3.661   4.127  11.172  0.1836 -0.1544  0.0950
   19loPI   PO4  292   3.569   3.878  10.572 -0.1407  0.0392 -0.4049
   19loPI   GL1  293   3.458   3.706  10.167 -0.0288 -0.0867 -0.0313
   19loPI   GL2  294   3.801   3.781  10.122 -0.1265 -0.2980 -0.0606
   19loPI   C1A  295   3.309   3.786   9.714  0.3913 -0.0097 -0.1211
   19loPI   C2A  296   3.292   3.730   9.226 -0.0699  0.4622  0.3602
   19loPI   C3A  297   3.276   3.788   8.794 -0.0414 -0.1346  0.3841
   19loPI   C4A  298   3.306   3.946   8.371 -0.1880 -0.0461  0.1163
   19loPI   C5A  299   3.217   4.175   7.993 -0.2203  0.1618  0.1522
   19loPI   C6A  300   3.035   4.245   7.590  0.0641 -0.3218 -0.1356
   19loPI   C1B  301   3.821   3.971   9.712 -0.0704  0.1518 -0.3209
   19loPI   C2B  302   3.806   3.994   9.238 -0.1446  0.0612 -0.1853
   19loPI   C3B  303   4.029   4.020   8.815  0.1385  0.1099 -0.1152
   19loPI   C4B  304   4.172   4.205   8.321 -0.2673 -0.0255  0.1084
   20loPI    C1  305  10.981   0.489  10.747 -0.1902  0.1348 -0.0313
   20loPI    C2  306  11.099   0.753  11.022 -0.0133  0.1182 -0.0899
   20loPI    C3  307  11.126   0.361  11.097 -0.1060  0.1146 -0.0733
   20loPI   PO4  308  11.078   0.538  10.596 -0.0960 -0.1325  0.5255
   20loPI   GL1  309  11.020   0.367  10.236 -0.0638  0.0987  0.0123
   20loPI   GL2  310  11.340   0.372  10.103  0.0020 -0.0029 -0.0318
   20loPI   C1A  311  10.899   0.610   9.828  0.0229 -0.0224  0.1126
   20loPI   C2A  312  10.767   0.661   9.317  0.0012  0.0598 -0.0914
   20loPI   C3A  313  10.815   0.782   9.009  0.0472 -0.0474 -0.1189
   20loPI   C4A  314  10.765   0.771   8.573  0.2398 -0.4968 -0.0507
   20loPI   C5A  315  10.760   0.693   8.185  0.0588  0.2098 -0.0538
   20loPI   C6A  316  10.649   0.690   7.826 -0.1279  0.1768 -0.0944
   20loPI   C1B  317  11.320   0.483   9.685  0.0257  0.0713 -0.0944
   20loPI   C2B  318  11.308   0.558   9.229 -0.0770  0.1504  0.0914
   20loPI   C3B  319  11.274   0.649   8.851  0.2156 -0.1294  0.5274
   20loPI   C4B  320  11.235   0.729   8.410 -0.1582  0.0079  0.0246
   21loPI    C1  321   2.651   5.280  10.116 -0.1534 -0.2417 -0.2337
   21loPI    C2  322   2.529   4.974  10.341  0.0708  0.0252  0.2664
   21loPI    C3  323   2.317   5.313  10.333  0.0703  0.0211  0.0813
   21loPI   PO4  324   2.779   5.100   9.919  0.2258  0.0428  0.1357
   21loPI   GL1  325   3.018   5.052   9.580  0.0908 -0.1370 -0.1717
   21loPI   GL2  326   3.175   4.838   9.683 -0.2083  0.3703  0.2867
   21loPI   C1A  327   2.916   4.950   9.237  0.0309 -0.0417  0.0191
   21loPI   C2A  328   2.735   4.985   8.895  0.1423  0.0150  0.0645
   21loPI   C3A  329   2.888   4.920   8.509 -0.1498  0.0514  0.1641
   21loPI   C4A  330   3.107   5.009   8.190 -0.2513  0.3109 -0.1188
   21loPI   C5A  331   3.232   4.663   7.839 -0.2479 -0.2277  0.0218
   21loPI   C6A  332   3.460   4.527   7.438  0.3570  0.0638 -0.1613
   21loPI   C1B  333   3.357   4.703   9.286 -0.1182  0.4127 -0.2498
   21loPI   C2B  334   3.403   4.650   8.798  0.2055 -0.0268 -0.0821
   21loPI   C3B  335   3.463   4.682   8.327 -0.1622  0.1692 -0.3451
   21loPI   C4B  336   3.866   4.725   8.004 -0.0071 -0.0302  0.2151
   22loPI    C1  337   5.550  12.030  10.547 -0.2400 -0.2611  0.1489
   22loPI    C2  338   5.455  12.415  10.493  0.2053 -0.1667  0.0003
   22loPI    C3  339   5.390  12.242  10.847 -0.3090 -0.0545 -0.0307
   22loPI   PO4  340   5.794  12.075  10.351 -0.2281 -0.0567 -0.1791
   22loPI   GL1  341   5.844  12.045   9.915  0.0134  0.2374 -0.1110
   22loPI   GL2  342   6.172  12.286   9.767  0.0477 -0.2494  0.2827
   22loPI   C1A  343   5.991  11.919   9.486 -0.1937  0.3266  0.1687
   22loPI   C2A  344   6.056  12.114   9.050 -0.2959  0.3037 -0.4971
   22loPI   C3A  345   6.149  12.160   8.602  0.0200 -0.0892  0.4152
   22loPI   C4A  346   6.151  12.113   8.197 -0.3953  0.0095  0.1099
   22loPI   C5A  347   6.034  12.117   7.767 -0.3245  0.2495  0.0897
   22loPI   C6A  348   5.621  11.994   7.640 -0.0797  0.1756  0.3810
   22loPI   C1B  349   6.325  12.336   9.366 -0.0507  0.0949 -0.0490
   22loPI   C2B  350   6.565  12.434   8.961  0.1633  0.1190 -0.1231
   22loPI   C3B  351   6.453  12.549   8.566 -0.1844  0.1191  0.1282
   22loPI   C4B  352   6.542  12.470   8.238 -0.1800  0.1963 -0.1070
   23loPI    C1  353  17.897  12.046  10.177 -0.0438 -0.1797 -0.1551
   23loPI    C2  354  17.623  11.759  10.129 -0.0090 -0.2023 -0.2187
   23loPI    C3  355  17.781  11.826  10.490  0.0860 -0.3575 -0.2306
   23loPI   PO4  356  17.775  12.226   9.970  0.0347  0.1556  0.1477
   23loPI   GL1  357  17.757  12.280   9.519 -0.2462 -0.1697 -0.0376
   23loPI   GL2  358  18.028  12.106   9.286 -0.2329 -0.1230 -0.1459
   23loPI   C1A  359  17.544  12.126   9.089 -0.1927 -0.0240  0.0595
   23loPI   C2A  360  17.531  12.176   8.651  0.0058  0.1436  0.2172
   23loPI   C3A  361  17.347  12.338   8.249 -0.0738 -0.2316 -0.2589
   23loPI   C4A  362  17.367  12.602   8.005 -0.0150 -0.1551  0.1474
   23loPI   C5A  363  17.186  12.872   7.705  0.1492 -0.0276  0.1160
   23loPI   C6A  364  17.090  13.257   7.567 -0.0522  0.0086  0.1627
   23loPI   C1B  365  18.033  12.155   8.842  0.0468 -0.1180 -0.3632
   23loPI   C2B  366  18.038  12.326   8.521  0.0803  0.1322  0.2772
   23loPI   C3B  367  17.809  12.405   8.231 -0.0585 -0.2268  0.0331
   23loPI   C4B  368  17.841  12.522   7.837 -0.0146  0.3402  0.3920
   24loPI    C1  369   0.458   9.253   9.565 -0.0451 -0.0303  0.0460
   24loPI    C2  370   0.499   9.554   9.824  0.1545 -0.1628  0.1713
   24loPI    C3  371   0.134   9.431   9.716  0.0716  0.1142  0.1279
   24loPI   PO4  372   0.781   9.194   9.639  0.0469 -0.2385 -0.0289
   24loPI   GL1  373   1.076   9.196   9.417 -0.0302  0.2634 -0.0956
   24loPI   GL2  374   1.120   9.022   9.230 -0.0373  0.0974 -0.0522
   24loPI   C1A  375   1.226   9.515   9.053 -0.0267 -0.0418 -0.1703
   24loPI   C2A  376   1.443   9.672   8.788 -0.0243 -0.2063  0.0340
   24loPI   C3A  377   1.431   9.618   8.324  0.2047 -0.0623 -0.0040
   24loPI   C4A  378   1.316   9.393   7.901 -0.1792 -0.0262  0.1915
   24loPI   C5A  379   1.711   9.348   7.701  0.0523  0.2871  0.3187
   24loPI   C6A  380   1.809   9.078   7.347  0.0977  0.0046 -0.0234
   24loPI   C1B  381   1.185   9.007   8.824 -0.1710  0.0208  0.2739
   24loPI   C2B  382   1.174   8.986   8.332  0.2070  0.0988 -0.1498
   24loPI   C3B  383   1.197   8.757   8.010 -0.0085  0.0680  0.1508
   24loPI   C4B  384   1.375   8.915   7.743  0.0276  0.4487  0.2459
   25loPI    C1  385   0.664   3.257  10.199  0.2387  0.1645  0.0107
   25loPI    C2  386   0.334   3.291  10.422  0.1347 -0.0915 -0.1004
   25loPI    C3  387   0.694   3.311  10.594  0.0681  0.3390  0.0019
   25loPI   PO4  388   0.636   3.310   9.977  0.0350  0.0754 -0.1966
   25loPI   GL1  389   0.814   3.122   9.560 -0.2128  0.1767  0.2671
   25loPI   GL2  390   0.920   3.264   9.358  0.3716  0.0015  0.0232
   25loPI   C1A  391   0.810   2.799   9.214  0.2576 -0.1233 -0.1119
   25loPI   C2A  392   0.794   2.839   8.732 -0.0619  0.1351 -0.1620
   25loPI   C3A  393   0.679   2.845   8.364  0.0709 -0.0082  0.1733
   25loPI   C4A  394   0.641   2.803   7.923  0.4127  0.0949 -0.2831
   25loPI   C5A  395   0.913   2.997   7.592  0.0298  0.1284 -0.1812
   25loPI   C6A  396   1.101   3.316   7.441 -0.0214 -0.0906  0.1536
   25loPI   C1B  397   0.874   3.409   8.956  0.0127 -0.2236 -0.1978
   25loPI   C2B  398   0.729   3.353   8.602  0.2627 -0.2005  0.0614
   25loPI   C3B  399   0.732   3.367   8.211  0.0793  0.0260 -0.0257
   25loPI   C4B  400   1.095   3.339   7.912  0.2602  0.1410 -0.2042
   26loPI    C1  401  10.331   0.611  10.947 -0.0060 -0.0590  0.0280
   26loPI    C2  402  10.666   0.568  11.160 -0.1308  0.2508  0.2948
   26loPI    C3  403  10.319   0.643  11.345 -0.3859 -0.2442  0.0362
   26loPI   PO4  404  10.320   0.502  10.799 -0.0634  0.0090  0.2514
   26loPI   GL1  405  10.465   0.385  10.458 -0.3065  0.2720  0.2037
   26loPI   GL2  406  10.543   0.553  10.285 -0.1227  0.2314 -0.0487
   26loPI   C1A  407  10.530   0.174  10.067  0.0501 -0.4253  0.0353
   26loPI   C2A  408  10.491   0.249   9.599  0.1846 -0.0231 -0.4201
   26loPI   C3A  409  10.372   0.380   9.154  0.0831  0.1562  0.2081
   26loPI   C4A  410  10.404   0.456   8.671 -0.0546 -0.2172 -0.2515
   26loPI   C5A  411  10.050   0.459   8.402 -0.2025  0.3167 -0.0134
   26loPI   C6A  412   9.776   0.312   8.365  0.1092  0.3354 -0.1911
   26loPI   C1B  413  10.402   0.644   9.990 -0.1688 -0.0202 -0.1829
   26loPI   C2B  414  10.274   0.688   9.591  0.1030 -0.5309 -0.2285
   26loPI   C3B  415  10.264   0.910   9.181 -0.1682 -0.0468 -0.0147
   26loPI   C4B  416  10.253   0.907   8.706  0.2339  0.0375  0.2946
   27loPI    C1  417   9.900  13.979  11.023  0.0892  0.2192 -0.0698
   27loPI    C2  418  10.249  14.144  11.126  0.2015 -0.0462 -0.0168
   27loPI    C3  419  10.192  13.751  11.172 -0.1234  0.0025  0.0223
   27loPI   PO4  420   9.930  14.002  10.748  0.0380  0.1452  0.0366
   27loPI   GL1  421   9.949  14.259  10.376  0.1917 -0.2353  0.3893
   27loPI   GL2  422   9.625  14.356  10.437 -0.0657  0.0052 -0.2893
   27loPI   C1A  423  10.228  14.168  10.101 -0.2039  0.3300 -0.1901
   27loPI   C2A  424  10.234  14.161   9.670  0.2194 -0.0215  0.3360
   27loPI   C3A  425  10.133  14.237   9.247 -0.0884  0.0226 -0.1524
   27loPI   C4A  426  10.182  14.118   8.830  0.0221 -0.7394  0.2090
   27loPI   C5A  427   9.984  14.080   8.552  0.1165 -0.1333 -0.5137
   27loPI   C6A  428   9.770  14.242   8.283  0.0922  0.0279  0.1357
   27loPI   C1B  429   9.655  14.304   9.918  0.1955 -0.0726  0.0040
   27loPI   C2B  430   9.688  14.349   9.442 -0.2886 -0.0746  0.1718
   27loPI   C3B  431   9.705  14.348   8.963 -0.3075 -0.0481 -0.3056
   27loPI   C4B  432   9.607  14.560   8.627  0.0772 -0.0663 -0.1489
   28loPI    C1  433  11.642  11.901  10.937  0.1563 -0.1016 -0.0666
   28loPI    C2  434  11.926  11.684  11.118 -0.0182 -0.0762  0.2437
   28loPI    C3  435  11.706  11.943  11.330  0.0471  0.2552 -0.0836
   28loPI   PO4  436  11.532  11.677  10.730 -0.1517  0.1402 -0.4049
   28loPI   GL1  437  11.579  11.750  10.310 -0.5145 -0.4470  0.2522
   28loPI   GL2  438  11.862  11.780  10.224  0.0507 -0.1803 -0.0621
   28loPI   C1A  439  11.346  11.899   9.841  0.1018 -0.1378 -0.0197
   28loPI   C2A  440  11.247  11.936   9.547 -0.0132  0.1061  0.0014
   28loPI   C3A  441  11.192  11.839   9.082  0.1870  0.1897 -0.1019
   28loPI   C4A  442  11.314  11.988   8.730  0.1338  0.2345 -0.0923
   28loPI   C5A  443  11.108  12.106   8.396 -0.0035 -0.1228  0.0137
   28loPI   C6A  444  10.982  12.214   7.992 -0.2861 -0.0165 -0.2603
   28loPI   C1B  445  11.811  11.969   9.831 -0.2441 -0.2233  0.2277
   28loPI   C2B  446  11.727  11.861   9.360 -0.1462  0.0415  0.0014
   28loPI   C3B  447  11.770  11.870   8.929 -0.0775  0.0123  0.1747
   28loPI   C4B  448  11.713  12.052   8.450 -0.0743  0.0315  0.0495
   29loPI    C1  449   4.753   1.842  10.376  0.2970  0.1206  0.0825
   29loPI    C2  450   4.900   1.478  10.448  0.1690  0.0136 -0.1822
   29loPI    C3  451   5.006   1.786  10.681  0.1914 -0.2114  0.1122
   29loPI   PO4  452   4.775   1.851  10.111 -0.1720  0.5041  0.0004
   29loPI   GL1  453   5.052   1.662   9.841 -0.0060 -0.0051  0.3330
   29loPI   GL2  454   5.066   1.287   9.998  0.0634 -0.0236 -0.1191
   29loPI   C1A  455   4.954   1.474   9.414 -0.2035 -0.1724 -0.1868
   29loPI   C2A  456   4.921   1.502   8.944  0.0504  0.0011  0.2059
   29loPI   C3A  457   4.984   1.513   8.462  0.0703 -0.1848  0.1234
   29loPI   C4A  458   5.090   1.434   7.986  0.0466 -0.2897  0.0481
   29loPI   C5A  459   4.997   1.454   7.652  0.2143 -0.0540 -0.5180
   29loPI   C6A  460   4.881   1.607   7.315 -0.0850  0.0029 -0.2929
   29loPI   C1B  461   4.958   1.064   9.747  0.1897  0.2310  0.0894
   29loPI   C2B  462   5.096   1.028   9.376  0.0700  0.2589 -0.0136
   29loPI   C3B  463   5.096   1.036   8.927  0.1900  0.2747 -0.0041
   29loPI   C4B  464   5.174   1.042   8.364 -0.2233  0.0786  0.0954
   30loPI    C1  465  11.732   4.457  11.265 -0.1473  0.1643  0.1043
   30loPI    C2  466  12.098   4.579  11.370 -0.1418  0.0624  0.2064
   30loPI    C3  467  11.894   4.333  11.609 -0.1060 -0.2229 -0.0504
   30loPI   PO4  468  11.683   4.389  10.940 -0.1973  0.1451  0.1577
   30loPI   GL1  469  11.507   4.433  10.580 -0.2038  0.0891 -0.2057
   30loPI   GL2  470  11.239   4.246  10.590 -0.0643 -0.0850 -0.0429
   30loPI   C1A  471  11.362   4.449  10.144 -0.1667  0.1699 -0.1241
   30loPI   C2A  472  11.504   4.358   9.791  0.0484  0.0091 -0.3268
   30loPI   C3A  473  11.316   4.450   9.386 -0.0054  0.1211 -0.0866
   30loPI   C4A  474  11.280   4.398   8.937 -0.1176  0.1679 -0.1376
   30loPI   C5A  475  11.296   4.587   8.452 -0.1085  0.3877  0.1805
   30loPI   C6A  476  11.311   4.857   8.186  0.0651 -0.1728  0.0352
   30loPI   C1B  477  11.522   3.984  10.290  0.2699 -0.3494  0.2497
   30loPI   C2B  478  11.548   3.869   9.816 -0.0401  0.1712  0.1094
   30loPI   C3B  479  11.464   3.887   9.399 -0.1054 -0.0840  0.1387
   30loPI   C4B  480  11.391   3.914   8.951  0.1507  0.1108  0.2290
   31loPI    C1  481  14.622  17.045  10.307  0.1928 -0.0816  0.1526
   31loPI    C2  482  14.751  17.351  10.085  0.1146 -0.0038  0.2132
   31loPI    C3  483  14.999  17.172  10.342  0.0769  0.2068  0.3993
   31loPI   PO4  484  14.472  16.890  10.149 -0.1595 -0.1469 -0.0711
   31loPI   GL1  485  14.645  16.811   9.681  0.3980 -0.0905  0.1867
   31loPI   GL2  486  14.928  16.953   9.826 -0.1337 -0.1820  0.1423
   31loPI   C1A  487  14.370  16.723   9.306  0.0246 -0.2014 -0.2376
   31loPI   C2A  488  14.316  16.719   8.833 -0.0221  0.4267  0.1386
   31loPI   C3A  489  14.268  16.876   8.586  0.0064  0.1162 -0.1522
   31loPI   C4A  490  14.023  16.878   8.153  0.1370 -0.0214  0.1351
   31loPI   C5A  491  14.194  17.103   7.804  0.0086 -0.0153 -0.0844
   31loPI   C6A  492  14.488  17.425   7.610  0.0392  0.4673  0.0876
   31loPI   C1B  493  14.764  17.264   9.640  0.1257 -0.2062 -0.0130
   31loPI   C2B  494  14.651  17.192   9.194 -0.0241  0.1291 -0.2603
   31loPI   C3B  495  14.656  17.176   8.767  0.0481  0.2513  0.0106
   31loPI   C4B  496  14.484  17.301   8.396  0.1403 -0.0900 -0.3823
   32loPI    C1  497   6.227  13.375  10.474  0.0793 -0.0786 -0.1362
   32loPI    C2  498   6.232  12.978  10.518  0.1577 -0.0544  0.0850
   32loPI    C3  499   6.556  13.194  10.611  0.0820  0.0711  0.0595
   32loPI   PO4  500   6.190  13.421  10.195 -0.1217 -0.0919 -0.0672
   32loPI   GL1  501   6.309  13.291   9.858 -0.2543 -0.0025 -0.2241
   32loPI   GL2  502   6.093  13.186   9.713  0.0040 -0.0932 -0.1070
   32loPI   C1A  503   6.504  13.338   9.461 -0.0587 -0.1691 -0.0150
   32loPI   C2A  504   6.743  13.309   9.018  0.1268  0.2839 -0.2474
   32loPI   C3A  505   6.799  13.332   8.539  0.3277  0.1838  0.1921
   32loPI   C4A  506   6.726  13.451   8.136  0.0920  0.0939  0.0543
   32loPI   C5A  507   6.508  13.266   7.835 -0.0775  0.0919 -0.1253
   32loPI   C6A  508   6.319  12.908   7.712 -0.0325  0.0435  0.0744
   32loPI   C1B  509   6.027  13.517   9.440  0.0506 -0.0839 -0.1709
   32loPI   C2B  510   6.205  13.450   9.040 -0.0769 -0.0056 -0.0747
   32loPI   C3B  511   6.208  13.498   8.605 -0.0396  0.3520  0.1859
   32loPI   C4B  512   6.324  13.697   8.127  0.0835 -0.0036  0.1794
   33loPI    C1  513  17.362   0.885  10.215  0.2005  0.0608 -0.0654
   33loPI    C2  514  17.648   0.972  10.480 -0.0480 -0.0786  0.2561
   33loPI    C3  515  17.289   1.145  10.510 -0.0567 -0.0411 -0.0362
   33loPI   PO4  516  17.476   0.896   9.925  0.2006 -0.1680 -0.0518
   33loPI   GL1  517  17.629   0.814   9.505 -0.0168  0.0077 -0.0205
   33loPI   GL2  518  17.978   0.887   9.609 -0.0613  0.0139 -0.2125
   33loPI   C1A  519  17.512   0.766   9.113  0.3223  0.0590  0.2889
   33loPI   C2A  520  17.358   0.782   8.671  0.2568 -0.1780  0.3376
   33loPI   C3A  521  17.380   0.801   8.301 -0.1537 -0.1635  0.1981
   33loPI   C4A  522  17.182   0.683   7.881  0.0014  0.0691  0.0873
   33loPI   C5A  523  17.119   0.806   7.517  0.0625  0.1976 -0.3470
   33loPI   C6A  524  17.440   0.554   7.205 -0.2735 -0.1074  0.2528
   33loPI   C1B  525  17.972   0.612   9.234  0.1288 -0.1590  0.0493
   33loPI   C2B  526  17.878   0.615   8.818  0.2703  0.0972 -0.0455
   33loPI   C3B  527  17.910   0.853   8.356  0.0560  0.0067  0.0870
   33loPI   C4B  528  17.623   0.963   7.880  0.4655 -0.0042  0.0558
   34loPI    C1  529   9.274  18.368  11.431 -0.3034 -0.0008  0.0415
   34loPI    C2  530   9.552  18.643  11.514 -0.0551 -0.1959 -0.1299
   34loPI    C3  531   9.223  18.618  11.740  0.0956 -0.0057  0.1163
   34loPI   PO4  532   9.279  18.377  11.083 -0.0135 -0.0634  0.2624
   34loPI   GL1  533   9.228  18.439  10.717  0.1125  0.0511  0.2536
   34loPI   GL2  534   9.326  18.678  10.588 -0.6157 -0.0822  0.1140
   34loPI   C1A  535   9.182  18.240  10.219 -0.0742  0.0679  0.0145
   34loPI   C2A  536   9.162  18.345   9.838 -0.3348 -0.3438 -0.0216
   34loPI   C3A  537   9.182  18.302   9.354  0.0659 -0.1990  0.0812
   34loPI   C4A  538   9.167  18.241   8.954  0.3095  0.4142  0.0363
   34loPI   C5A  539   9.144  18.552   8.599  0.2264 -0.2334  0.2102
   34loPI   C6A  540   8.917  18.843   8.347  0.2142  0.1197 -0.0721
   34loPI   C1B  541   9.150  18.771  10.156  0.2653 -0.2562 -0.0217
   34loPI   C2B  542   9.066  18.847   9.749  0.1050 -0.3642 -0.4263
   34loPI   C3B  543   9.071  18.761   9.427 -0.4540 -0.0109 -0.2030
   34loPI   C4B  544   9.016  18.806   9.040 -0.1378 -0.2461  0.0348
   35loPI    C1  545   4.343   2.478  10.506  0.4490  0.1426  0.3239
   35loPI    C2  546   3.980   2.487  10.673  0.2441 -0.2755 -0.0775
   35loPI    C3  547   4.293   2.352  10.882  0.1701  0.0602  0.2611
   35loPI   PO4  548   4.331   2.628  10.336 -0.1174 -0.0536 -0.0449
   35loPI   GL1  549   4.529   2.676   9.955  0.1018  0.3090 -0.3419
   35loPI   GL2  550   4.173   2.701   9.856 -0.2636  0.2512  0.3539
   35loPI   C1A  551   4.593   2.675   9.495 -0.1470  0.0320 -0.2550
   35loPI   C2A  552   4.777   2.580   9.102  0.2753 -0.2001  0.1184
   35loPI   C3A  553   4.805   2.571   8.612 -0.1531  0.1038 -0.4142
   35loPI   C4A  554   4.573   2.732   8.196  0.1600 -0.0551  0.2076
   35loPI   C5A  555   4.375   3.044   7.956 -0.2354 -0.1493 -0.0353
   35loPI   C6A  556   4.128   3.312   7.730 -0.1104 -0.0228  0.1544
   35loPI   C1B  557   4.111   2.733   9.404  0.2720  0.0131  0.1725
   35loPI   C2B  558   4.074   2.754   8.999 -0.0847  0.0552 -0.0598
   35loPI   C3B  559   4.286   2.680   8.617  0.2574  0.0701  0.4064
   35loPI   C4B  560   4.038   3.014   8.287  0.0167 -0.2864 -0.1946
   36loPI    C1  561   5.595   7.209  10.619 -0.2648 -0.2678 -0.0995
   36loPI    C2  562   5.634   6.919  10.892 -0.0691  0.0498  0.2193
   36loPI    C3  563   5.605   7.301  11.008  0.1318  0.2021 -0.2103
   36loPI   PO4  564   5.823   7.141  10.423 -0.1742 -0.2318  0.0429
   36loPI   GL1  565   6.076   7.155   9.988 -0.2406 -0.2093  0.2431
   36loPI   GL2  566   6.160   6.826  10.163 -0.3621 -0.1324  0.2104
   36loPI   C1A  567   5.945   7.275   9.578 -0.3511 -0.1214 -0.1353
   36loPI   C2A  568   5.856   7.366   9.232  0.0809  0.1071  0.0667
   36loPI   C3A  569   5.773   7.349   8.763  0.0842 -0.0949 -0.1505
   36loPI   C4A  570   5.766   7.442   8.381 -0.2966  0.1746 -0.0525
   36loPI   C5A  571   5.829   7.370   7.957 -0.0645 -0.0903 -0.2428
   36loPI   C6A  572   6.054   7.427   7.597  0.0150  0.1040  0.1251
   36loPI   C1B  573   6.426   6.849   9.723  0.2336 -0.1806  0.0198
   36loPI   C2B  574   6.426   6.710   9.367 -0.1245  0.0779 -0.2830
   36loPI   C3B  575   6.510   6.814   8.903 -0.1414  0.1129 -0.0079
   36loPI   C4B  576   6.511   6.821   8.527 -0.4327  0.3696  0.0501
   37loPI    C1  577  16.341  17.855  10.368  0.0972  0.0916  0.1050
   37loPI    C2  578  16.525  17.579  10.591 -0.0841 -0.0832  0.0419
   37loPI    C3  579  16.368  17.903  10.764 -0.0292 -0.1079  0.1395
   37loPI   PO4  580  16.307  17.796  10.167 -0.0769  0.2466 -0.0871
   37loPI   GL1  581  16.192  17.786   9.709 -0.2477  0.0212  0.1115
   37loPI   GL2  582  16.322  18.103   9.800 -0.1398  0.2148 -0.0024
   37loPI   C1A  583  16.062  17.917   9.289 -0.0181 -0.1185  0.0570
   37loPI   C2A  584  15.922  17.812   8.821 -0.4442  0.2709 -0.2113
   37loPI   C3A  585  15.899  17.798   8.434  0.0029  0.3993 -0.0134
   37loPI   C4A  586  15.904  17.804   8.022 -0.1207 -0.1791 -0.0576
   37loPI   C5A  587  15.987  18.169   7.733 -0.0795  0.3136 -0.2184
   37loPI   C6A  588  16.139  18.245   7.316 -0.0563 -0.2354  0.0530
   37loPI   C1B  589  16.492  18.179   9.449 -0.0916 -0.4207  0.2762
   37loPI   C2B  590  16.344  18.189   8.999 -0.0508 -0.2619 -0.1041
   37loPI   C3B  591  16.154  18.260   8.669  0.0761  0.1411 -0.3481
   37loPI   C4B  592  16.189  18.154   8.234  0.1767  0.1164 -0.0099
   38loPI    C1  593   5.653   0.736  10.477 -0.0430 -0.1176  0.1217
   38loPI    C2  594   5.892   0.664  10.790  0.0604  0.0083  0.0723
   38loPI    C3  595   5.618   0.955  10.810  0.0544  0.0041  0.0525
   38loPI   PO4  596   5.808   0.758  10.248 -0.4045 -0.0066  0.2196
   38loPI   GL1  597   5.780   0.481   9.847  0.0419  0.0220  0.1812
   38loPI   GL2  598   5.470   0.305   9.836  0.0244  0.2695  0.0499
   38loPI   C1A  599   5.995   0.634   9.505 -0.1956 -0.3730  0.0609
   38loPI   C2A  600   6.143   0.700   9.134 -0.0273 -0.3448  0.0832
   38loPI   C3A  601   6.205   0.633   8.678 -0.0309  0.0209 -0.1073
   38loPI   C4A  602   6.223   0.724   8.217  0.1406 -0.0619  0.0087
   38loPI   C5A  603   6.175   1.025   7.926  0.3547  0.4417  0.2482
   38loPI   C6A  604   6.234   0.994   7.525 -0.4377 -0.2847 -0.2891
   38loPI   C1B  605   5.534   0.407   9.359 -0.0407  0.2352 -0.0669
   38loPI   C2B  606   5.792   0.327   9.006 -0.1574  0.0717  0.0172
   38loPI   C3B  607   5.803   0.359   8.482 -0.0110 -0.0792  0.0494
   38loPI   C4B  608   5.756   0.574   8.141 -0.1922 -0.1724 -0.0156
   39loPI    C1  609   4.009   7.359  10.440  0.1729 -0.0001 -0.0834
   39loPI    C2  610   4.294   7.583  10.610  0.1132  0.1325 -0.1574
   39loPI    C3  611   3.927   7.733  10.556  0.0904  0.0389 -0.2656
   39loPI   PO4  612   4.184   7.214  10.282  0.0960  0.1868 -0.0191
   39loPI   GL1  613   4.135   7.173   9.825 -0.0149  0.0799 -0.1261
   39loPI   GL2  614   4.405   7.498   9.731 -0.1261  0.2933  0.1211
   39loPI   C1A  615   4.236   7.188   9.357  0.1093  0.0946 -0.1804
   39loPI   C2A  616   4.339   7.269   8.879  0.0009  0.0014 -0.0256
   39loPI   C3A  617   4.423   7.347   8.439 -0.1061 -0.2141 -0.2707
   39loPI   C4A  618   4.610   7.148   8.135 -0.2490  0.2603  0.2501
   39loPI   C5A  619   4.937   7.255   7.845 -0.2287  0.3926 -0.1329
   39loPI   C6A  620   5.341   7.362   7.948 -0.0478 -0.0378  0.0666
   39loPI   C1B  621   4.637   7.554   9.305  0.3242 -0.2119  0.1710
   39loPI   C2B  622   4.751   7.618   8.837 -0.2010  0.2444  0.0245
   39loPI   C3B  623   4.736   7.720   8.419  0.0589  0.1700  0.2419
   39loPI   C4B  624   4.951   7.705   8.051  0.2485  0.0675  0.0502
   40loPI    C1  625   1.145   0.125  10.329  0.1803  0.0112 -0.0525
   40loPI    C2  626   0.953  -0.004  10.003 -0.0750  0.1457  0.0413
   40loPI    C3  627   0.761   0.016  10.353  0.1725  0.0836  0.1834
   40loPI   PO4  628   1.297   0.332  10.146 -0.1634  0.0319  0.1276
   40loPI   GL1  629   1.491   0.449   9.786  0.1117  0.1755 -0.2132
   40loPI   GL2  630   1.162   0.420   9.685 -0.0846  0.0540 -0.2847
   40loPI   C1A  631   1.543   0.623   9.370 -0.2433 -0.2504 -0.0397
   40loPI   C2A  632   1.796   0.788   9.010 -0.0869 -0.1414 -0.1355
   40loPI   C3A  633   1.813   0.921   8.502 -0.2937  0.3740  0.3051
   40loPI   C4A  634   1.754   0.839   8.166  0.0050  0.1047  0.3456
   40loPI   C5A  635   1.692   0.702   7.797 -0.0058 -0.0186  0.1782
   40loPI   C6A  636   1.773   0.513   7.529 -0.5329 -0.1021 -0.3933
   40loPI   C1B  637   1.143   0.295   9.334  0.0512  0.3251 -0.3390
   40loPI   C2B  638   1.376   0.460   8.944 -0.4440 -0.2369 -0.0393
   40loPI   C3B  639   1.473   0.563   8.517 -0.1253  0.2869 -0.0909
   40loPI   C4B  640   1.191   0.582   8.048  0.3210 -0.0737  0.1176
   41loPI    C1  641  16.146  17.356  10.396 -0.1006  0.2539  0.0193
   41loPI    C2  642  16.003  17.250  10.754 -0.1331  0.0352 -0.0568
   41loPI    C3  643  15.972  17.629  10.630 -0.2788  0.0752  0.0984
   41loPI   PO4  644  15.878  17.177  10.239 -0.0055  0.0128 -0.1727
   41loPI   GL1  645  15.828  17.211   9.801 -0.1285 -0.2773 -0.1341
   41loPI   GL2  646  15.728  17.518   9.676 -0.4041  0.1164 -0.1425
   41loPI   C1A  647  15.834  16.914   9.476 -0.0399 -0.1822 -0.1552
   41loPI   C2A  648  15.729  16.843   9.034 -0.0402 -0.1442 -0.0617
   41loPI   C3A  649  15.706  16.924   8.595  0.0327 -0.1365 -0.1626
   41loPI   C4A  650  15.479  17.001   8.163 -0.0200 -0.1166 -0.0536
   41loPI   C5A  651  15.300  17.053   7.767 -0.0028 -0.2503  0.1035
   41loPI   C6A  652  14.819  17.152   7.804 -0.0803  0.2845 -0.1301
   41loPI   C1B  653  15.610  17.407   9.297  0.0671 -0.3017  0.0949
   41loPI   C2B  654  15.534  17.379   8.811 -0.1478  0.0825 -0.0547
   41loPI   C3B  655  15.381  17.501   8.433  0.1640  0.0877  0.0859
   41loPI   C4B  656  15.546  17.461   8.004  0.2552 -0.2970  0.3524
   42loPI    C1  657   2.067   0.339  10.481  0.1374  0.0450  0.0880
   42loPI    C2  658   2.342   0.172  10.720 -0.0580 -0.0840  0.2261
   42loPI    C3  659   1.967   0.032  10.718 -0.1002  0.0257 -0.0341
   42loPI   PO4  660   2.092   0.459  10.295 -0.0777 -0.0506 -0.0075
   42loPI   GL1  661   2.056   0.423   9.847  0.0539 -0.3261 -0.3204
   42loPI   GL2  662   2.356   0.526   9.928 -0.0861 -0.1648 -0.1880
   42loPI   C1A  663   1.893   0.350   9.550  0.2004  0.1603 -0.0252
   42loPI   C2A  664   1.949   0.350   9.124  0.0061 -0.0483  0.3461
   42loPI   C3A  665   1.995   0.453   8.704  0.3203 -0.0307 -0.1680
   42loPI   C4A  666   1.985   0.355   8.270  0.0545  0.0755 -0.0059
   42loPI   C5A  667   1.922   0.199   7.870 -0.0092  0.2358 -0.2603
   42loPI   C6A  668   2.123   0.037   7.575  0.2306  0.1382 -0.5010
   42loPI   C1B  669   2.601   0.723   9.647  0.3939 -0.2191  0.0830
   42loPI   C2B  670   2.769   0.794   9.249 -0.0894 -0.1635  0.4402
   42loPI   C3B  671   2.842   0.687   8.838 -0.0400  0.3532 -0.1389
   42loPI   C4B  672   2.882   0.637   8.413  0.2507  0.1132  0.1005
   43loPI    C1  673   8.194  18.484  10.959 -0.1936  0.0029  0.1003
   43loPI    C2  674   8.409  18.434  11.293 -0.2555 -0.0359  0.1348
   43loPI    C3  675   8.390  18.794  11.118 -0.0776 -0.0558  0.0726
   43loPI   PO4  676   8.258  18.318  10.802 -0.0924  0.2111 -0.0547
   43loPI   GL1  677   8.257  18.098  10.492  0.0036 -0.0175 -0.0500
   43loPI   GL2  678   8.513  17.791  10.435  0.2990 -0.1739  0.2698
   43loPI   C1A  679   8.292  18.056  10.024 -0.3233 -0.3673 -0.0477
   43loPI   C2A  680   8.350  18.015   9.564  0.1545  0.0076 -0.0972
   43loPI   C3A  681   8.260  18.065   9.081  0.0395 -0.1695 -0.0679
   43loPI   C4A  682   8.245  18.075   8.698 -0.0895  0.1536  0.0570
   43loPI   C5A  683   8.537  17.922   8.324 -0.0672 -0.2604 -0.2399
   43loPI   C6A  684   8.635  17.868   7.839 -0.3933 -0.1881 -0.1293
   43loPI   C1B  685   8.810  17.517  10.287  0.0453  0.0486 -0.1756
   43loPI   C2B  686   8.996  17.354   9.932 -0.3971 -0.2547 -0.3373
   43loPI   C3B  687   8.943  17.432   9.462  0.1992 -0.1776 -0.0266
   43loPI   C4B  688   8.931  17.461   8.996 -0.0413 -0.2433 -0.4582
   44loPI    C1  689  15.732  14.481  10.286 -0.1379  0.0558 -0.1278
   44loPI    C2  690  15.877  14.777  10.059  0.2795  0.0772  0.1570
   44loPI    C3  691  16.104  14.614  10.345 -0.0419 -0.3351  0.1867
   44loPI   PO4  692  15.662  14.329  10.112  0.3158  0.3218  0.0139
   44loPI   GL1  693  15.568  14.519   9.744 -0.1110 -0.2487  0.1079
   44loPI   GL2  694  15.641  14.848   9.601 -0.1277 -0.0562 -0.1198
   44loPI   C1A  695  15.347  14.529   9.355 -0.0465  0.1770  0.2817
   44loPI   C2A  696  15.272  14.658   8.949 -0.1971 -0.0485 -0.2852
   44loPI   C3A  697  15.246  14.564   8.521  0.2954 -0.2971  0.2112
   44loPI   C4A  698  15.171  14.569   8.002  0.2442 -0.0240  0.0754
   44loPI   C5A  699  15.008  14.758   7.688  0.3982  0.3128  0.0543
   44loPI   C6A  700  14.687  15.023   7.653  0.2279 -0.3101  0.3709
   44loPI   C1B  701  15.689  14.961   9.135 -0.0745  0.1352  0.0906
   44loPI   C2B  702  15.781  15.149   8.803  0.0909 -0.0388  0.2074
   44loPI   C3B  703  15.548  15.017   8.571  0.2828  0.0667 -0.1072
   44loPI   C4B  704  15.453  14.998   8.137 -0.3466  0.0787  0.0928
   45loPI    C1  705   9.854   9.773  10.717  0.2697  0.3176  0.2228
   45loPI    C2  706   9.944   9.386  10.672  0.0834  0.3022 -0.0424
   45loPI    C3  707  10.034   9.574  11.014 -0.0779 -0.0462  0.1970
   45loPI   PO4  708   9.948   9.848  10.536  0.1862  0.1797  0.0005
   45loPI   GL1  709  10.064   9.995  10.150  0.4204  0.1526  0.1481
   45loPI   GL2  710   9.851  10.300  10.185  0.2492  0.1564  0.0627
   45loPI   C1A  711   9.880   9.994   9.764 -0.0975  0.0764 -0.2914
   45loPI   C2A  712   9.804  10.048   9.298  0.2311 -0.0805 -0.0542
   45loPI   C3A  713   9.828  10.010   8.787 -0.0387  0.1602 -0.2237
   45loPI   C4A  714   9.930   9.974   8.336 -0.1222 -0.2762  0.0925
   45loPI   C5A  715   9.825  10.145   7.949 -0.5218 -0.0347 -0.3607
   45loPI   C6A  716   9.722  10.309   7.599  0.0108 -0.2828  0.0044
   45loPI   C1B  717   9.711  10.485   9.728  0.1868  0.3299  0.1231
   45loPI   C2B  718   9.645  10.530   9.186  0.0352 -0.1349  0.0155
   45loPI   C3B  719   9.750  10.491   8.865  0.0870 -0.1621 -0.0418
   45loPI   C4B  720   9.798  10.467   8.394  0.2215 -0.1602 -0.2252
   46loPI    C1  721  12.214   6.970  11.150  0.1016  0.0432  0.1271
   46loPI    C2  722  12.470   7.253  11.270 -0.0582  0.1842  0.1388
   46loPI    C3  723  12.192   7.115  11.522  0.1359 -0.1174  0.1924
   46loPI   PO4  724  12.241   7.004  10.887  0.0171 -0.0589 -0.1669
   46loPI   GL1  725  12.150   7.080  10.440 -0.1242  0.1786  0.0944
   46loPI   GL2  726  11.967   6.851  10.437  0.1931 -0.1641  0.0402
   46loPI   C1A  727  12.121   7.077  10.004  0.1688 -0.0045 -0.0570
   46loPI   C2A  728  12.032   6.931   9.553 -0.4715  0.0949 -0.2096
   46loPI   C3A  729  11.955   7.049   9.101  0.0556 -0.0256  0.1966
   46loPI   C4A  730  11.947   7.221   8.752 -0.0251 -0.1150 -0.0252
   46loPI   C5A  731  12.034   6.981   8.338 -0.2260  0.2201  0.3012
   46loPI   C6A  732  12.117   7.281   7.990  0.1562  0.0336 -0.2513
   46loPI   C1B  733  11.727   6.762  10.041 -0.1903 -0.1415 -0.3919
   46loPI   C2B  734  11.628   6.630   9.580  0.2215  0.4882  0.0650
   46loPI   C3B  735  11.631   6.656   9.252 -0.1675  0.2078  0.2167
   46loPI   C4B  736  11.590   6.670   8.829  0.1212  0.0008  0.1487
   47loPI    C1  737   0.308  15.100  10.071 -0.0068 -0.0048  0.0785
   47loPI    C2  738   0.139  14.960  10.405 -0.1340  0.0796  0.0505
   47loPI    C3  739   0.468  15.187  10.427  0.0511 -0.1881  0.0981
   47loPI   PO4  740   0.141  15.064   9.926 -0.5429  0.1797  0.1961
   47loPI   GL1  741   0.087  14.934   9.512 -0.1955 -0.0552  0.1974
   47loPI   GL2  742   0.291  14.821   9.396 -0.2998 -0.5220  0.1312
   47loPI   C1A  743  -0.133  15.106   9.247 -0.0636 -0.1739  0.2681
   47loPI   C2A  744  -0.282  15.479   9.040  0.1346  0.0047  0.2324
   47loPI   C3A  745  -0.228  15.627   8.748 -0.2651 -0.2401  0.2574
   47loPI   C4A  746   0.103  15.828   8.571  0.0494 -0.1115 -0.2878
   47loPI   C5A  747   0.482  15.892   8.588 -0.0231  0.1106 -0.1469
   47loPI   C6A  748   0.721  16.113   8.191 -0.1105 -0.1667  0.1122
   47loPI   C1B  749   0.323  14.913   9.004  0.1189 -0.0462 -0.2405
   47loPI   C2B  750   0.072  15.104   8.687  0.0332  0.3097  0.0557
   47loPI   C3B  751   0.032  15.249   8.388  0.0840  0.0688 -0.0598
   47loPI   C4B  752  -0.027  15.575   8.072  0.0027  0.1707 -0.1851
   48loPI    C1  753   1.775  18.163  10.489 -0.2838  0.0067 -0.0732
   48loPI    C2  754   1.505  18.450  10.558 -0.2069  0.0281  0.1431
   48loPI    C3  755   1.543  18.145  10.815 -0.3234 -0.2051 -0.1110
   48loPI   PO4  756   1.725  18.093  10.109 -0.1641 -0.0431  0.0171
   48loPI   GL1  757   1.658  18.307   9.744  0.0161  0.0918  0.0908
   48loPI   GL2  758   1.381  18.467   9.732  0.2290 -0.2376 -0.2083
   48loPI   C1A  759   1.978  18.355   9.503 -0.1372  0.1570 -0.0462
   48loPI   C2A  760   2.130  18.365   9.111 -0.1384  0.0161  0.1514
   48loPI   C3A  761   2.104  18.416   8.716  0.1086  0.2831  0.1172
   48loPI   C4A  762   2.027  18.304   8.333 -0.0265  0.1263  0.2087
   48loPI   C5A  763   1.945  18.154   7.931  0.1934  0.2078 -0.0988
   48loPI   C6A  764   1.765  17.725   7.863  0.2113 -0.0988 -0.3793
   48loPI   C1B  765   1.467  18.444   9.281 -0.0457  0.1198  0.3299
   48loPI   C2B  766   1.620  18.369   8.905 -0.1974 -0.1284  0.1527
   48loPI   C3B  767   1.660  18.611   8.533  0.5431  0.0368 -0.1008
   48loPI   C4B  768   1.515  18.373   8.191 -0.2498  0.0171 -0.2316
   49loPI    C1  769   6.242  13.933  10.426 -0.1196  0.1452  0.2798
   49loPI    C2  770   6.411  14.094  10.751 -0.0202  0.0142  0.2937
   49loPI    C3  771   6.563  13.761  10.591  0.0297  0.1670  0.0175
   49loPI   PO4  772   6.176  14.077  10.260  0.1505  0.0087 -0.0127
   49loPI   GL1  773   6.157  14.222   9.897  0.0696  0.2342  0.1656
   49loPI   GL2  774   6.371  14.354   9.864 -0.1378  0.1358  0.0225
   49loPI   C1A  775   5.988  14.090   9.465  0.2931 -0.0421  0.2322
   49loPI   C2A  776   6.037  14.063   9.052  0.1258 -0.1043 -0.3231
   49loPI   C3A  777   6.203  14.014   8.725  0.0672 -0.2656  0.1606
   49loPI   C4A  778   6.123  14.148   8.293  0.0924  0.1048 -0.0722
   49loPI   C5A  779   6.193  14.139   7.794 -0.2062  0.2639  0.0564
   49loPI   C6A  780   6.216  14.181   7.392 -0.0927 -0.2157 -0.0203
   49loPI   C1B  781   6.353  14.485   9.400  0.2319  0.0005 -0.0075
   49loPI   C2B  782   6.377  14.438   9.042  0.4373 -0.2390 -0.0852
   49loPI   C3B  783   6.477  14.404   8.682  0.1544 -0.0781  0.2222
   49loPI   C4B  784   6.550  14.463   8.201  0.1990 -0.3222 -0.2630
   50loPI    C1  785  14.289   0.537  10.729  0.0051  0.1358 -0.2179
   50loPI    C2  786  14.031   0.629  11.021 -0.0826  0.1305 -0.2934
   50loPI    C3  787  14.341   0.388  11.097  0.1048  0.4227 -0.1133
   50loPI   PO4  788  14.224   0.410  10.479 -0.2395 -0.2052 -0.1389
   50loPI   GL1  789  14.407   0.552   9.976  0.0851  0.3023  0.0070
   50loPI   GL2  790  14.071   0.418  10.010  0.1793  0.0643  0.4191
   50loPI   C1A  791  14.126   0.809   9.696 -0.2381 -0.0648 -0.1887
   50loPI   C2A  792  14.163   0.693   9.350 -0.0454  0.1832  0.1496
   50loPI   C3A  793  14.083   0.773   8.914 -0.1438 -0.1122 -0.4101
   50loPI   C4A  794  14.038   0.717   8.589 -0.3080  0.1235 -0.0507
   50loPI   C5A  795  13.953   0.755   8.118 -0.1309 -0.0216  0.1310
   50loPI   C6A  796  13.516   0.740   7.894  0.0104 -0.0535  0.0568
   50loPI   C1B  797  13.825   0.280   9.739  0.1952  0.0070  0.3224
   50loPI   C2B  798  13.794   0.327   9.309  0.0932 -0.1849  0.0079
   50loPI   C3B  799  13.697   0.308   8.837 -0.0602  0.0357 -0.0436
   50loPI   C4B  800  13.622   0.444   8.417 -0.1141  0.2638  0.0070
   51loPI    C1  801  16.655  14.367  10.185 -0.0270  0.0488 -0.2724
   51loPI    C2  802  16.828  14.068  10.386 -0.2753  0.1195  0.0537
   51loPI    C3  803  17.007  14.425  10.367 -0.2655  0.1219  0.1786
   51loPI   PO4  804  16.638  14.247   9.932 -0.0855 -0.1273  0.1899
   51loPI   GL1  805  16.874  14.178   9.550  0.2696  0.1893 -0.1265
   51loPI   GL2  806  16.671  13.985   9.478 -0.1011  0.1921 -0.1709
   51loPI   C1A  807  16.938  14.330   9.175 -0.1185 -0.1936  0.0729
   51loPI   C2A  808  16.896  14.444   8.748 -0.0460  0.1743 -0.0700
   51loPI   C3A  809  17.109  14.681   8.513 -0.0834  0.0428  0.2733
   51loPI   C4A  810  17.161  14.978   8.186 -0.1928  0.2718 -0.0235
   51loPI   C5A  811  17.159  15.135   7.821 -0.1405 -0.0539 -0.2733
   51loPI   C6A  812  16.777  15.232   7.682 -0.1718  0.3288 -0.0367
   51loPI   C1B  813  16.486  13.921   9.051 -0.1855  0.0318  0.3645
   51loPI   C2B  814  16.422  13.792   8.715 -0.0233 -0.0397 -0.0922
   51loPI   C3B  815  16.274  13.906   8.444 -0.0439  0.3576 -0.1480
   51loPI   C4B  816  16.387  14.046   8.079  0.1305  0.2944  0.2470
   52loPI    C1  817   8.527  15.425  11.329  0.0284  0.0887 -0.1497
   52loPI    C2  818   8.677  15.058  11.380  0.2718  0.2068  0.0007
   52loPI    C3  819   8.339  15.163  11.565  0.0110 -0.0517 -0.3175
   52loPI   PO4  820   8.569  15.427  11.017 -0.2484 -0.1405 -0.1590
   52loPI   GL1  821   8.386  15.555  10.733  0.0402 -0.0211 -0.1564
   52loPI   GL2  822   8.317  15.303  10.521  0.0781  0.1384 -0.1238
   52loPI   C1A  823   8.470  15.679  10.264  0.2005  0.0510 -0.1876
   52loPI   C2A  824   8.399  15.646   9.763 -0.0350  0.1159 -0.1791
   52loPI   C3A  825   8.468  15.624   9.303  0.2088 -0.2243  0.0164
   52loPI   C4A  826   8.497  15.674   8.786 -0.2017 -0.0826 -0.2170
   52loPI   C5A  827   8.488  15.821   8.299 -0.1729  0.3521  0.1977
   52loPI   C6A  828   8.651  16.197   8.126 -0.1617 -0.1481 -0.1445
   52loPI   C1B  829   8.548  15.093  10.219 -0.0509 -0.0324  0.1511
   52loPI   C2B  830   8.608  15.169   9.815 -0.0300  0.1056  0.0341
   52loPI   C3B  831   8.553  15.165   9.343 -0.1003  0.0332  0.3179
   52loPI   C4B  832   8.544  15.153   8.864 -0.1162 -0.2961  0.2046
   53loPI    C1  833   5.513   1.727  10.558  0.3941 -0.0426  0.0291
   53loPI    C2  834   5.350   1.427  10.767  0.2734 -0.0221 -0.0350
   53loPI    C3  835   5.432   1.775  10.947  0.0170  0.0520 -0.0574
   53loPI   PO4  836   5.363   1.705  10.297 -0.1014  0.0473 -0.1311
   53loPI   GL1  837   5.474   1.509  10.007  0.0708  0.2852  0.0289
   53loPI   GL2  838   5.760   1.566   9.910 -0.3204  0.1333  0.1328
   53loPI   C1A  839   5.409   1.376   9.616  0.0509  0.0914 -0.2277
   53loPI   C2A  840   5.480   1.351   9.248 -0.2301  0.2376 -0.3377
   53loPI   C3A  841   5.618   1.354   8.841 -0.0201  0.1364 -0.3174
   53loPI   C4A  842   5.569   1.456   8.364  0.0995  0.2258 -0.1658
   53loPI   C5A  843   5.786   1.449   7.983 -0.0986  0.2312 -0.1550
   53loPI   C6A  844   6.186   1.534   7.805 -0.0923  0.3086  0.0676
   53loPI   C1B  845   5.789   1.745   9.508  0.1620 -0.1312 -0.0824
   53loPI   C2B  846   5.870   1.777   9.044  0.0622  0.0146 -0.1774
   53loPI   C3B  847   5.928   1.707   8.665  0.0608 -0.1170  0.1859
   53loPI   C4B  848   5.941   1.842   8.257  0.1480  0.0524 -0.1360
   54loPI    C1  849  18.459  11.911   9.859  0.2850  0.0091 -0.0665
   54loPI    C2  850  18.853  11.938   9.923  0.2448 -0.1356  0.2619
   54loPI    C3  851  18.625  11.719  10.168 -0.0392 -0.0659  0.0650
   54loPI   PO4  852  18.406  11.773   9.647 -0.1550  0.0538  0.1298
   54loPI   GL1  853  18.419  11.395   9.313  0.0948 -0.0927 -0.0471
   54loPI   GL2  854  18.274  11.712   9.169 -0.1814  0.2075  0.0878
   54loPI   C1A  855  18.581  11.232   8.868  0.1100  0.4443 -0.1311
   54loPI   C2A  856  18.661  11.254   8.502 -0.3403  0.0284  0.0240
   54loPI   C3A  857  18.621  11.211   8.135  0.1152  0.2029 -0.1065
   54loPI   C4A  858  18.623  11.450   7.767  0.0256  0.1266 -0.1312
   54loPI   C5A  859  18.330  11.884   7.670 -0.3525  0.3108  0.0602
   54loPI   C6A  860  18.426  12.295   7.561  0.0147 -0.1477  0.1081
   54loPI   C1B  861  18.084  11.447   8.854 -0.2204 -0.2355  0.0062
   54loPI   C2B  862  18.084  11.229   8.406 -0.2635 -0.2378  0.1776
   54loPI   C3B  863  18.110  11.009   7.961  0.0676  0.4375  0.0284
   54loPI   C4B  864  18.274  11.148   7.611  0.0569  0.2300  0.1253
   55loPI    C1  865  15.042   1.876  10.599 -0.2642 -0.0504  0.1016
   55loPI    C2  866  15.079   2.251  10.464 -0.0826 -0.0629  0.1143
   55loPI    C3  867  15.272   2.137  10.795 -0.2329 -0.1352  0.1783
   55loPI   PO4  868  14.937   1.769  10.511 -0.0362  0.0597 -0.0109
   55loPI   GL1  869  14.560   1.817  10.374  0.3136  0.2097 -0.1156
   55loPI   GL2  870  14.666   2.154  10.228  0.1220  0.0394  0.3683
   55loPI   C1A  871  14.538   1.704   9.962  0.0477  0.2419 -0.3161
   55loPI   C2A  872  14.367   1.732   9.619 -0.0793  0.0186 -0.2700
   55loPI   C3A  873  14.299   1.603   9.168  0.2341  0.0909 -0.0252
   55loPI   C4A  874  14.276   1.636   8.740 -0.1504 -0.3188  0.1219
   55loPI   C5A  875  14.338   1.538   8.336  0.2553  0.3740  0.0485
   55loPI   C6A  876  14.769   1.488   8.114  0.0270 -0.1045  0.0417
   55loPI   C1B  877  14.340   2.126   9.966 -0.2807 -0.2405 -0.2679
   55loPI   C2B  878  14.143   2.163   9.570  0.3539  0.1266 -0.3397
   55loPI   C3B  879  14.163   2.129   9.168  0.3202 -0.0381  0.1289
   55loPI   C4B  880  14.043   2.051   8.737  0.2082 -0.0877 -0.0192
   56loPI    C1  881  16.094  16.465   9.954  0.0790 -0.0761 -0.3648
   56loPI    C2  882  15.785  16.484  10.207  0.3017 -0.1116 -0.0847
   56loPI    C3  883  15.805  16.735   9.896 -0.0745 -0.1993 -0.1849
   56loPI   PO4  884  16.177  16.152   9.835 -0.0456 -0.1123 -0.2555
   56loPI   GL1  885  16.330  16.115   9.420 -0.0574  0.0698 -0.0512
   56loPI   GL2  886  16.606  16.238   9.537 -0.0277  0.1294 -0.0799
   56loPI   C1A  887  16.281  16.199   8.940  0.2305  0.1512  0.0128
   56loPI   C2A  888  16.301  16.256   8.465 -0.1382 -0.3219 -0.0637
   56loPI   C3A  889  16.082  16.443   8.026 -0.0215  0.0533 -0.3200
   56loPI   C4A  890  16.105  16.701   7.692 -0.0385 -0.1253 -0.1661
   56loPI   C5A  891  15.976  17.060   7.838 -0.0350  0.1254 -0.0846
   56loPI   C6A  892  16.089  17.454   7.688 -0.1642 -0.2120  0.1151
   56loPI   C1B  893  16.675  16.488   9.181 -0.2310 -0.2186 -0.1368
   56loPI   C2B  894  16.603  16.576   8.737 -0.3571  0.3259 -0.1139
   56loPI   C3B  895  16.701  16.645   8.314  0.3034 -0.3913  0.0203
   56loPI   C4B  896  16.599  16.760   7.886  0.1994 -0.0779 -0.0844
   57loPI    C1  897  16.002  18.198  10.562 -0.0636  0.1408 -0.0974
   57loPI    C2  898  16.279  18.477  10.635 -0.1044  0.1794 -0.0902
   57loPI    C3  899  15.937  18.476  10.842 -0.0388  0.0309  0.0185
   57loPI   PO4  900  15.977  18.198  10.287  0.0183 -0.0481 -0.1480
   57loPI   GL1  901  15.795  18.151   9.916  0.0859 -0.0779 -0.0240
   57loPI   GL2  902  15.891  18.439   9.882  0.1275 -0.0316 -0.2383
   57loPI   C1A  903  15.632  17.958   9.486  0.0558  0.2296 -0.1242
   57loPI   C2A  904  15.434  17.849   9.039 -0.1594 -0.1046 -0.0692
   57loPI   C3A  905  15.275  17.942   8.654  0.1155 -0.0570 -0.1225
   57loPI   C4A  906  15.208  17.879   8.170  0.1641  0.1323  0.0988
   57loPI   C5A  907  14.840  17.986   7.813 -0.0740 -0.2597  0.0821
   57loPI   C6A  908  14.784  17.800   7.417  0.1588  0.0862  0.0367
   57loPI   C1B  909  15.834  18.432   9.391  0.1752 -0.1388  0.2085
   57loPI   C2B  910  15.729  18.296   8.977 -0.2498 -0.0133  0.1224
   57loPI   C3B  911  15.659  18.247   8.559 -0.2186 -0.4727  0.2136
   57loPI   C4B  912  15.670  18.188   8.152  0.0024 -0.2161  0.2070
   58loPI    C1  913  15.774  11.014  10.160  0.0696 -0.0773 -0.0389
   58loPI    C2  914  15.743  10.782  10.485  0.1651 -0.2674 -0.1637
   58loPI    C3  915  16.103  10.902  10.358  0.1099  0.0457 -0.0353
   58loPI   PO4  916  15.629  11.003   9.966  0.2326 -0.0731  0.0301
   58loPI   GL1  917  15.702  10.744   9.644  0.1532  0.6094 -0.1861
   58loPI   GL2  918  15.390  10.648   9.628 -0.0269 -0.1500 -0.1600
   58loPI   C1A  919  15.840  10.584   9.280  0.1440  0.0564  0.2019
   58loPI   C2A  920  15.798  10.609   8.838 -0.1948 -0.0605 -0.0530
   58loPI   C3A  921  15.761  10.703   8.407 -0.0705 -0.0226 -0.2153
   58loPI   C4A  922  15.706  10.804   7.994  0.0161  0.1713  0.0390
   58loPI   C5A  923  15.385  10.948   7.673  0.1377 -0.1039  0.4345
   58loPI   C6A  924  14.946  10.965   7.841 -0.3194 -0.0432  0.3247
   58loPI   C1B  925  15.384  10.666   9.219  0.0283  0.0198  0.0071
   58loPI   C2B  926  15.242  10.697   8.859 -0.0756 -0.1317 -0.0510
   58loPI   C3B  927  15.283  10.861   8.493  0.0090 -0.0569 -0.0789
   58loPI   C4B  928  15.229  10.634   8.121 -0.0817 -0.1063  0.1248
   59loPI    C1  929  11.772   1.307  10.482  0.0300 -0.0628  0.0929
   59loPI    C2  930  11.717   0.954  10.663  0.1557 -0.0428  0.1714
   59loPI    C3  931  11.755   1.287  10.881  0.1803 -0.0006  0.1031
   59loPI   PO4  932  11.560   1.289  10.284 -0.0516  0.1933 -0.3047
   59loPI   GL1  933  11.457   1.287   9.880  0.0735 -0.0475  0.1050
   59loPI   GL2  934  11.249   1.105   9.841  0.0376  0.4483  0.0978
   59loPI   C1A  935  11.586   1.341   9.511 -0.1617  0.0099  0.2095
   59loPI   C2A  936  11.532   1.352   9.095 -0.1355 -0.2415  0.0651
   59loPI   C3A  937  11.558   1.468   8.709 -0.1818  0.2734 -0.0460
   59loPI   C4A  938  11.482   1.614   8.286  0.0185  0.1002  0.1812
   59loPI   C5A  939  11.116   1.898   8.124  0.3345 -0.1447 -0.3191
   59loPI   C6A  940  10.862   2.108   7.931 -0.0050 -0.1470 -0.0976
   59loPI   C1B  941  11.134   1.140   9.358 -0.1063 -0.4350  0.1099
   59loPI   C2B  942  11.138   1.119   8.960  0.0553 -0.1665  0.4160
   59loPI   C3B  943  11.164   1.160   8.612 -0.1894  0.1701 -0.0079
   59loPI   C4B  944  11.307   1.169   8.217 -0.0268  0.0156 -0.2433
   60loPI    C1  945  13.854  13.831  10.614 -0.0626  0.1904 -0.2525
   60loPI    C2  946  13.854  14.122  10.888  0.0821  0.1298 -0.1866
   60loPI    C3  947  13.701  13.763  10.977  0.1473  0.1039 -0.1784
   60loPI   PO4  948  13.807  13.876  10.358 -0.0391 -0.1976 -0.0426
   60loPI   GL1  949  13.775  13.669   9.942  0.2801  0.0512  0.0068
   60loPI   GL2  950  14.108  13.665   9.984 -0.1145  0.1936  0.1561
   60loPI   C1A  951  13.691  13.641   9.569  0.3298  0.1874  0.0885
   60loPI   C2A  952  13.682  13.637   9.186 -0.0232  0.1050 -0.2485
   60loPI   C3A  953  13.617  13.690   8.724  0.1921 -0.1712  0.0096
   60loPI   C4A  954  13.463  13.817   8.346 -0.1300 -0.0560 -0.2494
   60loPI   C5A  955  13.278  13.879   7.911 -0.1689  0.0083 -0.2067
   60loPI   C6A  956  13.204  14.179   7.713 -0.0167  0.0894 -0.0316
   60loPI   C1B  957  14.278  13.530   9.737 -0.0487  0.0088  0.2320
   60loPI   C2B  958  14.107  13.445   9.361 -0.3450 -0.1190 -0.3989
   60loPI   C3B  959  14.080  13.452   8.910 -0.0038 -0.1315 -0.1072
   60loPI   C4B  960  14.102  13.543   8.500  0.0077 -0.3042 -0.0511
   61loPI    C1  961  17.607  18.465  10.298 -0.0086 -0.3695  0.1073
   61loPI    C2  962  17.607  18.865  10.320  0.0031 -0.3480 -0.2263
   61loPI    C3  963  17.592  18.646  10.655  0.0602 -0.0698 -0.0380
   61loPI   PO4  964  17.406  18.474  10.006  0.0193  0.1347  0.0219
   61loPI   GL1  965  17.129  18.577   9.640  0.7879  0.0263 -0.1249
   61loPI   GL2  966  16.907  18.392   9.658 -0.0518 -0.1289  0.0456
   61loPI   C1A  967  17.289  18.348   9.240  0.3055 -0.1402  0.1570
   61loPI   C2A  968  17.134  18.437   8.833 -0.0281  0.0043  0.1411
   61loPI   C3A  969  17.054  18.417   8.423  0.2095  0.0870  0.0099
   61loPI   C4A  970  17.217  18.317   8.058  0.4409  0.2051 -0.1703
   61loPI   C5A  971  17.467  18.223   7.753 -0.1098  0.0016  0.2568
   61loPI   C6A  972  17.596  18.087   7.425  0.0217 -0.3044 -0.0913
   61loPI   C1B  973  16.739  18.543   9.229 -0.3147 -0.0425 -0.1897
   61loPI   C2B  974  16.639  18.623   8.910 -0.0965 -0.0272  0.0994
   61loPI   C3B  975  16.438  18.594   8.496  0.1390 -0.1589  0.1552
   61loPI   C4B  976  16.589  18.364   8.172  0.0287 -0.0959  0.4011
   62loPI    C1  977   5.017   9.045  10.319  0.1012 -0.0519  0.2103
   62loPI    C2  978   4.655   9.175  10.429  0.1591  0.1021  0.2196
   62loPI    C3  979   4.838   8.889  10.641  0.0404  0.0193  0.2111
   62loPI   PO4  980   4.995   9.029   9.947 -0.1065 -0.4363 -0.2669
   62loPI   GL1  981   4.960   8.862   9.535 -0.0575 -0.0814 -0.2994
   62loPI   GL2  982   4.870   8.973   9.355  0.0454 -0.1402 -0.1147
   62loPI   C1A  983   4.935   8.485   9.430 -0.2530 -0.2036  0.0820
   62loPI   C2A  984   5.007   8.480   8.969  0.0688 -0.0758 -0.1501
   62loPI   C3A  985   5.044   8.548   8.644  0.1727 -0.1811  0.3982
   62loPI   C4A  986   5.023   8.521   8.204 -0.3956  0.2400 -0.2095
   62loPI   C5A  987   5.287   8.241   7.917  0.0123  0.0547 -0.1288
   62loPI   C6A  988   5.094   7.872   7.583  0.2336  0.1057  0.1665
   62loPI   C1B  989   4.968   8.982   8.955  0.1673 -0.1952  0.0230
   62loPI   C2B  990   4.935   9.024   8.545 -0.1705  0.0545  0.0776
   62loPI   C3B  991   4.879   9.037   8.088 -0.1894 -0.1437 -0.1064
   62loPI   C4B  992   4.839   9.131   7.661 -0.0945  0.2474 -0.1609
   63loPI    C1  993   4.650   0.335  10.623  0.0532 -0.0110  0.0180
   63loPI    C2  994   4.385   0.530  10.850  0.0722 -0.0629  0.0850
   63loPI    C3  995   4.462   0.144  10.920 -0.1032 -0.1456 -0.1650
   63loPI   PO4  996   4.529   0.328  10.294 -0.1934 -0.0979 -0.1232
   63loPI   GL1  997   4.649  -0.053   9.899 -0.1114  0.0196  0.3645
   63loPI   GL2  998   4.615  -0.433  10.073  0.1743  0.0748 -0.1443
   63loPI   C1A  999   4.697   0.201   9.494 -0.1086 -0.5167 -0.0217
   63loPI   C2A 1000   4.803   0.138   9.085 -0.2324  0.0343  0.0515
   63loPI   C3A 1001   4.839   0.197   8.678  0.0201 -0.3920 -0.0206
   63loPI   C4A 1002   4.830   0.288   8.197 -0.0134  0.1995 -0.0811
   63loPI   C5A 1003   4.873   0.336   7.714  0.2508 -0.0934  0.0501
   63loPI   C6A 1004   5.192   0.589   7.419 -0.2726  0.0293  0.0538
   63loPI   C1B 1005   4.835  -0.458   9.718 -0.1556 -0.2231  0.1112
   63loPI   C2B 1006   4.930  -0.297   9.275  0.1677  0.3566  0.1525
   63loPI   C3B 1007   5.077  -0.283   8.780  0.1291 -0.0984 -0.0971
   63loPI   C4B 1008   5.013  -0.206   8.453 -0.1797  0.2034  0.0334
   64loPI    C1 1009   5.430   9.806  10.549  0.1953  0.0889  0.0567
   64loPI    C2 1010   5.383   9.413  10.487 -0.0282  0.1285 -0.0350
   64loPI    C3 1011   5.439   9.552  10.858 -0.2699  0.0393  0.0370
   64loPI   PO4 1012   5.564   9.835  10.266  0.1532  0.0377 -0.2802
   64loPI   GL1 1013   5.885   9.922   9.950 -0.0509 -0.0688 -0.1104
   64loPI   GL2 1014   5.621   9.789   9.781 -0.0664 -0.0646 -0.1581
   64loPI   C1A 1015   6.086   9.805   9.603 -0.0475  0.1042  0.0889
   64loPI   C2A 1016   6.181   9.649   9.168 -0.0376 -0.0661 -0.1244
   64loPI   C3A 1017   6.195   9.643   8.640 -0.3579 -0.2357  0.1372
   64loPI   C4A 1018   6.225   9.650   8.178 -0.0185  0.0835  0.2027
   64loPI   C5A 1019   6.212   9.461   7.791  0.2099 -0.1957 -0.1594
   64loPI   C6A 1020   5.814   9.246   7.578 -0.1055  0.2478 -0.2252
   64loPI   C1B 1021   5.679   9.782   9.331  0.0389  0.1304  0.0799
   64loPI   C2B 1022   5.762   9.760   8.869 -0.3303  0.0372 -0.1053
   64loPI   C3B 1023   5.644   9.809   8.440 -0.1678 -0.1275  0.0369
   64loPI   C4B 1024   5.680   9.682   8.007  0.0723  0.1162 -0.0227
   65loPI    C1 1025   7.227  12.565  10.600  0.1757 -0.1019 -0.0835
   65loPI    C2 1026   7.195  12.195  10.453  0.0445 -0.0853 -0.0984
   65loPI    C3 1027   7.142  12.260  10.844  0.2974 -0.1154 -0.0574
   65loPI   PO4 1028   7.408  12.662  10.504  0.0323 -0.0443  0.0486
   65loPI   GL1 1029   7.266  12.955  10.034  0.0938  0.0971  0.0115
   65loPI   GL2 1030   7.135  12.637  10.076  0.1769 -0.2991 -0.2569
   65loPI   C1A 1031   7.228  12.666   9.613 -0.0222  0.1752  0.2512
   65loPI   C2A 1032   7.342  12.675   9.206 -0.0840  0.0827  0.0136
   65loPI   C3A 1033   7.347  12.626   8.829  0.0296 -0.1401 -0.1313
   65loPI   C4A 1034   7.354  12.621   8.316 -0.1907  0.2074 -0.1993
   65loPI   C5A 1035   7.670  12.512   8.031 -0.2697 -0.0658  0.1498
   65loPI   C6A 1036   8.137  12.568   8.111  0.2883  0.1316  0.2721
   65loPI   C1B 1037   7.302  12.185   9.946 -0.1967 -0.0215 -0.1590
   65loPI   C2B 1038   7.354  12.036   9.446  0.0005  0.1011 -0.0637
   65loPI   C3B 1039   7.501  12.077   8.922 -0.0116 -0.1004  0.1535
   65loPI   C4B 1040   7.389  12.116   8.549 -0.0127  0.1816  0.2208
   66loPI    C1 1041   6.447   7.142  10.561  0.0416 -0.0832 -0.0304
   66loPI    C2 1042   6.151   6.940  10.737  0.1086 -0.3500 -0.2174
   66loPI    C3 1043   6.441   7.103  10.959 -0.2775  0.0846 -0.0159
   66loPI   PO4 1044   6.353   7.239  10.372 -0.1280  0.0028  0.1685
   66loPI   GL1 1045   6.565   7.195  10.070 -0.3053 -0.0585 -0.2221
   66loPI   GL2 1046   6.772   7.143  10.003  0.0707 -0.0116  0.2002
   66loPI   C1A 1047   6.395   7.354   9.708 -0.0902  0.0955  0.0238
   66loPI   C2A 1048   6.386   7.254   9.306 -0.2657 -0.1675  0.1933
   66loPI   C3A 1049   6.303   7.298   8.877  0.0617 -0.2960 -0.1737
   66loPI   C4A 1050   6.237   7.255   8.436  0.1232  0.0432  0.1269
   66loPI   C5A 1051   6.286   7.302   8.049 -0.0323 -0.2636  0.1251
   66loPI   C6A 1052   6.560   7.419   7.733  0.2956  0.0977  0.2771
   66loPI   C1B 1053   6.802   7.099   9.554  0.3738  0.0189  0.2219
   66loPI   C2B 1054   6.923   7.069   9.132 -0.2095 -0.0343  0.3573
   66loPI   C3B 1055   6.783   7.238   8.689 -0.1463  0.2232  0.0330
   66loPI   C4B 1056   6.772   7.118   8.243 -0.2600 -0.2897 -0.3384
   67loPI    C1 1057   0.095  12.521  10.084  0.1251  0.1081 -0.0398
   67loPI    C2 1058  -0.199  12.787  10.033 -0.0545 -0.0165  0.3095
   67loPI    C3 1059   0.082  12.850  10.311  0.1358  0.0032  0.1148
   67loPI   PO4 1060   0.192  12.426   9.848  0.2660  0.0203 -0.0212
   67loPI   GL1 1061   0.111  12.309   9.389  0.1294  0.1957  0.1151
   67loPI   GL2 1062   0.334  12.089   9.482  0.0025 -0.1587  0.1718
   67loPI   C1A 1063   0.039  12.262   9.029  0.1254 -0.1703 -0.0023
   67loPI   C2A 1064  -0.007  12.134   8.593 -0.2004 -0.0095  0.0944
   67loPI   C3A 1065  -0.117  11.722   8.473 -0.5048  0.0957 -0.0217
   67loPI   C4A 1066  -0.249  11.569   8.101  0.0364 -0.1522 -0.1370
   67loPI   C5A 1067  -0.650  11.395   7.964 -0.0635 -0.3459  0.2628
   67loPI   C6A 1068  -0.559  11.488   7.559 -0.1484 -0.1811 -0.2122
   67loPI   C1B 1069   0.273  11.820   9.117 -0.1593  0.0017 -0.0419
   67loPI   C2B 1070   0.371  11.826   8.794  0.3140 -0.0586  0.0580
   67loPI   C3B 1071   0.321  11.863   8.323 -0.1677 -0.4592 -0.2291
   67loPI   C4B 1072   0.192  11.983   7.965 -0.0132  0.0955 -0.0845
   68loPI    C1 1073   7.287   8.010  10.962  0.1113  0.0046 -0.0166
   68loPI    C2 1074   7.324   8.396  11.060  0.0390 -0.0069  0.0571
   68loPI    C3 1075   7.428   8.113  11.322  0.1289 -0.0375 -0.0115
   68loPI   PO4 1076   7.396   7.972  10.784 -0.4280 -0.1875 -0.1012
   68loPI   GL1 1077   7.466   7.898  10.362 -0.2238  0.3643  0.1512
   68loPI   GL2 1078   7.802   7.885  10.429  0.4064 -0.2800 -0.0455
   68loPI   C1A 1079   7.508   7.823   9.885  0.0930  0.2011  0.1685
   68loPI   C2A 1080   7.511   7.741   9.447  0.1951  0.0920  0.4157
   68loPI   C3A 1081   7.564   7.842   9.024  0.3977  0.2014  0.4270
   68loPI   C4A 1082   7.556   7.772   8.684 -0.1818  0.0472  0.3470
   68loPI   C5A 1083   7.677   7.709   8.381  0.0215 -0.5502  0.1910
   68loPI   C6A 1084   7.513   7.824   8.065  0.0409  0.1379 -0.0019
   68loPI   C1B 1085   8.052   7.798  10.079  0.2169  0.2388  0.0945
   68loPI   C2B 1086   8.139   7.628   9.661  0.2167  0.0566 -0.1293
   68loPI   C3B 1087   8.038   7.646   9.175 -0.0871  0.1077  0.1050
   68loPI   C4B 1088   8.082   7.639   8.842  0.0013  0.2874  0.1095
   69loPI    C1 1089   6.496  16.098  10.866  0.0574  0.0543 -0.0210
   69loPI    C2 1090   6.438  16.465  11.016  0.0821 -0.0129  0.1558
   69loPI    C3 1091   6.796  16.289  11.050  0.1775  0.0904 -0.2505
   69loPI   PO4 1092   6.382  16.097  10.668 -0.1825  0.1225  0.1923
   69loPI   GL1 1093   6.271  16.109  10.260  0.2056 -0.1933 -0.2095
   69loPI   GL2 1094   6.623  16.132  10.161 -0.0281 -0.0013 -0.3299
   69loPI   C1A 1095   6.303  16.243   9.733  0.0589  0.2572  0.0098
   69loPI   C2A 1096   6.457  16.292   9.319 -0.1668 -0.0713  0.3089
   69loPI   C3A 1097   6.440  16.270   8.905 -0.1409  0.0262  0.1165
   69loPI   C4A 1098   6.437  16.238   8.505 -0.1414  0.2410  0.5728
   69loPI   C5A 1099   6.567  15.965   8.101  0.0330  0.0488 -0.4739
   69loPI   C6A 1100   6.666  15.816   7.719 -0.0169 -0.0538  0.4387
   69loPI   C1B 1101   6.745  16.065   9.691 -0.0371  0.4406 -0.0355
   69loPI   C2B 1102   6.940  16.059   9.221  0.0486  0.1933 -0.1667
   69loPI   C3B 1103   6.940  16.145   8.868 -0.0113  0.2806 -0.0356
   69loPI   C4B 1104   6.949  16.091   8.389 -0.1172 -0.0118  0.2202
   70loPI    C1 1105  15.728   7.008  10.408 -0.0489  0.0239  0.1667
   70loPI    C2 1106  16.070   7.067  10.605 -0.0624 -0.0926  0.2259
   70loPI    C3 1107  16.076   6.912  10.237 -0.0390  0.0973  0.1453
   70loPI   PO4 1108  15.580   7.121  10.344 -0.0730 -0.2366  0.3294
   70loPI   GL1 1109  15.425   7.251  10.008 -0.0198  0.1059 -0.0202
   70loPI   GL2 1110  15.710   7.089   9.848  0.2082 -0.1691 -0.1610
   70loPI   C1A 1111  15.342   7.365   9.562  0.2544  0.2838 -0.0644
   70loPI   C2A 1112  15.168   7.441   9.113 -0.0451 -0.3309 -0.1504
   70loPI   C3A 1113  15.127   7.554   8.695 -0.0081  0.1589  0.0117
   70loPI   C4A 1114  15.000   7.369   8.306 -0.0222 -0.0061 -0.2292
   70loPI   C5A 1115  14.709   7.321   7.968  0.1578 -0.0215  0.1284
   70loPI   C6A 1116  14.383   7.490   7.687  0.2509 -0.1715 -0.1380
   70loPI   C1B 1117  15.683   7.084   9.387  0.2033 -0.0057  0.0204
   70loPI   C2B 1118  15.414   7.012   8.914  0.1249 -0.0614 -0.0616
   70loPI   C3B 1119  15.107   6.960   8.551 -0.1796 -0.3475 -0.2979
   70loPI   C4B 1120  14.893   6.921   8.138 -0.1607  0.2641 -0.1568
   71loPI    C1 1121   0.066   3.171   9.991  0.0949  0.1002  0.1525
   71loPI    C2 1122   0.262   2.831  10.065  0.1005  0.0858  0.0716
   71loPI    C3 1123  -0.073   2.916  10.266 -0.2558 -0.2701 -0.3491
   71loPI   PO4 1124  -0.017   3.237   9.743 -0.0417 -0.1878 -0.0198
   71loPI   GL1 1125   0.289   2.977   9.467 -0.3243  0.1349 -0.1558
   71loPI   GL2 1126   0.372   3.208   9.305  0.0083  0.1022 -0.2436
   71loPI   C1A 1127   0.324   2.591   9.146  0.0558 -0.0242 -0.1993
   71loPI   C2A 1128   0.371   2.575   8.708  0.2356 -0.0335 -0.2009
   71loPI   C3A 1129   0.297   2.590   8.295  0.1464 -0.0163  0.3361
   71loPI   C4A 1130   0.123   2.656   7.881  0.1397 -0.0992 -0.2692
   71loPI   C5A 1131   0.179   2.889   7.438  0.0189 -0.2641  0.0363
   71loPI   C6A 1132   0.094   2.975   7.026 -0.2676 -0.0389  0.2121
   71loPI   C1B 1133   0.223   3.073   8.915  0.0917 -0.2427  0.0552
   71loPI   C2B 1134   0.272   3.185   8.469  0.3856  0.4381  0.0897
   71loPI   C3B 1135   0.354   3.154   8.036  0.0275  0.1145  0.1484
   71loPI   C4B 1136   0.428   3.269   7.606 -0.0788  0.0134 -0.0994
   72loPI    C1 1137   2.425  14.744  10.037 -0.0421 -0.3233  0.0472
   72loPI    C2 1138   2.770  14.545  10.078  0.1065 -0.0850 -0.0274
   72loPI    C3 1139   2.427  14.378  10.199  0.2197 -0.4092 -0.1425
   72loPI   PO4 1140   2.456  14.852   9.787  0.1291  0.1247 -0.0822
   72loPI   GL1 1141   2.529  14.793   9.363 -0.2668 -0.0847  0.2344
   72loPI   GL2 1142   2.738  15.070   9.395  0.2019  0.1178 -0.0287
   72loPI   C1A 1143   2.480  14.848   8.843  0.1456  0.1222 -0.1479
   72loPI   C2A 1144   2.468  15.149   8.555 -0.1618  0.3926 -0.0473
   72loPI   C3A 1145   2.597  15.527   8.392  0.1779  0.0323  0.0510
   72loPI   C4A 1146   2.387  15.769   8.072 -0.0764 -0.0439  0.0479
   72loPI   C5A 1147   2.228  15.742   7.733 -0.0300  0.0321 -0.0122
   72loPI   C6A 1148   2.097  16.076   7.528  0.0730 -0.0087  0.2366
   72loPI   C1B 1149   2.511  15.317   9.075  0.4101  0.3780  0.5625
   72loPI   C2B 1150   2.729  15.524   8.859  0.1615 -0.0504 -0.2946
   72loPI   C3B 1151   3.086  15.354   8.582  0.1179 -0.2287  0.1109
   72loPI   C4B 1152   3.005  15.241   8.171  0.2515 -0.0107  0.0436
   73loPI    C1 1153   6.076   8.240  10.527 -0.0180  0.0127  0.0216
   73loPI    C2 1154   6.138   7.904  10.734 -0.0826 -0.1002 -0.1406
   73loPI    C3 1155   5.914   8.196  10.890 -0.3017 -0.2688 -0.1345
   73loPI   PO4 1156   6.067   8.103  10.299  0.4491 -0.0958 -0.1754
   73loPI   GL1 1157   6.080   7.883   9.911 -0.2749  0.1003 -0.2479
   73loPI   GL2 1158   5.821   7.705   9.859 -0.0904  0.3650 -0.1220
   73loPI   C1A 1159   6.214   7.724   9.452 -0.3933  0.2913  0.0913
   73loPI   C2A 1160   6.138   7.748   9.061  0.0488 -0.2375 -0.2680
   73loPI   C3A 1161   6.116   7.725   8.637 -0.1949 -0.3012 -0.2284
   73loPI   C4A 1162   6.081   7.850   8.169  0.1652 -0.1947  0.2739
   73loPI   C5A 1163   6.147   7.962   7.727 -0.0569  0.2206  0.0450
   73loPI   C6A 1164   6.181   7.858   7.302 -0.0100 -0.1655 -0.0277
   73loPI   C1B 1165   5.722   7.786   9.511  0.2234  0.3208  0.2294
   73loPI   C2B 1166   5.623   7.813   9.023  0.1708  0.0579 -0.0833
   73loPI   C3B 1167   5.613   7.893   8.512  0.2320  0.3768 -0.2307
   73loPI   C4B 1168   5.560   7.840   8.086 -0.1467  0.1891 -0.0132
   74loPI    C1 1169  13.790   2.158  10.912  0.1396  0.1666  0.0159
   74loPI    C2 1170  13.538   1.910  11.099  0.1922  0.0568 -0.0572
   74loPI    C3 1171  13.695   2.222  11.295  0.1299  0.0295  0.0368
   74loPI   PO4 1172  13.655   2.221  10.676  0.2517 -0.0227  0.1549
   74loPI   GL1 1173  13.486   2.082  10.279  0.4187 -0.1918 -0.1724
   74loPI   GL2 1174  13.408   1.764  10.129  0.0149  0.3082  0.0611
   74loPI   C1A 1175  13.275   2.380  10.007 -0.0196 -0.3481  0.0467
   74loPI   C2A 1176  13.206   2.390   9.551  0.2601  0.2789 -0.2538
   74loPI   C3A 1177  13.156   2.345   9.061  0.0532 -0.0826  0.0805
   74loPI   C4A 1178  13.094   2.429   8.625 -0.2550  0.1585 -0.2178
   74loPI   C5A 1179  13.519   2.697   8.398  0.2200 -0.0414  0.1972
   74loPI   C6A 1180  13.760   2.597   8.016 -0.0423  0.1325  0.0736
   74loPI   C1B 1181  13.468   1.774   9.702 -0.0805 -0.1602  0.0401
   74loPI   C2B 1182  13.405   1.848   9.266 -0.2430 -0.2953  0.0659
   74loPI   C3B 1183  13.248   1.916   8.820  0.1054  0.4671  0.2891
   74loPI   C4B 1184  13.163   1.877   8.331 -0.1074 -0.3535  0.3229
   75loPI    C1 1185   4.869   5.225  10.274  0.0847 -0.0222  0.1508
   75loPI    C2 1186   5.119   5.385  10.542 -0.1373  0.2072  0.2249
   75loPI    C3 1187   4.848   5.115  10.658  0.0213  0.0170  0.1586
   75loPI   PO4 1188   4.871   5.465  10.111  0.2221  0.2203  0.2163
   75loPI   GL1 1189   4.672   5.568   9.794  0.2594 -0.3115  0.0954
   75loPI   GL2 1190   4.921   5.911   9.812  0.0497 -0.1978 -0.2728
   75loPI   C1A 1191   4.626   5.598   9.406 -0.0435  0.2795  0.2102
   75loPI   C2A 1192   4.577   5.608   8.996  0.0133 -0.0415 -0.2122
   75loPI   C3A 1193   4.223   5.742   8.653 -0.0758  0.2034  0.3216
   75loPI   C4A 1194   4.188   5.598   8.176  0.0748  0.2950  0.0484
   75loPI   C5A 1195   4.179   5.163   7.987  0.4444 -0.2791  0.0480
   75loPI   C6A 1196   4.325   4.874   7.802 -0.0408  0.0694 -0.2045
   75loPI   C1B 1197   5.159   6.130   9.547 -0.0615  0.0911 -0.1720
   75loPI   C2B 1198   5.243   6.125   9.084 -0.4569 -0.0303  0.0980
   75loPI   C3B 1199   5.256   6.237   8.649 -0.1025 -0.1232 -0.0092
   75loPI   C4B 1200   5.349   6.181   8.195 -0.0888  0.0924  0.1876
   76loPI    C1 1201   7.183   9.044  10.539  0.0230  0.0037 -0.0821
   76loPI    C2 1202   7.435   8.883  10.806  0.1547  0.1297 -0.1290
   76loPI    C3 1203   7.223   9.209  10.902  0.0798  0.0792 -0.1223
   76loPI   PO4 1204   7.071   8.720  10.425  0.0493 -0.1962  0.0322
   76loPI   GL1 1205   7.250   8.616  10.094  0.1954 -0.0663 -0.0399
   76loPI   GL2 1206   7.177   8.988   9.958  0.1195 -0.0672  0.0144
   76loPI   C1A 1207   7.440   8.320   9.748  0.0639 -0.0564  0.0513
   76loPI   C2A 1208   7.500   8.233   9.362 -0.0396 -0.0534  0.2190
   76loPI   C3A 1209   7.354   8.281   8.975  0.2923  0.1653 -0.1740
   76loPI   C4A 1210   7.385   8.298   8.629 -0.1989 -0.0574  0.0253
   76loPI   C5A 1211   7.404   8.298   8.209 -0.2412  0.0809  0.1735
   76loPI   C6A 1212   7.592   8.333   7.809 -0.1549  0.0957  0.1106
   76loPI   C1B 1213   7.335   8.797   9.611 -0.1081  0.2634  0.0151
   76loPI   C2B 1214   7.405   8.721   9.148 -0.2596 -0.2638  0.0826
   76loPI   C3B 1215   7.253   8.765   8.776 -0.3281  0.1171  0.0451
   76loPI   C4B 1216   7.251   8.715   8.369 -0.1810 -0.1014  0.1418
   77loPI    C1 1217   3.456   0.939  10.606  0.1876 -0.0558  0.1806
   77loPI    C2 1218   3.551   0.559  10.529  0.0756 -0.0351 -0.0678
   77loPI    C3 1219   3.194   0.647  10.685  0.0499 -0.0214 -0.1337
   77loPI   PO4 1220   3.557   1.126  10.376  0.0811  0.3019  0.1420
   77loPI   GL1 1221   3.640   0.942   9.996 -0.2422  0.3090 -0.1764
   77loPI   GL2 1222   3.964   0.933   9.811  0.2349  0.1798 -0.1276
   77loPI   C1A 1223   3.535   1.069   9.562  0.0785 -0.1996  0.1339
   77loPI   C2A 1224   3.533   0.992   9.132 -0.0392  0.1525 -0.0154
   77loPI   C3A 1225   3.651   0.950   8.636 -0.0010  0.4128  0.0843
   77loPI   C4A 1226   3.627   0.909   8.234 -0.2132 -0.0692 -0.2164
   77loPI   C5A 1227   3.655   1.161   7.880 -0.1682  0.0418 -0.0013
   77loPI   C6A 1228   3.520   1.300   7.574 -0.1569  0.0386 -0.1325
   77loPI   C1B 1229   4.169   0.672   9.590 -0.2551 -0.2402  0.1269
   77loPI   C2B 1230   4.154   0.808   9.212 -0.0150  0.0334 -0.1492
   77loPI   C3B 1231   4.214   0.746   8.768 -0.0366  0.3889  0.1265
   77loPI   C4B 1232   4.203   0.929   8.404  0.0743  0.2514  0.3178
   78loPI    C1 1233  13.757  16.750  10.590 -0.3300  0.1165  0.0814
   78loPI    C2 1234  13.902  17.122  10.618 -0.2245  0.0623  0.2721
   78loPI    C3 1235  13.774  16.932  10.946 -0.1239 -0.1305  0.2011
   78loPI   PO4 1236  13.538  16.752  10.365  0.1565 -0.1786 -0.0854
   78loPI   GL1 1237  13.538  16.467  10.073 -0.0154 -0.0328 -0.2957
   78loPI   GL2 1238  13.230  16.448  10.073  0.2620 -0.0348  0.2996
   78loPI   C1A 1239  13.563  16.686   9.661 -0.1606  0.1614  0.0594
   78loPI   C2A 1240  13.435  16.640   9.348  0.1192  0.0171 -0.1522
   78loPI   C3A 1241  13.326  16.562   8.867  0.3366  0.2112  0.2261
   78loPI   C4A 1242  13.255  16.532   8.482 -0.0649  0.1680  0.0783
   78loPI   C5A 1243  13.140  16.309   8.109  0.0544  0.1578 -0.0287
   78loPI   C6A 1244  12.719  16.030   7.933  0.0879  0.1167 -0.0901
   78loPI   C1B 1245  12.971  16.152   9.742 -0.4051  0.0224 -0.1452
   78loPI   C2B 1246  12.995  16.164   9.392 -0.3039  0.3614  0.2748
   78loPI   C3B 1247  12.948  16.200   8.880 -0.2690  0.0252  0.1108
   78loPI   C4B 1248  12.800  16.162   8.519 -0.0530  0.1427 -0.3984
   79loPI    C1 1249  11.752  17.417  11.139 -0.1551 -0.0925  0.0233
   79loPI    C2 1250  11.641  17.164  11.428  0.3187 -0.1867  0.1316
   79loPI    C3 1251  11.513  17.543  11.433 -0.4058 -0.4140 -0.0372
   79loPI   PO4 1252  11.675  17.271  10.875  0.1091  0.2619 -0.0904
   79loPI   GL1 1253  11.650  17.104  10.444  0.1076 -0.0630 -0.0602
   79loPI   GL2 1254  11.353  17.134  10.261  0.1534 -0.0214  0.0560
   79loPI   C1A 1255  11.644  16.788  10.160  0.0168  0.0594 -0.1041
   79loPI   C2A 1256  11.635  16.613   9.721  0.0201 -0.0408 -0.0006
   79loPI   C3A 1257  11.549  16.694   9.292 -0.0634  0.0193  0.4109
   79loPI   C4A 1258  11.424  16.623   8.828 -0.0106 -0.0215 -0.1013
   79loPI   C5A 1259  11.472  16.265   8.565  0.2374  0.1457  0.0633
   79loPI   C6A 1260  11.498  16.179   8.145  0.0344 -0.0199  0.1372
   79loPI   C1B 1261  11.478  17.151   9.819 -0.1261  0.0627  0.0686
   79loPI   C2B 1262  11.452  17.225   9.314 -0.1589 -0.1186  0.1261
   79loPI   C3B 1263  11.403  17.150   8.923 -0.0494 -0.3656 -0.4730
   79loPI   C4B 1264  11.271  17.259   8.506  0.1274 -0.2729 -0.3019
   80loPI    C1 1265   6.409   5.493  10.886  0.1066 -0.1666  0.2780
   80loPI    C2 1266   6.251   5.814  11.065 -0.2759 -0.0983 -0.1626
   80loPI    C3 1267   6.068   5.460  11.094 -0.2386 -0.1261 -0.2619
   80loPI   PO4 1268   6.445   5.444  10.626  0.5381  0.0741  0.0440
   80loPI   GL1 1269   6.649   5.275  10.179  0.1482  0.0575  0.1457
   80loPI   GL2 1270   6.819   5.620  10.198 -0.0426 -0.1106  0.2764
   80loPI   C1A 1271   6.790   5.234   9.752  0.1387 -0.1222  0.1168
   80loPI   C2A 1272   6.892   5.171   9.336  0.1656 -0.2125  0.0839
   80loPI   C3A 1273   6.974   5.147   8.828  0.0064  0.0475 -0.0424
   80loPI   C4A 1274   7.010   5.061   8.317 -0.3576  0.1865 -0.0249
   80loPI   C5A 1275   7.259   4.788   8.071  0.1916  0.2314 -0.0469
   80loPI   C6A 1276   7.711   4.916   7.911 -0.4673  0.0209  0.3063
   80loPI   C1B 1277   6.610   5.687   9.816 -0.0610 -0.1477 -0.0991
   80loPI   C2B 1278   6.694   5.695   9.392  0.1346  0.2697  0.0771
   80loPI   C3B 1279   6.745   5.801   8.946  0.0712  0.2164  0.1522
   80loPI   C4B 1280   6.651   5.855   8.606  0.1728  0.1305 -0.0288
   81loPI    C1 1281  15.653   1.393  10.365 -0.0566  0.1635  0.0671
   81loPI    C2 1282  15.451   1.056  10.442 -0.0819  0.1834  0.0878
   81loPI    C3 1283  15.273   1.412  10.488 -0.0852  0.1969 -0.0254
   81loPI   PO4 1284  15.899   1.324  10.226 -0.1575 -0.1580 -0.2038
   81loPI   GL1 1285  16.003   1.485   9.880  0.1277  0.3524  0.2593
   81loPI   GL2 1286  15.934   1.727   9.744 -0.2238  0.2223  0.1090
   81loPI   C1A 1287  16.016   1.141   9.498 -0.1763 -0.3077  0.0614
   81loPI   C2A 1288  15.896   1.178   9.132  0.0943 -0.1558  0.1399
   81loPI   C3A 1289  15.755   1.248   8.719 -0.0452  0.1392  0.0308
   81loPI   C4A 1290  15.766   1.145   8.206 -0.0543  0.0584 -0.0579
   81loPI   C5A 1291  15.683   0.926   7.829 -0.0277 -0.1929 -0.1981
   81loPI   C6A 1292  15.741   0.614   7.538  0.1314  0.0661 -0.0018
   81loPI   C1B 1293  15.765   1.680   9.309  0.0140  0.0938  0.1123
   81loPI   C2B 1294  15.589   1.767   9.031  0.0906  0.4338  0.0511
   81loPI   C3B 1295  15.633   1.711   8.629  0.3234 -0.2450  0.0892
   81loPI   C4B 1296  15.729   1.652   8.270  0.1756 -0.4471  0.1163
   82loPI    C1 1297   1.055  14.183   9.839  0.0981 -0.2699 -0.1468
   82loPI    C2 1298   0.906  14.475  10.069  0.1159 -0.1771 -0.2520
   82loPI    C3 1299   1.033  14.134  10.235  0.0256 -0.1548 -0.1359
   82loPI   PO4 1300   1.190  14.343   9.673  0.0672  0.0623  0.0733
   82loPI   GL1 1301   1.394  14.549   9.333 -0.0935  0.0772 -0.2699
   82loPI   GL2 1302   1.651  14.440   9.071 -0.0079 -0.2066 -0.0033
   82loPI   C1A 1303   1.134  14.560   9.081 -0.0053  0.0290  0.1035
   82loPI   C2A 1304   1.187  14.477   8.676 -0.0116 -0.1400 -0.0589
   82loPI   C3A 1305   1.170  14.703   8.380 -0.2139 -0.0121  0.3061
   82loPI   C4A 1306   1.334  14.739   7.924  0.1915  0.2189 -0.3228
   82loPI   C5A 1307   1.021  14.694   7.716  0.0040  0.0265  0.0196
   82loPI   C6A 1308   0.930  14.269   7.538 -0.1102 -0.1761 -0.0690
   82loPI   C1B 1309   1.759  14.370   8.650  0.2876  0.0388 -0.0367
   82loPI   C2B 1310   1.698  14.622   8.237  0.3372  0.0679 -0.1254
   82loPI   C3B 1311   1.815  14.874   7.903  0.2691  0.1088 -0.1658
   82loPI   C4B 1312   1.960  14.795   7.446  0.2071 -0.0887  0.2796
   83loPI    C1 1313   5.880   3.309  10.389  0.0988  0.1387 -0.0308
   83loPI    C2 1314   5.788   3.408  10.765 -0.1511 -0.0519 -0.0387
   83loPI    C3 1315   5.498   3.313  10.507  0.0348 -0.1393 -0.2182
   83loPI   PO4 1316   6.083   3.590  10.303  0.1084 -0.0137  0.0665
   83loPI   GL1 1317   6.201   3.966  10.037  0.2411 -0.0169 -0.0244
   83loPI   GL2 1318   5.809   4.077   9.930  0.0268  0.2403  0.2797
   83loPI   C1A 1319   6.317   4.002   9.630 -0.0538  0.1613  0.2420
   83loPI   C2A 1320   6.230   4.050   9.072  0.0586  0.0726 -0.1387
   83loPI   C3A 1321   6.252   3.988   8.624  0.0503  0.0934 -0.0418
   83loPI   C4A 1322   6.014   3.914   8.232  0.0976  0.0175 -0.0340
   83loPI   C5A 1323   5.965   4.034   7.762  0.1690  0.1093 -0.4213
   83loPI   C6A 1324   6.108   3.796   7.431 -0.4391  0.0977  0.1095
   83loPI   C1B 1325   5.888   4.102   9.410  0.0349 -0.0196  0.2719
   83loPI   C2B 1326   5.785   4.220   9.013  0.2743  0.3304  0.1119
   83loPI   C3B 1327   5.654   4.282   8.615  0.1897 -0.0723 -0.0822
   83loPI   C4B 1328   5.522   4.355   8.210  0.0204  0.1681 -0.0342
   84loPI    C1 1329   3.916   3.306  10.453  0.1301 -0.0457 -0.0294
   84loPI    C2 1330   3.997   3.679  10.571 -0.0440 -0.0776  0.1984
   84loPI    C3 1331   4.294   3.416  10.520  0.0773  0.0840  0.0604
   84loPI   PO4 1332   3.823   3.327  10.249  0.2239  0.1440  0.0996
   84loPI   GL1 1333   3.604   3.352   9.845  0.0689  0.0769  0.2051
   84loPI   GL2 1334   3.799   3.113   9.711 -0.0967  0.2509 -0.0494
   84loPI   C1A 1335   3.672   3.576   9.456  0.0771  0.1197 -0.1328
   84loPI   C2A 1336   3.677   3.501   9.005 -0.1888  0.0677  0.0978
   84loPI   C3A 1337   3.498   3.374   8.566  0.1329 -0.0727  0.1824
   84loPI   C4A 1338   3.572   3.275   8.245  0.0602 -0.1013 -0.1086
   84loPI   C5A 1339   3.690   3.153   7.854  0.0609  0.5271 -0.2919
   84loPI   C6A 1340   3.824   2.873   7.594 -0.5569 -0.0540  0.1504
   84loPI   C1B 1341   3.959   3.161   9.292 -0.0162  0.1095 -0.0096
   84loPI   C2B 1342   4.068   3.204   8.880 -0.1594  0.0247 -0.4118
   84loPI   C3B 1343   4.001   3.449   8.626 -0.1801 -0.2562 -0.0231
   84loPI   C4B 1344   3.815   3.783   8.342 -0.1148  0.0025 -0.1492
   85loPI    C1 1345   3.494   7.887  10.181  0.1077  0.2825 -0.3366
   85loPI    C2 1346   3.131   8.044  10.238  0.1628  0.2133  0.2776
   85loPI    C3 1347   3.173   7.649  10.192  0.1371  0.2513 -0.1118
   85loPI   PO4 1348   3.693   7.947   9.950 -0.0416  0.0555 -0.0952
   85loPI   GL1 1349   3.650   7.794   9.613 -0.0236 -0.3207  0.0027
   85loPI   GL2 1350   3.962   7.707   9.584 -0.0800 -0.1122 -0.0318
   85loPI   C1A 1351   3.596   7.902   9.202 -0.0855  0.2327 -0.1159
   85loPI   C2A 1352   3.814   7.957   8.805  0.3903  0.0478 -0.1352
   85loPI   C3A 1353   3.779   7.954   8.343  0.1683 -0.0421 -0.1763
   85loPI   C4A 1354   3.923   7.942   7.942  0.0474 -0.1539 -0.0525
   85loPI   C5A 1355   3.723   8.089   7.610 -0.2791  0.0323  0.3214
   85loPI   C6A 1356   3.410   8.184   7.204 -0.1634 -0.0945 -0.0447
   85loPI   C1B 1357   4.163   7.846   9.300 -0.1415 -0.2056  0.0387
   85loPI   C2B 1358   4.312   7.761   8.898 -0.1270 -0.0510  0.0850
   85loPI   C3B 1359   4.261   7.853   8.398  0.0309  0.3591 -0.0174
   85loPI   C4B 1360   4.430   7.782   7.965  0.0478 -0.2104 -0.1861
   86loPI    C1 1361   2.714   0.653  10.473 -0.1145  0.0110 -0.0365
   86loPI    C2 1362   2.377   0.674  10.687 -0.0519 -0.1215  0.0769
   86loPI    C3 1363   2.697   0.485  10.836  0.1898  0.3121  0.1232
   86loPI   PO4 1364   2.633   0.797  10.268  0.2199  0.3290 -0.0109
   86loPI   GL1 1365   2.826   0.916   9.972  0.0943 -0.1776 -0.0944
   86loPI   GL2 1366   2.461   1.139   9.865  0.0263 -0.0885 -0.2943
   86loPI   C1A 1367   3.117   0.687   9.605 -0.0627  0.0537 -0.0953
   86loPI   C2A 1368   3.236   0.622   9.197  0.1927 -0.1366 -0.4686
   86loPI   C3A 1369   3.365   0.570   8.786 -0.1133  0.0112 -0.1214
   86loPI   C4A 1370   3.365   0.506   8.360  0.0395 -0.0295 -0.1053
   86loPI   C5A 1371   3.428   0.573   7.907 -0.0314 -0.0567 -0.3207
   86loPI   C6A 1372   3.381   0.797   7.475 -0.1629  0.0147  0.2747
   86loPI   C1B 1373   2.532   1.204   9.489 -0.1807  0.2866 -0.0502
   86loPI   C2B 1374   2.593   1.200   9.048  0.0039  0.0274  0.4001
   86loPI   C3B 1375   2.678   1.220   8.607 -0.2594  0.1344 -0.1753
   86loPI   C4B 1376   2.597   1.173   8.272  0.0478  0.1384 -0.1839
   87loPI    C1 1377   4.862   2.565  10.509  0.1451  0.0566  0.0706
   87loPI    C2 1378   4.759   2.236  10.711  0.1397  0.0011 -0.0219
   87loPI    C3 1379   4.702   2.596  10.874 -0.0590 -0.0345 -0.0093
   87loPI   PO4 1380   4.858   2.418  10.250  0.0279 -0.3108  0.0082
   87loPI   GL1 1381   5.029   2.542   9.736 -0.0220 -0.1866 -0.1621
   87loPI   GL2 1382   4.778   2.303   9.743 -0.1085 -0.2272  0.0342
   87loPI   C1A 1383   5.178   2.419   9.299  0.1770  0.2146  0.1266
   87loPI   C2A 1384   5.206   2.423   8.811  0.3486 -0.2502 -0.1045
   87loPI   C3A 1385   5.303   2.487   8.470 -0.0013  0.0124 -0.4001
   87loPI   C4A 1386   5.121   2.410   8.031 -0.0449 -0.3130  0.3429
   87loPI   C5A 1387   5.202   2.480   7.561 -0.0842  0.0240  0.1093
   87loPI   C6A 1388   5.106   2.712   7.178 -0.2294 -0.4006  0.0230
   87loPI   C1B 1389   4.799   2.066   9.343  0.0445  0.2040 -0.0439
   87loPI   C2B 1390   4.780   2.060   8.923  0.0466 -0.1875  0.0893
   87loPI   C3B 1391   4.896   2.043   8.587 -0.0033 -0.0587 -0.3950
   87loPI   C4B 1392   4.864   1.959   8.181  0.2964  0.1672 -0.1174
   88loPI    C1 1393   9.291  11.910  10.762  0.0996 -0.0787 -0.3897
   88loPI    C2 1394   9.119  12.271  10.758 -0.0576 -0.1433  0.0618
   88loPI    C3 1395   9.059  12.024  11.067  0.3113 -0.4309 -0.0892
   88loPI   PO4 1396   9.289  11.862  10.478 -0.3022 -0.2164 -0.0547
   88loPI   GL1 1397   9.211  12.100  10.180  0.0118 -0.1339 -0.2840
   88loPI   GL2 1398   8.916  12.259  10.194  0.0344 -0.2091 -0.1486
   88loPI   C1A 1399   9.297  12.117   9.809  0.2820  0.3677  0.1421
   88loPI   C2A 1400   9.296  12.171   9.438 -0.2102  0.0159 -0.1904
   88loPI   C3A 1401   9.335  12.119   9.009 -0.0219 -0.0005  0.1930
   88loPI   C4A 1402   9.347  11.963   8.561 -0.0408  0.2814  0.0637
   88loPI   C5A 1403   9.699  11.868   8.242 -0.4708  0.0441 -0.0321
   88loPI   C6A 1404  10.207  11.810   8.214  0.2074 -0.0562 -0.0546
   88loPI   C1B 1405   8.820  12.306   9.760 -0.2333  0.0433 -0.2286
   88loPI   C2B 1406   8.873  12.232   9.276 -0.2546 -0.0602  0.2688
   88loPI   C3B 1407   8.846  12.236   8.891 -0.3597  0.0658  0.0044
   88loPI   C4B 1408   8.731  12.149   8.491  0.0934 -0.0267  0.2209
   89loPI    C1 1409  14.704   7.481  10.444 -0.0850 -0.0095  0.0804
   89loPI    C2 1410  14.464   7.646  10.718  0.0239 -0.1129  0.2397
   89loPI    C3 1411  14.698   7.337  10.818  0.1196 -0.1032  0.0490
   89loPI   PO4 1412  14.498   7.493  10.243  0.2523  0.1365 -0.1127
   89loPI   GL1 1413  14.299   7.283   9.877  0.1964  0.0526 -0.1032
   89loPI   GL2 1414  13.945   7.195  10.059 -0.2253  0.3097  0.1056
   89loPI   C1A 1415  14.269   7.236   9.486  0.5592  0.0092  0.1735
   89loPI   C2A 1416  14.268   7.218   8.974  0.0026  0.0624 -0.0161
   89loPI   C3A 1417  14.363   7.458   8.661  0.0425 -0.1871 -0.1510
   89loPI   C4A 1418  14.241   7.558   8.182  0.2424 -0.0797 -0.3266
   89loPI   C5A 1419  13.912   7.527   7.913 -0.0747 -0.0517 -0.1259
   89loPI   C6A 1420  13.666   7.261   7.954  0.0962 -0.0413 -0.0558
   89loPI   C1B 1421  13.928   6.924   9.737  0.1575 -0.4075 -0.3727
   89loPI   C2B 1422  13.963   6.926   9.251 -0.1048  0.2263 -0.1339
   89loPI   C3B 1423  13.919   6.882   8.839 -0.1129 -0.1967  0.0029
   89loPI   C4B 1424  13.856   6.752   8.446  0.0652 -0.2221  0.1003
   90loPI    C1 1425  12.499   5.539  11.044  0.0988  0.1095 -0.0493
   90loPI    C2 1426  12.795   5.271  11.035 -0.1024 -0.1193  0.0411
   90loPI    C3 1427  12.537   5.275  11.341 -0.1905  0.0813 -0.0341
   90loPI   PO4 1428  12.361   5.481  10.836  0.0026 -0.4121  0.1776
   90loPI   GL1 1429  12.347   5.488  10.341  0.0719 -0.0581  0.2417
   90loPI   GL2 1430  12.135   5.208  10.267  0.3330 -0.1128  0.0294
   90loPI   C1A 1431  12.427   5.514   9.923  0.2474  0.0775 -0.1948
   90loPI   C2A 1432  12.470   5.530   9.482 -0.2444  0.0173 -0.0942
   90loPI   C3A 1433  12.409   5.468   9.107 -0.1945  0.3840 -0.0554
   90loPI   C4A 1434  12.414   5.583   8.628 -0.3623  0.1728  0.1082
   90loPI   C5A 1435  12.699   5.684   8.213  0.1971 -0.2758 -0.1854
   90loPI   C6A 1436  13.122   5.682   8.151  0.0578  0.1272 -0.1202
   90loPI   C1B 1437  12.105   5.060   9.857  0.2697 -0.1999 -0.4233
   90loPI   C2B 1438  12.156   5.100   9.453  0.2188 -0.1012 -0.0323
   90loPI   C3B 1439  12.109   5.013   9.093 -0.2224 -0.1313 -0.0713
   90loPI   C4B 1440  12.128   5.221   8.730  0.0254 -0.1730 -0.1270
   91loPI    C1 1441   4.870  17.003  10.545  0.0404 -0.0773  0.2746
   91loPI    C2 1442   5.011  17.158  10.886  0.2076  0.3955  0.0005
   91loPI    C3 1443   4.642  17.250  10.762  0.0051 -0.0713  0.2307
   91loPI   PO4 1444   5.032  16.713  10.556 -0.0448 -0.0696  0.1614
   91loPI   GL1 1445   5.189  16.726  10.041 -0.1049 -0.1168  0.1677
   91loPI   GL2 1446   5.095  16.441   9.786  0.2155 -0.0354  0.2123
   91loPI   C1A 1447   5.235  16.960   9.646  0.1398  0.2483 -0.0883
   91loPI   C2A 1448   5.232  17.116   9.256 -0.1445  0.2975 -0.1543
   91loPI   C3A 1449   5.319  17.052   8.806 -0.0252  0.1701  0.0354
   91loPI   C4A 1450   5.662  17.006   8.385  0.0042 -0.0063  0.1647
   91loPI   C5A 1451   5.854  16.780   7.934 -0.1994  0.0635  0.1561
   91loPI   C6A 1452   5.887  16.551   7.647 -0.1332 -0.2966  0.1511
   91loPI   C1B 1453   5.221  16.528   9.378 -0.2131 -0.1592 -0.1185
   91loPI   C2B 1454   5.463  16.658   9.067 -0.1309 -0.0030 -0.1686
   91loPI   C3B 1455   5.612  16.578   8.581 -0.2142 -0.0181 -0.1683
   91loPI   C4B 1456   5.759  16.384   8.238 -0.1189  0.1529 -0.0920
   92loPI    C1 1457   8.493  11.915  10.828  0.1361 -0.0926  0.1932
   92loPI    C2 1458   8.788  11.965  10.562 -0.0974  0.0275 -0.0477
   92loPI    C3 1459   8.819  11.683  10.844  0.2415  0.0325 -0.0760
   92loPI   PO4 1460   8.283  11.969  10.702  0.1941  0.1223  0.1022
   92loPI   GL1 1461   8.117  12.042  10.405 -0.1929 -0.0312  0.3792
   92loPI   GL2 1462   8.145  12.342  10.276 -0.0455 -0.0487  0.0225
   92loPI   C1A 1463   8.525  12.039  10.086  0.2979  0.1781  0.0038
   92loPI   C2A 1464   8.493  11.901   9.649  0.2226  0.0829 -0.0273
   92loPI   C3A 1465   8.487  11.877   9.191  0.3268 -0.1497  0.2879
   92loPI   C4A 1466   8.425  11.757   8.707  0.1042 -0.2518  0.0080
   92loPI   C5A 1467   8.390  11.855   8.305  0.0197  0.0413 -0.1024
   92loPI   C6A 1468   8.153  11.742   7.969  0.4959 -0.3026  0.2262
   92loPI   C1B 1469   8.362  12.481   9.868 -0.1265  0.0448 -0.0850
   92loPI   C2B 1470   8.367  12.323   9.488  0.0876  0.1226  0.0662
   92loPI   C3B 1471   8.372  12.334   9.038  0.1377  0.0378  0.2250
   92loPI   C4B 1472   8.288  12.287   8.602 -0.1256  0.1684 -0.1458
   93loPI    C1 1473   4.890   4.280  10.516 -0.0163  0.1452 -0.2480
   93loPI    C2 1474   4.744   4.640  10.611 -0.0749  0.0462  0.0490
   93loPI    C3 1475   4.686   4.330  10.857  0.0008 -0.1609 -0.1902
   93loPI   PO4 1476   4.814   4.210  10.191 -0.0865 -0.3152 -0.2282
   93loPI   GL1 1477   4.820   4.103   9.720  0.0680 -0.1372 -0.3797
   93loPI   GL2 1478   4.757   3.770   9.736 -0.1004 -0.0754 -0.1420
   93loPI   C1A 1479   4.786   4.097   9.337  0.2811 -0.2220  0.0774
   93loPI   C2A 1480   4.733   4.056   8.929  0.1300  0.2301 -0.1546
   93loPI   C3A 1481   4.650   4.278   8.603  0.1199  0.0636 -0.0330
   93loPI   C4A 1482   4.744   4.379   8.156  0.0049 -0.0405 -0.1048
   93loPI   C5A 1483   5.086   4.217   7.939  0.1999  0.0870  0.0920
   93loPI   C6A 1484   5.480   3.958   7.876  0.1140 -0.2314  0.0507
   93loPI   C1B 1485   4.870   3.546   9.405  0.2496  0.0500 -0.1503
   93loPI   C2B 1486   4.850   3.417   8.994  0.1662 -0.2796 -0.1077
   93loPI   C3B 1487   4.932   3.420   8.509 -0.0632  0.2020 -0.0107
   93loPI   C4B 1488   4.820   3.377   8.133  0.0008  0.3113  0.0265
   94loPI    C1 1489  11.639  10.481  11.338  0.1490  0.1086  0.1632
   94loPI    C2 1490  11.242  10.433  11.361  0.1565 -0.1722 -0.2078
   94loPI    C3 1491  11.419  10.731  11.561 -0.2416 -0.0321 -0.0539
   94loPI   PO4 1492  11.687  10.449  10.994 -0.0671 -0.1338  0.0345
   94loPI   GL1 1493  11.595  10.649  10.662  0.1058  0.1042  0.0311
   94loPI   GL2 1494  11.757  10.556  10.375 -0.0942  0.1020 -0.1857
   94loPI   C1A 1495  11.496  10.870  10.214  0.0184 -0.1164 -0.1604
   94loPI   C2A 1496  11.588  10.946   9.800  0.5690  0.3629  0.0543
   94loPI   C3A 1497  11.551  10.996   9.381  0.0912  0.1979  0.0116
   94loPI   C4A 1498  11.475  10.926   8.942 -0.3126 -0.3344 -0.1031
   94loPI   C5A 1499  11.416  10.959   8.529  0.0786  0.0379  0.2582
   94loPI   C6A 1500  11.370  10.577   8.183 -0.0072  0.3388  0.0684
   94loPI   C1B 1501  11.666  10.449   9.980  0.0928  0.0825  0.2603
   94loPI   C2B 1502  11.738  10.504   9.474 -0.1398 -0.0490  0.0894
   94loPI   C3B 1503  11.689  10.460   9.057  0.1987 -0.2495 -0.1479
   94loPI   C4B 1504  11.590  10.512   8.651  0.3631 -0.0205 -0.0797
   95loPI    C1 1505  12.479  16.063  11.144 -0.0414 -0.0030 -0.1465
   95loPI    C2 1506  12.825  15.863  11.149  0.0552  0.1606 -0.2037
   95loPI    C3 1507  12.751  16.139  11.428 -0.0307  0.1237 -0.1898
   95loPI   PO4 1508  12.541  16.140  10.839 -0.0671  0.0831  0.0894
   95loPI   GL1 1509  12.359  16.414  10.564  0.1743 -0.2518 -0.1274
   95loPI   GL2 1510  12.106  16.338  10.594 -0.4266 -0.1353 -0.0011
   95loPI   C1A 1511  12.249  16.041  10.237 -0.0441  0.1814  0.1946
   95loPI   C2A 1512  12.291  15.883   9.824 -0.0407 -0.1482 -0.1948
   95loPI   C3A 1513  12.226  16.035   9.360 -0.0685 -0.1463 -0.0931
   95loPI   C4A 1514  12.105  15.927   9.027 -0.1869 -0.2386  0.0173
   95loPI   C5A 1515  11.962  16.138   8.589 -0.0667  0.1114 -0.1480
   95loPI   C6A 1516  11.938  16.051   8.155 -0.0562 -0.2603  0.1327
   95loPI   C1B 1517  11.817  16.333  10.274 -0.1044  0.0611  0.0294
   95loPI   C2B 1518  11.780  16.185   9.857  0.1093 -0.3641 -0.4459
   95loPI   C3B 1519  11.687  16.170   9.428 -0.0532  0.2077  0.0679
   95loPI   C4B 1520  11.509  16.186   9.076  0.2260  0.3669 -0.0150
   96loPI    C1 1521  12.510   3.168  11.002 -0.0170  0.0344  0.0265
   96loPI    C2 1522  12.196   3.280  10.781 -0.2589 -0.2125  0.2383
   96loPI    C3 1523  12.219   2.906  10.923  0.0767 -0.1644  0.3202
   96loPI   PO4 1524  12.787   3.259  10.734  0.2423  0.2093  0.0061
   96loPI   GL1 1525  12.744   2.951  10.386  0.1615 -0.1674  0.1933
   96loPI   GL2 1526  12.379   3.035  10.388 -0.0233 -0.1085  0.0347
   96loPI   C1A 1527  12.621   3.000   9.922 -0.1092 -0.1782  0.2704
   96loPI   C2A 1528  12.629   3.105   9.408 -0.0288 -0.2376  0.1108
   96loPI   C3A 1529  12.570   3.074   8.931  0.1537  0.2118 -0.2210
   96loPI   C4A 1530  12.497   3.151   8.454  0.0352  0.2561  0.0760
   96loPI   C5A 1531  12.353   3.342   8.061  0.0622 -0.0290  0.0799
   96loPI   C6A 1532  11.933   3.503   7.912 -0.1223  0.2799  0.0683
   96loPI   C1B 1533  12.345   2.628  10.120  0.0373 -0.3724  0.1727
   96loPI   C2B 1534  12.212   2.704   9.669 -0.0976  0.0129 -0.0433
   96loPI   C3B 1535  12.213   2.631   9.256  0.1786  0.0045 -0.2278
   96loPI   C4B 1536  12.141   2.788   8.792  0.0184  0.1652  0.2236
   97loPI    C1 1537   3.242  12.297   9.911  0.0828  0.0805 -0.2294
   97loPI    C2 1538   3.083  12.581  10.144  0.1975 -0.0885  0.0599
   97loPI    C3 1539   3.460  12.460  10.204  0.1408 -0.3214 -0.0413
   97loPI   PO4 1540   3.060  12.370   9.712  0.1586  0.2021 -0.0394
   97loPI   GL1 1541   3.123  12.219   9.304 -0.0628 -0.1484  0.0741
   97loPI   GL2 1542   3.450  12.079   9.396  0.1309  0.1154  0.2516
   97loPI   C1A 1543   3.130  12.313   8.860 -0.1387  0.1626 -0.2816
   97loPI   C2A 1544   3.276  12.471   8.505  0.2853  0.3183  0.3323
   97loPI   C3A 1545   3.281  12.283   8.102  0.2592  0.1130  0.0089
   97loPI   C4A 1546   3.156  12.138   7.862 -0.3548  0.1777 -0.0395
   97loPI   C5A 1547   3.026  12.246   7.443 -0.1906 -0.0638 -0.0027
   97loPI   C6A 1548   3.172  12.569   7.128  0.0010  0.0305 -0.0420
   97loPI   C1B 1549   3.404  11.947   9.013 -0.2032 -0.0116 -0.2240
   97loPI   C2B 1550   3.363  11.847   8.593 -0.1454  0.0139 -0.0085
   97loPI   C3B 1551   3.115  11.837   8.267 -0.0508 -0.0381 -0.0127
   97loPI   C4B 1552   2.730  11.863   8.023  0.0888 -0.2000  0.0296
   98loPI    C1 1553   0.937   2.895   9.990  0.0272 -0.2312 -0.1074
   98loPI    C2 1554   0.965   2.894  10.389 -0.1116  0.1366 -0.0923
   98loPI    C3 1555   0.680   2.679  10.208  0.0279 -0.1281 -0.0033
   98loPI   PO4 1556   1.179   2.864   9.953 -0.5544 -0.0506  0.0491
   98loPI   GL1 1557   1.494   2.954   9.652  0.1787 -0.0916 -0.2572
   98loPI   GL2 1558   1.797   2.907   9.668  0.1447  0.2754  0.1524
   98loPI   C1A 1559   1.379   3.035   9.227  0.1231  0.0222 -0.0378
   98loPI   C2A 1560   1.195   3.080   8.844 -0.0093  0.1081  0.0291
   98loPI   C3A 1561   1.202   3.296   8.463 -0.1625  0.0776 -0.3192
   98loPI   C4A 1562   1.209   3.687   8.257 -0.0435  0.1202 -0.1678
   98loPI   C5A 1563   1.114   3.891   7.983  0.2330 -0.1058 -0.0710
   98loPI   C6A 1564   0.822   3.752   7.777 -0.0357  0.0429  0.1784
   98loPI   C1B 1565   1.760   2.734   9.261 -0.0379  0.2705 -0.1041
   98loPI   C2B 1566   1.633   2.731   8.728  0.2073 -0.0255 -0.4361
   98loPI   C3B 1567   1.683   3.014   8.363 -0.3243  0.3249  0.1881
   98loPI   C4B 1568   1.586   3.160   8.015  0.3373 -0.1596 -0.1391
   99loPI    C1 1569  15.097   0.833  10.769  0.1228  0.1141 -0.0883
   99loPI    C2 1570  14.779   0.625  10.893  0.0129  0.2606 -0.1223
   99loPI    C3 1571  15.129   0.440  10.838 -0.0206  0.1312  0.0853
   99loPI   PO4 1572  14.993   1.034  10.587  0.0170 -0.0445  0.1012
   99loPI   GL1 1573  15.056   0.931  10.161  0.1571  0.0378  0.0777
   99loPI   GL2 1574  14.693   0.966  10.112  0.3192 -0.3128 -0.0229
   99loPI   C1A 1575  15.076   0.806   9.764 -0.0455 -0.1987  0.0124
   99loPI   C2A 1576  15.130   0.896   9.391  0.0616 -0.0201 -0.1741
   99loPI   C3A 1577  14.965   0.996   8.931  0.3887 -0.2547  0.0116
   99loPI   C4A 1578  14.891   0.964   8.484  0.2169 -0.2851  0.1876
   99loPI   C5A 1579  14.881   0.980   8.070 -0.0007  0.1506 -0.1746
   99loPI   C6A 1580  14.858   1.206   7.703 -0.0472  0.2611  0.1212
   99loPI   C1B 1581  14.603   1.036   9.758  0.0553 -0.0003  0.2352
   99loPI   C2B 1582  14.425   1.139   9.318  0.2319  0.5290 -0.0758
   99loPI   C3B 1583  14.442   1.114   8.932  0.1042  0.0608  0.2668
   99loPI   C4B 1584  14.362   1.083   8.453 -0.1405 -0.1160  0.0122
  100loPI    C1 1585  15.947   2.774  10.610 -0.0853 -0.1707 -0.1246
  100loPI    C2 1586  16.093   2.471  10.827 -0.2648 -0.2890 -0.1667
  100loPI    C3 1587  15.873   2.755  11.002  0.0110 -0.1112 -0.1034
  100loPI   PO4 1588  16.002   2.653  10.338 -0.0774  0.1935 -0.2387
  100loPI   GL1 1589  15.904   2.935   9.993  0.4868  0.0076  0.4352
  100loPI   GL2 1590  15.959   3.186   9.907 -0.1794  0.4112 -0.1381
  100loPI   C1A 1591  15.649   2.686   9.743  0.3968 -0.1227 -0.2330
  100loPI   C2A 1592  15.532   2.743   9.293 -0.0075 -0.0184  0.0299
  100loPI   C3A 1593  15.427   2.799   8.842 -0.3241  0.0903 -0.1604
  100loPI   C4A 1594  15.233   2.687   8.380  0.0827 -0.0992  0.2369
  100loPI   C5A 1595  15.024   2.708   7.928  0.2141 -0.1493  0.3086
  100loPI   C6A 1596  15.111   2.732   7.445  0.2273 -0.1086  0.2769
  100loPI   C1B 1597  15.897   3.075   9.470 -0.0444  0.1472 -0.1224
  100loPI   C2B 1598  15.864   3.106   9.039  0.5105  0.0455 -0.1236
  100loPI   C3B 1599  15.822   2.928   8.558  0.1776 -0.1122  0.2194
  100loPI   C4B 1600  15.929   2.817   8.102  0.1682 -0.0367 -0.0471
  101loPI    C1 1601  13.196   1.994  10.683 -0.3246  0.0440  0.0961
  101loPI    C2 1602  12.977   1.901  11.004 -0.1582  0.0651  0.2170
  101loPI    C3 1603  13.205   1.623  10.830 -0.2700  0.0464  0.0986
  101loPI   PO4 1604  13.108   2.262  10.595  0.0729 -0.3155 -0.0480
  101loPI   GL1 1605  12.832   2.433  10.284  0.1470 -0.0385 -0.2814
  101loPI   GL2 1606  12.919   2.065  10.158  0.0773  0.2690  0.1546
  101loPI   C1A 1607  12.795   2.524   9.916 -0.4492  0.2345 -0.1947
  101loPI   C2A 1608  12.708   2.465   9.517  0.2172 -0.0604 -0.1961
  101loPI   C3A 1609  12.685   2.596   9.142  0.3285  0.0313  0.2811
  101loPI   C4A 1610  12.601   2.589   8.781  0.1234  0.0917 -0.0865
  101loPI   C5A 1611  12.612   2.641   8.351  0.1096 -0.1474 -0.3265
  101loPI   C6A 1612  12.751   2.446   7.979  0.2557 -0.3587  0.1113
  101loPI   C1B 1613  12.994   1.948   9.822  0.0797 -0.0452  0.1729
  101loPI   C2B 1614  12.877   1.987   9.392  0.2854 -0.0517  0.0549
  101loPI   C3B 1615  12.752   2.060   8.930  0.3537  0.2459  0.1852
  101loPI   C4B 1616  12.711   2.140   8.449  0.2480  0.1292 -0.0415
  102loPI    C1 1617  14.630   6.265  10.938 -0.0982  0.0027 -0.0379
  102loPI    C2 1618  14.867   6.504  11.154 -0.2797  0.1370  0.0155
  102loPI    C3 1619  14.858   6.111  11.227 -0.0326  0.1222 -0.0254
  102loPI   PO4 1620  14.603   6.363  10.750  0.1964 -0.4053 -0.1488
  102loPI   GL1 1621  14.656   6.403  10.219 -0.0832 -0.0514 -0.1406
  102loPI   GL2 1622  14.409   6.275  10.021  0.1052 -0.2870  0.0420
  102loPI   C1A 1623  14.857   6.503   9.857 -0.1298 -0.2684 -0.2501
  102loPI   C2A 1624  14.669   6.347   9.504  0.0031  0.0620  0.3073
  102loPI   C3A 1625  14.572   6.247   8.998 -0.0836  0.1409 -0.1146
  102loPI   C4A 1626  14.495   6.094   8.535 -0.2379 -0.0935 -0.0016
  102loPI   C5A 1627  14.433   6.239   8.187 -0.3234 -0.0860  0.1362
  102loPI   C6A 1628  14.251   6.227   7.711 -0.1684 -0.1382 -0.1622
  102loPI   C1B 1629  14.327   6.083   9.683 -0.0283 -0.0487  0.4151
  102loPI   C2B 1630  14.270   5.919   9.271 -0.2088  0.0927  0.2274
  102loPI   C3B 1631  14.162   5.818   8.835  0.0940  0.0640 -0.1671
  102loPI   C4B 1632  14.069   5.802   8.378 -0.4790 -0.0915 -0.3158
  103loPI    C1 1633   7.594   4.122  10.788  0.0000  0.1137 -0.1052
  103loPI    C2 1634   7.439   3.789  10.630  0.0875  0.1717 -0.3167
  103loPI    C3 1635   7.827   3.803  10.723  0.0596  0.1761 -0.1990
  103loPI   PO4 1636   7.530   4.289  10.608 -0.2260 -0.0668  0.0982
  103loPI   GL1 1637   7.508   4.124  10.239  0.0518 -0.1934 -0.0052
  103loPI   GL2 1638   7.882   3.923  10.275 -0.0061 -0.3450 -0.0737
  103loPI   C1A 1639   7.128   4.183   9.971 -0.3174 -0.0796 -0.0075
  103loPI   C2A 1640   7.196   4.215   9.582 -0.1048 -0.2478  0.4382
  103loPI   C3A 1641   7.196   4.235   9.125  0.0403 -0.0215 -0.2052
  103loPI   C4A 1642   7.143   4.057   8.691  0.2262  0.0183 -0.0859
  103loPI   C5A 1643   7.105   4.134   8.341  0.1174 -0.0623  0.4069
  103loPI   C6A 1644   6.993   3.893   7.954  0.0267  0.1214  0.1727
  103loPI   C1B 1645   7.649   3.974   9.803  0.1940  0.0696 -0.3620
  103loPI   C2B 1646   7.679   4.024   9.313 -0.1067 -0.1676  0.1067
  103loPI   C3B 1647   7.768   4.051   8.921  0.2079 -0.3280 -0.0221
  103loPI   C4B 1648   8.096   4.140   8.520  0.3483  0.1249 -0.1082
  104loPI    C1 1649  13.282  13.479  10.990  0.1046  0.0447 -0.1236
  104loPI    C2 1650  12.984  13.575  11.238  0.2378 -0.2004  0.1374
  104loPI    C3 1651  13.212  13.862  11.079 -0.0212 -0.0235  0.0779
  104loPI   PO4 1652  13.172  13.329  10.762  0.1716 -0.0355 -0.0529
  104loPI   GL1 1653  13.141  13.363  10.327 -0.2027  0.2548  0.0785
  104loPI   GL2 1654  13.501  13.392  10.248 -0.0967  0.0816 -0.4373
  104loPI   C1A 1655  13.243  13.695  10.036 -0.2384 -0.2260  0.3542
  104loPI   C2A 1656  13.193  13.757   9.615  0.0434 -0.1216  0.4430
  104loPI   C3A 1657  13.149  13.789   9.137  0.0699 -0.4234  0.0275
  104loPI   C4A 1658  13.090  13.938   8.737 -0.0202  0.0530  0.1008
  104loPI   C5A 1659  12.956  13.908   8.308  0.2954 -0.0873  0.0870
  104loPI   C6A 1660  12.542  13.794   8.039  0.0993  0.2330  0.1867
  104loPI   C1B 1661  13.432  13.292   9.882 -0.1248 -0.2750  0.0981
  104loPI   C2B 1662  13.274  13.211   9.428  0.0382  0.1033 -0.0713
  104loPI   C3B 1663  13.336  13.308   9.036 -0.0037  0.2068  0.3449
  104loPI   C4B 1664  13.165  13.452   8.576 -0.0725  0.0794 -0.1479
  105loPI    C1 1665  13.791   3.306  10.703  0.4609  0.2181 -0.1018
  105loPI    C2 1666  13.922   3.053  10.984 -0.2097 -0.0295  0.0068
  105loPI    C3 1667  13.994   3.445  11.018  0.3925 -0.1400  0.1066
  105loPI   PO4 1668  13.546   3.164  10.672  0.0297 -0.2660  0.4126
  105loPI   GL1 1669  13.340   3.184  10.332 -0.0559  0.2599  0.0087
  105loPI   GL2 1670  13.157   3.349  10.408 -0.1567  0.1923 -0.1530
  105loPI   C1A 1671  13.138   2.899  10.049 -0.0693  0.1117  0.2051
  105loPI   C2A 1672  12.999   2.844   9.614 -0.0622  0.2970 -0.1311
  105loPI   C3A 1673  13.060   2.844   9.288  0.2282  0.3040 -0.0639
  105loPI   C4A 1674  13.024   2.914   8.898  0.0740 -0.1236 -0.3663
  105loPI   C5A 1675  13.102   2.935   8.457 -0.0482 -0.1961  0.3918
  105loPI   C6A 1676  12.938   2.919   8.071 -0.2593  0.1287 -0.0892
  105loPI   C1B 1677  13.073   3.511   9.963 -0.0767  0.3709 -0.0283
  105loPI   C2B 1678  13.002   3.463   9.491 -0.2121 -0.2059 -0.1494
  105loPI   C3B 1679  12.908   3.487   9.051 -0.1300 -0.2230  0.1193
  105loPI   C4B 1680  12.925   3.401   8.596  0.1209 -0.0715 -0.2091
  106loPI    C1 1681   9.620   7.192  10.872 -0.0749 -0.0014  0.0632
  106loPI    C2 1682   9.692   7.560  11.011 -0.2315  0.0738 -0.0504
  106loPI    C3 1683   9.853   7.443  10.664 -0.2257  0.0542 -0.0412
  106loPI   PO4 1684   9.294   7.156  10.825 -0.0261  0.1474 -0.0838
  106loPI   GL1 1685   9.093   7.294  10.479  0.1046 -0.0590 -0.0388
  106loPI   GL2 1686   9.488   7.194  10.384 -0.1365 -0.1675  0.2744
  106loPI   C1A 1687   9.077   7.382  10.121 -0.2538 -0.1755 -0.0832
  106loPI   C2A 1688   9.100   7.450   9.689 -0.0409  0.0142  0.1759
  106loPI   C3A 1689   9.065   7.397   9.253 -0.1935  0.0812  0.5585
  106loPI   C4A 1690   9.000   7.472   8.819  0.0400 -0.0012  0.0680
  106loPI   C5A 1691   9.054   7.109   8.429 -0.2679  0.2485 -0.1469
  106loPI   C6A 1692   9.225   6.658   8.352 -0.1835 -0.0518  0.0747
  106loPI   C1B 1693   9.546   7.206   9.869 -0.1147 -0.0225 -0.0212
  106loPI   C2B 1694   9.569   7.248   9.405  0.0686 -0.2756 -0.0053
  106loPI   C3B 1695   9.473   7.227   8.862  0.3101  0.0123 -0.0914
  106loPI   C4B 1696   9.548   7.048   8.408  0.1770 -0.1653  0.3073
  107loPI    C1 1697  13.124   8.617  10.767  0.1930 -0.1876 -0.1437
  107loPI    C2 1698  13.136   8.761  11.139  0.0494  0.0911 -0.2442
  107loPI    C3 1699  12.784   8.685  10.966  0.1223 -0.4915 -0.1555
  107loPI   PO4 1700  13.256   8.707  10.567 -0.0215 -0.1862 -0.1269
  107loPI   GL1 1701  13.156   8.520  10.152  0.2314  0.1847  0.1383
  107loPI   GL2 1702  12.907   8.325  10.112  0.0598  0.0757 -0.1501
  107loPI   C1A 1703  13.159   8.563   9.710 -0.1966 -0.2671 -0.1578
  107loPI   C2A 1704  13.098   8.624   9.348  0.2361  0.4254 -0.1232
  107loPI   C3A 1705  12.967   8.551   8.902 -0.0362 -0.0952 -0.0773
  107loPI   C4A 1706  12.837   8.512   8.480  0.1473  0.0131 -0.1124
  107loPI   C5A 1707  12.885   8.867   8.150 -0.2528  0.2442 -0.1193
  107loPI   C6A 1708  12.836   9.231   7.948 -0.2086 -0.1531  0.4105
  107loPI   C1B 1709  12.821   8.203   9.770  0.2075 -0.0409  0.1951
  107loPI   C2B 1710  12.716   8.219   9.333 -0.0195 -0.0954 -0.0000
  107loPI   C3B 1711  12.592   8.202   8.838 -0.2415 -0.0135 -0.0017
  107loPI   C4B 1712  12.569   8.072   8.386  0.0801  0.3977  0.0402
  108loPI    C1 1713   8.915   3.522  11.213 -0.0624 -0.1086  0.0411
  108loPI    C2 1714   8.536   3.603  11.314 -0.0523 -0.0335  0.0184
  108loPI    C3 1715   8.833   3.684  11.570 -0.0565 -0.1475  0.0603
  108loPI   PO4 1716   8.845   3.644  10.930 -0.2524  0.3152  0.3906
  108loPI   GL1 1717   9.015   3.664  10.457  0.0658  0.0168 -0.1983
  108loPI   GL2 1718   8.744   3.426  10.489  0.0238 -0.0485 -0.0227
  108loPI   C1A 1719   9.207   3.551  10.187 -0.0270 -0.0340  0.0372
  108loPI   C2A 1720   9.259   3.525   9.725 -0.0233 -0.0278  0.4209
  108loPI   C3A 1721   9.230   3.653   9.320  0.0432  0.1780 -0.1043
  108loPI   C4A 1722   9.134   3.555   8.970  0.1985  0.1154  0.1289
  108loPI   C5A 1723   9.189   3.585   8.617  0.1774 -0.0990 -0.0758
  108loPI   C6A 1724   8.990   3.886   8.414  0.0111 -0.0648  0.0507
  108loPI   C1B 1725   8.742   3.611  10.051 -0.0537  0.2589  0.4175
  108loPI   C2B 1726   8.735   3.685   9.596  0.4107 -0.1376 -0.0728
  108loPI   C3B 1727   8.695   3.783   9.223 -0.1043 -0.1723  0.0851
  108loPI   C4B 1728   8.685   3.699   8.781 -0.0108  0.3685  0.3764
  109loPI    C1 1729  14.935   8.129  10.856  0.3395  0.0491  0.1805
  109loPI    C2 1730  14.791   8.176  11.226  0.1247 -0.1980  0.1317
  109loPI    C3 1731  14.842   7.809  11.077 -0.0611 -0.0991 -0.1870
  109loPI   PO4 1732  14.871   8.330  10.725 -0.2666 -0.1098  0.1284
  109loPI   GL1 1733  14.647   8.467  10.266  0.2184 -0.0116 -0.0991
  109loPI   GL2 1734  14.523   8.659  10.202 -0.2551  0.0031  0.2807
  109loPI   C1A 1735  14.888   8.344  10.004 -0.3604 -0.0076  0.1661
  109loPI   C2A 1736  14.939   8.271   9.598  0.2931  0.0701 -0.2106
  109loPI   C3A 1737  14.763   8.274   9.248  0.0385  0.1187  0.3095
  109loPI   C4A 1738  14.637   8.291   8.798  0.1858 -0.0745 -0.0631
  109loPI   C5A 1739  14.538   8.220   8.358  0.4110  0.1684  0.1130
  109loPI   C6A 1740  14.566   8.315   7.971  0.1780  0.0511  0.3562
  109loPI   C1B 1741  14.713   8.709   9.753 -0.2162  0.1041 -0.1224
  109loPI   C2B 1742  14.530   8.722   9.332 -0.5019 -0.0976  0.0104
  109loPI   C3B 1743  14.357   8.690   8.992  0.2240 -0.1457  0.3016
  109loPI   C4B 1744  14.414   8.710   8.576 -0.1158 -0.1215  0.2531
  110loPI    C1 1745   0.861   3.760  10.155 -0.2640  0.5679 -0.4722
  110loPI    C2 1746   0.480   3.729  10.273 -0.0549 -0.1591  0.0881
  110loPI    C3 1747   0.763   3.832  10.536  0.1982 -0.0683 -0.2150
  110loPI   PO4 1748   0.782   3.814   9.827  0.2723  0.0710 -0.2556
  110loPI   GL1 1749   1.161   3.865   9.627 -0.0980 -0.1951  0.1745
  110loPI   GL2 1750   1.378   3.566   9.491 -0.0849 -0.0545 -0.1128
  110loPI   C1A 1751   1.018   3.876   9.245  0.0282 -0.0196  0.2666
  110loPI   C2A 1752   0.932   3.906   8.796 -0.0435  0.2288 -0.0252
  110loPI   C3A 1753   0.808   4.060   8.448 -0.1288  0.0168 -0.0009
  110loPI   C4A 1754   0.939   4.322   8.097  0.0434  0.1241  0.2579
  110loPI   C5A 1755   0.829   4.646   7.748 -0.3014 -0.0296 -0.1456
  110loPI   C6A 1756   0.446   5.037   7.783 -0.0320  0.4813 -0.0406
  110loPI   C1B 1757   1.419   3.617   9.091  0.1077  0.0199 -0.1649
  110loPI   C2B 1758   1.584   3.650   8.634  0.2582  0.1832 -0.0044
  110loPI   C3B 1759   1.732   3.531   8.294  0.1659 -0.2584 -0.1002
  110loPI   C4B 1760   1.633   3.693   7.932  0.1262  0.1205  0.1188
  111loPI    C1 1761   3.909   4.967  10.508 -0.2757  0.1076  0.0473
  111loPI    C2 1762   3.871   5.133  10.146  0.0374  0.0436 -0.0180
  111loPI    C3 1763   3.596   5.203  10.428 -0.1931  0.1188 -0.2568
  111loPI   PO4 1764   4.026   4.737  10.442 -0.0471 -0.1789  0.1405
  111loPI   GL1 1765   4.133   4.631   9.961 -0.0398  0.1952 -0.1524
  111loPI   GL2 1766   4.348   4.313   9.870 -0.2514 -0.1239 -0.0554
  111loPI   C1A 1767   4.179   4.721   9.517 -0.3470  0.0520 -0.2060
  111loPI   C2A 1768   4.305   4.882   9.136  0.1904 -0.2070 -0.1175
  111loPI   C3A 1769   4.397   4.788   8.720  0.2582  0.0698  0.0773
  111loPI   C4A 1770   4.389   4.657   8.287  0.1131 -0.0247 -0.2996
  111loPI   C5A 1771   4.256   4.368   7.893  0.1325  0.0895  0.2848
  111loPI   C6A 1772   4.056   3.937   7.919 -0.2734 -0.0031  0.0631
  111loPI   C1B 1773   4.261   4.258   9.449 -0.2610 -0.3922  0.1660
  111loPI   C2B 1774   4.342   4.354   9.039 -0.1673 -0.0449  0.0028
  111loPI   C3B 1775   4.068   4.470   8.710 -0.0553 -0.1915 -0.2229
  111loPI   C4B 1776   3.932   4.919   8.473  0.0430 -0.2520 -0.1767
  112loPI    C1 1777  11.248  16.955  10.768 -0.4631  0.0242 -0.1036
  112loPI    C2 1778  11.184  17.242  11.039  0.1170 -0.0090  0.0836
  112loPI    C3 1779  11.332  16.888  11.153 -0.2206 -0.2489 -0.1998
  112loPI   PO4 1780  10.975  17.036  10.636  0.0749 -0.0974  0.3335
  112loPI   GL1 1781  10.790  17.028  10.309  0.1969 -0.0542 -0.1305
  112loPI   GL2 1782  10.638  16.933  10.075  0.0734  0.1570  0.0913
  112loPI   C1A 1783  10.926  17.300  10.039  0.3861  0.0480  0.0526
  112loPI   C2A 1784  10.998  17.262   9.635 -0.1852  0.0081  0.1770
  112loPI   C3A 1785  10.925  17.343   9.244 -0.0339 -0.3031 -0.0362
  112loPI   C4A 1786  10.829  17.301   8.794 -0.3102 -0.1909 -0.0085
  112loPI   C5A 1787  10.718  17.171   8.361 -0.0181  0.1386  0.2061
  112loPI   C6A 1788  10.528  17.261   7.963 -0.0972  0.2800  0.0641
  112loPI   C1B 1789  10.611  16.919   9.606 -0.1451 -0.0646 -0.0625
  112loPI   C2B 1790  10.486  16.874   9.202  0.0168  0.0644  0.1430
  112loPI   C3B 1791  10.464  16.935   8.815  0.0025 -0.1929 -0.4268
  112loPI   C4B 1792  10.422  16.816   8.299 -0.0908 -0.0110 -0.1059
  113loPI    C1 1793  10.241  14.828  11.174 -0.0903 -0.0720 -0.3588
  113loPI    C2 1794  10.533  14.571  11.083  0.0341 -0.0333 -0.0811
  113loPI    C3 1795  10.382  14.578  11.453 -0.1167  0.1479 -0.1447
  113loPI   PO4 1796  10.239  14.902  10.879 -0.1765  0.0656  0.1846
  113loPI   GL1 1797   9.935  15.005  10.541  0.1801  0.0617 -0.2087
  113loPI   GL2 1798   9.972  15.227  10.343 -0.1193 -0.0587 -0.0309
  113loPI   C1A 1799  10.098  14.779  10.218  0.1009  0.3513  0.1637
  113loPI   C2A 1800  10.055  14.625   9.850  0.3032  0.1177 -0.1046
  113loPI   C3A 1801  10.093  14.696   9.452 -0.0112  0.2776 -0.0877
  113loPI   C4A 1802  10.026  14.753   9.084  0.3472  0.0999 -0.1203
  113loPI   C5A 1803  10.104  14.579   8.721 -0.4402  0.0995 -0.2961
  113loPI   C6A 1804   9.954  14.711   8.299  0.0621 -0.1100 -0.0066
  113loPI   C1B 1805   9.976  15.160   9.935  0.0493  0.2083 -0.2977
  113loPI   C2B 1806   9.988  15.148   9.562 -0.1903  0.0998 -0.0383
  113loPI   C3B 1807   9.900  15.187   9.167  0.1684  0.4561 -0.2429
  113loPI   C4B 1808   9.779  15.029   8.688 -0.2154 -0.0663  0.0509
  114loPI    C1 1809   6.703  18.161  10.599  0.1262  0.0661  0.0261
  114loPI    C2 1810   6.729  17.798  10.433 -0.1922  0.1270 -0.1647
  114loPI    C3 1811   6.778  17.842  10.828  0.1616 -0.0765 -0.1819
  114loPI   PO4 1812   6.862  18.339  10.407 -0.0191  0.0676 -0.1727
  114loPI   GL1 1813   7.238  18.225  10.121 -0.0486 -0.2733  0.2557
  114loPI   GL2 1814   7.247  17.936  10.243 -0.0711 -0.0268 -0.0351
  114loPI   C1A 1815   7.130  18.225   9.729 -0.2808 -0.0988  0.2850
  114loPI   C2A 1816   7.247  18.204   9.330 -0.2200 -0.2568 -0.2206
  114loPI   C3A 1817   7.326  18.405   9.058  0.0312 -0.0302  0.0435
  114loPI   C4A 1818   7.321  18.358   8.565  0.0132  0.0013 -0.1344
  114loPI   C5A 1819   7.609  18.231   8.184 -0.2245 -0.2796  0.1650
  114loPI   C6A 1820   7.972  18.079   8.128  0.1042 -0.5187  0.1494
  114loPI   C1B 1821   7.465  17.882   9.958 -0.1563  0.2898  0.1718
  114loPI   C2B 1822   7.500  17.846   9.577  0.1517 -0.2018 -0.1562
  114loPI   C3B 1823   7.385  17.837   9.092  0.0081  0.1965  0.2063
  114loPI   C4B 1824   7.478  17.868   8.683 -0.1037  0.1231 -0.0446
  115loPI    C1 1825   1.760  14.572  10.057  0.1128  0.1485  0.0230
  115loPI    C2 1826   1.386  14.604  10.195  0.1295  0.0927  0.0814
  115loPI    C3 1827   1.538  14.244  10.111  0.0954  0.1307 -0.1506
  115loPI   PO4 1828   1.768  14.713   9.845  0.0283  0.0730 -0.2203
  115loPI   GL1 1829   2.026  14.782   9.519 -0.3182  0.3229  0.0183
  115loPI   GL2 1830   2.099  14.458   9.332 -0.0150  0.0771  0.2560
  115loPI   C1A 1831   2.079  14.942   9.153  0.0579 -0.2664 -0.0844
  115loPI   C2A 1832   2.016  15.064   8.720  0.0290 -0.0737  0.1026
  115loPI   C3A 1833   2.059  14.916   8.340 -0.4524 -0.0940 -0.1067
  115loPI   C4A 1834   2.407  14.840   8.174  0.2124  0.1044 -0.3294
  115loPI   C5A 1835   2.842  14.763   7.917 -0.0650 -0.2403 -0.0124
  115loPI   C6A 1836   2.773  14.539   7.564 -0.0751  0.1486 -0.0914
  115loPI   C1B 1837   2.154  14.403   8.961  0.0388 -0.0460  0.0184
  115loPI   C2B 1838   2.192  14.543   8.584  0.0251  0.1295  0.1919
  115loPI   C3B 1839   2.195  14.330   8.162 -0.1470  0.2117 -0.3189
  115loPI   C4B 1840   2.344  14.331   7.809  0.1034 -0.2445  0.2385
  116loPI    C1 1841  15.900   7.533  10.399 -0.2248  0.1697 -0.0120
  116loPI    C2 1842  16.207   7.543  10.656 -0.1042 -0.1086 -0.1421
  116loPI    C3 1843  15.897   7.790  10.706  0.2013  0.2732 -0.0869
  116loPI   PO4 1844  15.958   7.494  10.182  0.2262  0.1846  0.2815
  116loPI   GL1 1845  15.993   7.535   9.733 -0.1721  0.1119 -0.0261
  116loPI   GL2 1846  15.710   7.702   9.735  0.0440 -0.0140 -0.0998
  116loPI   C1A 1847  15.939   7.538   9.343 -0.1276  0.0038 -0.0598
  116loPI   C2A 1848  15.846   7.313   8.954  0.0678 -0.1573 -0.5878
  116loPI   C3A 1849  15.597   7.332   8.508  0.2044  0.3782 -0.0570
  116loPI   C4A 1850  15.478   7.500   8.188 -0.1020 -0.0893  0.2946
  116loPI   C5A 1851  15.676   7.335   7.788  0.3487 -0.0041  0.0962
  116loPI   C6A 1852  15.775   7.209   7.367  0.1603 -0.0122 -0.2292
  116loPI   C1B 1853  15.697   7.930   9.234  0.0239 -0.1323 -0.2094
  116loPI   C2B 1854  15.506   7.884   8.902  0.0380  0.0973  0.0923
  116loPI   C3B 1855  15.566   7.923   8.594  0.2662 -0.3564 -0.3882
  116loPI   C4B 1856  15.519   8.045   8.221 -0.3851  0.2760  0.4084
  117loPI    C1 1857  12.366  14.961  10.980 -0.0408  0.1085  0.4143
  117loPI    C2 1858  12.360  14.712  11.293  0.0570 -0.0299  0.3070
  117loPI    C3 1859  12.688  14.927  11.215  0.0758 -0.0863  0.2294
  117loPI   PO4 1860  12.258  14.858  10.795  0.0090 -0.0486 -0.0956
  117loPI   GL1 1861  12.287  14.752  10.366  0.0096  0.3110 -0.2511
  117loPI   GL2 1862  12.552  14.549  10.368  0.2450 -0.0497  0.5862
  117loPI   C1A 1863  12.425  14.953   9.939 -0.0832 -0.2198 -0.3047
  117loPI   C2A 1864  12.459  14.886   9.512  0.1548 -0.0597 -0.2475
  117loPI   C3A 1865  12.290  15.021   9.152  0.0003  0.0607 -0.1701
  117loPI   C4A 1866  12.290  14.970   8.774 -0.0134 -0.2776  0.0508
  117loPI   C5A 1867  12.150  14.889   8.321  0.1351 -0.2931 -0.1632
  117loPI   C6A 1868  11.798  15.083   8.093  0.2647 -0.0647 -0.0765
  117loPI   C1B 1869  12.651  14.465   9.896  0.2784 -0.4349  0.1065
  117loPI   C2B 1870  12.569  14.369   9.442  0.3314  0.0567  0.0978
  117loPI   C3B 1871  12.470  14.512   9.057  0.1191 -0.4662 -0.0118
  117loPI   C4B 1872  12.388  14.503   8.661 -0.1179  0.1532  0.1771
  118loPI    C1 1873   7.995  17.352  11.097 -0.5770 -0.0153 -0.0306
  118loPI    C2 1874   8.120  17.283  11.471 -0.0141  0.1781 -0.1727
  118loPI    C3 1875   7.899  17.606  11.390  0.0823  0.2760 -0.0485
  118loPI   PO4 1876   8.181  17.145  10.962 -0.3029 -0.0943  0.0589
  118loPI   GL1 1877   8.350  17.310  10.575 -0.0159 -0.2247 -0.5660
  118loPI   GL2 1878   8.012  17.278  10.454  0.2359  0.1783 -0.0912
  118loPI   C1A 1879   8.294  17.489  10.133 -0.0064 -0.1383 -0.0943
  118loPI   C2A 1880   8.493  17.589   9.750  0.2741  0.0692  0.1804
  118loPI   C3A 1881   8.384  17.562   9.255  0.4207 -0.3629 -0.1757
  118loPI   C4A 1882   8.511  17.578   8.780  0.0345 -0.0129  0.0098
  118loPI   C5A 1883   8.851  17.519   8.448  0.1962 -0.1956  0.1002
  118loPI   C6A 1884   9.111  17.450   8.048 -0.0168 -0.0894  0.3897
  118loPI   C1B 1885   7.920  17.125  10.064  0.0323  0.1275 -0.0204
  118loPI   C2B 1886   8.053  17.148   9.653 -0.0450 -0.2149  0.1389
  118loPI   C3B 1887   8.102  17.110   9.275 -0.2239 -0.2665  0.0682
  118loPI   C4B 1888   8.191  17.147   8.818 -0.1589 -0.1726  0.2144
  119loPI    C1 1889   7.023   2.088  10.940  0.0751  0.1204  0.1067
  119loPI    C2 1890   6.808   2.425  10.937 -0.2278 -0.0682 -0.3441
  119loPI    C3 1891   6.712   2.129  11.188 -0.1007  0.0896 -0.1059
  119loPI   PO4 1892   7.153   2.097  10.691  0.0523  0.0559  0.0775
  119loPI   GL1 1893   7.308   2.138  10.169 -0.0868 -0.0137  0.0667
  119loPI   GL2 1894   7.628   2.168  10.075  0.0002  0.0315 -0.4444
  119loPI   C1A 1895   7.113   2.276   9.799  0.3380 -0.2753 -0.2874
  119loPI   C2A 1896   7.088   2.289   9.358 -0.0111  0.0734  0.0057
  119loPI   C3A 1897   7.088   2.360   8.979 -0.1180 -0.1786  0.2663
  119loPI   C4A 1898   7.163   2.436   8.432  0.1725 -0.0750 -0.2775
  119loPI   C5A 1899   7.500   2.556   8.072  0.2020  0.2542 -0.0352
  119loPI   C6A 1900   7.822   2.327   7.760 -0.0051 -0.1880  0.1644
  119loPI   C1B 1901   7.580   2.219   9.596  0.0918  0.2173 -0.2260
  119loPI   C2B 1902   7.555   2.219   9.232  0.2131  0.1444  0.2807
  119loPI   C3B 1903   7.706   2.185   8.748  0.0808 -0.2433  0.0747
  119loPI   C4B 1904   7.889   2.160   8.379 -0.0262 -0.0180  0.1921
  120loPI    C1 1905   7.722   0.285  10.987  0.1070 -0.0242 -0.2741
  120loPI    C2 1906   7.587   0.610  11.179 -0.2281 -0.3441  0.0485
  120loPI    C3 1907   7.937   0.446  11.284 -0.0925 -0.1341 -0.0674
  120loPI   PO4 1908   7.683   0.447  10.707 -0.1544 -0.0101 -0.0805
  120loPI   GL1 1909   7.710   0.720  10.230 -0.1657  0.3146 -0.0771
  120loPI   GL2 1910   8.007   0.473  10.176 -0.2423 -0.1080  0.0107
  120loPI   C1A 1911   7.649   0.704   9.868 -0.1342  0.0825 -0.1923
  120loPI   C2A 1912   7.542   0.794   9.510 -0.1208 -0.0094  0.0494
  120loPI   C3A 1913   7.475   0.676   9.104  0.3132 -0.1626  0.0981
  120loPI   C4A 1914   7.426   0.697   8.688  0.1169 -0.2054 -0.2487
  120loPI   C5A 1915   7.522   0.731   8.272  0.1205 -0.0786  0.1377
  120loPI   C6A 1916   7.426   0.482   7.956 -0.0170 -0.0286 -0.1400
  120loPI   C1B 1917   8.174   0.516   9.822  0.3718  0.3029 -0.1364
  120loPI   C2B 1918   8.064   0.535   9.363 -0.4178 -0.6747 -0.0726
  120loPI   C3B 1919   8.036   0.556   8.912  0.2673 -0.0742  0.3171
  120loPI   C4B 1920   8.012   0.501   8.425 -0.0122 -0.2779 -0.0095
  121loPI    C1 1921   3.475   6.501  10.180 -0.1358  0.1135 -0.0696
  121loPI    C2 1922   3.134   6.595  10.368  0.0286  0.2444  0.1685
  121loPI    C3 1923   3.309   6.242  10.437 -0.1254  0.1222 -0.0542
  121loPI   PO4 1924   3.434   6.494   9.920  0.0856 -0.0241 -0.0678
  121loPI   GL1 1925   3.481   6.602   9.550  0.1608 -0.2110  0.1829
  121loPI   GL2 1926   3.125   6.498   9.458  0.0073  0.0008  0.1265
  121loPI   C1A 1927   3.529   6.630   9.093  0.3068  0.0958  0.1177
  121loPI   C2A 1928   3.463   6.587   8.677  0.0984  0.2884  0.1045
  121loPI   C3A 1929   3.757   6.509   8.370  0.3262  0.0763  0.0761
  121loPI   C4A 1930   3.839   6.271   7.948 -0.1645 -0.0315  0.0268
  121loPI   C5A 1931   3.684   6.048   7.723  0.5305  0.1195 -0.0015
  121loPI   C6A 1932   3.339   5.824   7.651 -0.1425 -0.0332 -0.1776
  121loPI   C1B 1933   3.011   6.784   9.146 -0.2483 -0.0097  0.1777
  121loPI   C2B 1934   2.996   6.745   8.691  0.1111  0.4175 -0.3209
  121loPI   C3B 1935   2.937   6.838   8.277  0.1234 -0.0006 -0.0253
  121loPI   C4B 1936   2.551   6.977   8.039  0.0084 -0.0100 -0.2403
  122loPI    C1 1937  17.955  14.152   9.795 -0.2086 -0.0409  0.1983
  122loPI    C2 1938  17.834  14.530   9.743 -0.1227 -0.0212  0.1406
  122loPI    C3 1939  17.565  14.234   9.753 -0.1590 -0.0064 -0.2485
  122loPI   PO4 1940  18.201  14.138   9.526 -0.4196  0.1887 -0.1875
  122loPI   GL1 1941  18.251  13.820   9.187  0.1815 -0.1251 -0.2636
  122loPI   GL2 1942  18.375  13.547   9.092 -0.0701 -0.1703 -0.1266
  122loPI   C1A 1943  18.178  14.152   8.865 -0.2258  0.1695 -0.2832
  122loPI   C2A 1944  18.309  14.137   8.557 -0.0682  0.1604 -0.0129
  122loPI   C3A 1945  18.548  13.812   8.360 -0.1838 -0.0415 -0.1463
  122loPI   C4A 1946  18.605  13.629   7.936 -0.0903  0.2162  0.0239
  122loPI   C5A 1947  18.423  13.922   7.533  0.2443 -0.0875 -0.1193
  122loPI   C6A 1948  18.073  14.169   7.476  0.0920  0.0589  0.3844
  122loPI   C1B 1949  18.285  13.457   8.660 -0.0302 -0.2183 -0.2504
  122loPI   C2B 1950  18.208  13.388   8.306  0.0339 -0.3598  0.1180
  122loPI   C3B 1951  18.134  13.262   7.863  0.0441 -0.0291  0.0014
  122loPI   C4B 1952  18.234  13.317   7.377 -0.0435 -0.0940 -0.1821
  123loPI    C1 1953   4.342   8.087  10.340 -0.3144  0.1382  0.0112
  123loPI    C2 1954   4.230   8.428  10.516 -0.0893  0.1539  0.1281
  123loPI    C3 1955   4.210   8.084  10.718  0.1332  0.1663  0.1736
  123loPI   PO4 1956   4.539   8.164  10.106  0.1461  0.1384 -0.0054
  123loPI   GL1 1957   4.467   8.104   9.678 -0.0528  0.1980 -0.3169
  123loPI   GL2 1958   4.407   8.433   9.540 -0.2216  0.2280 -0.2084
  123loPI   C1A 1959   4.606   8.071   9.249 -0.0054  0.0689  0.1580
  123loPI   C2A 1960   4.672   8.106   8.805  0.3673  0.3177 -0.0406
  123loPI   C3A 1961   4.655   8.211   8.436  0.3861 -0.1060  0.1140
  123loPI   C4A 1962   4.695   8.167   7.987  0.1133  0.1559 -0.1522
  123loPI   C5A 1963   4.740   8.268   7.527  0.0290  0.1281 -0.1261
  123loPI   C6A 1964   4.437   8.256   7.242  0.1855  0.2353 -0.1357
  123loPI   C1B 1965   4.534   8.667   9.163 -0.1875  0.2228 -0.0652
  123loPI   C2B 1966   4.534   8.753   8.719  0.0721 -0.0050  0.4028
  123loPI   C3B 1967   4.571   8.696   8.289  0.1529  0.0189  0.0039
  123loPI   C4B 1968   4.552   8.688   7.777 -0.0802 -0.0213 -0.0553
  124loPI    C1 1969   4.992  11.188  10.243  0.0526  0.0264  0.0697
  124loPI    C2 1970   4.686  11.260  10.491  0.1648  0.0442  0.2045
  124loPI    C3 1971   4.923  10.943  10.552  0.1306 -0.0104  0.0584
  124loPI   PO4 1972   4.948  11.131   9.985  0.0327 -0.0756  0.1103
  124loPI   GL1 1973   4.673  11.233   9.632  0.1962  0.2685 -0.0959
  124loPI   GL2 1974   4.454  11.331   9.440 -0.2215  0.1659  0.4084
  124loPI   C1A 1975   4.905  10.983   9.263  0.2390  0.0097 -0.1925
  124loPI   C2A 1976   4.937  10.950   8.741  0.4234  0.0848 -0.2147
  124loPI   C3A 1977   4.928  11.068   8.301  0.2846  0.1725 -0.2817
  124loPI   C4A 1978   5.094  11.013   7.954 -0.3204  0.2863  0.2176
  124loPI   C5A 1979   5.340  10.889   7.536 -0.3169 -0.0245 -0.1668
  124loPI   C6A 1980   5.500  10.510   7.592  0.2177  0.3615  0.0065
  124loPI   C1B 1981   4.382  11.229   8.972 -0.0166  0.2758  0.0233
  124loPI   C2B 1982   4.497  11.158   8.622  0.0425  0.0917  0.1819
  124loPI   C3B 1983   4.444  11.127   8.175  0.0190 -0.3005 -0.3302
  124loPI   C4B 1984   4.572  11.057   7.741  0.0082 -0.0719 -0.0098
  125loPI    C1 1985  11.008   9.646  10.656  0.2227  0.0515 -0.1356
  125loPI    C2 1986  11.336   9.661  10.884  0.2087  0.0711 -0.1169
  125loPI    C3 1987  11.040   9.924  10.941  0.1750  0.0320 -0.1112
  125loPI   PO4 1988  10.936   9.439  10.626 -0.4175 -0.2274  0.2925
  125loPI   GL1 1989  10.640   9.346  10.197 -0.4445  0.0327 -0.1803
  125loPI   GL2 1990  10.738   8.989  10.259  0.0969 -0.0587  0.0499
  125loPI   C1A 1991  10.587   9.312   9.838 -0.1795  0.0562 -0.0128
  125loPI   C2A 1992  10.500   9.403   9.379  0.4143 -0.1656  0.1375
  125loPI   C3A 1993  10.284   9.402   9.041 -0.1690 -0.1149  0.0162
  125loPI   C4A 1994  10.401   9.308   8.652 -0.1064  0.0604  0.0522
  125loPI   C5A 1995  10.706   9.321   8.313 -0.0627 -0.0927 -0.0803
  125loPI   C6A 1996  11.026   9.231   8.162  0.0066  0.1678  0.1727
  125loPI   C1B 1997  10.666   8.799   9.811  0.1916  0.1604  0.2785
  125loPI   C2B 1998  10.556   8.877   9.369  0.1830  0.0687  0.2635
  125loPI   C3B 1999  10.639   8.812   8.933  0.2549 -0.0408 -0.2713
  125loPI   C4B 2000  10.648   8.829   8.477 -0.0024  0.0422 -0.1131
  126loPI    C1 2001   2.224  18.063  10.723  0.2726  0.1585  0.0672
  126loPI    C2 2002   2.390  18.293  11.004  0.0735  0.0479  0.2784
  126loPI    C3 2003   2.047  18.102  11.079 -0.1964  0.3362 -0.1774
  126loPI   PO4 2004   2.285  18.259  10.433  0.0937 -0.1817 -0.1659
  126loPI   GL1 2005   2.177  18.219  10.011  0.1374  0.2012  0.0360
  126loPI   GL2 2006   2.200  18.453   9.987  0.1335  0.1554 -0.0598
  126loPI   C1A 2007   2.408  18.146   9.619 -0.2147  0.1242 -0.2027
  126loPI   C2A 2008   2.563  18.348   9.269 -0.0102 -0.1001  0.1412
  126loPI   C3A 2009   2.610  18.345   8.797 -0.0052 -0.0788 -0.0754
  126loPI   C4A 2010   2.647  18.277   8.359 -0.0904  0.3054  0.0860
  126loPI   C5A 2011   2.791  18.152   8.006  0.0882 -0.2763  0.1190
  126loPI   C6A 2012   2.825  18.146   7.520  0.0465  0.0514  0.0497
  126loPI   C1B 2013   2.463  18.612   9.736  0.1995 -0.0318 -0.0963
  126loPI   C2B 2014   2.367  18.809   9.401 -0.2003  0.0962  0.1065
  126loPI   C3B 2015   2.548  18.868   9.084 -0.1620  0.1068  0.2802
  126loPI   C4B 2016   2.496  18.822   8.677 -0.0653  0.0377  0.2172
  127loPI    C1 2017   5.497  13.262  10.109 -0.2118 -0.0294  0.0014
  127loPI    C2 2018   5.697  13.217  10.452  0.3883 -0.1856 -0.3537
  127loPI    C3 2019   5.445  12.932  10.329  0.1050 -0.0909 -0.0123
  127loPI   PO4 2020   5.633  13.276   9.912 -0.2092 -0.1658 -0.1450
  127loPI   GL1 2021   5.657  12.974   9.641 -0.1205 -0.3558  0.1455
  127loPI   GL2 2022   5.930  12.719   9.706  0.1272 -0.3303  0.1093
  127loPI   C1A 2023   5.800  13.120   9.155 -0.4883 -0.2292  0.0255
  127loPI   C2A 2024   5.855  13.160   8.661  0.5238  0.0567 -0.0716
  127loPI   C3A 2025   5.806  13.067   8.175 -0.2230 -0.0013 -0.1246
  127loPI   C4A 2026   5.949  13.161   7.879 -0.2061  0.1138 -0.0213
  127loPI   C5A 2027   6.098  13.272   7.470 -0.2073  0.0489 -0.1556
  127loPI   C6A 2028   6.547  13.200   7.316 -0.4018  0.0842 -0.0778
  127loPI   C1B 2029   5.903  12.636   9.323 -0.0121  0.1484  0.0546
  127loPI   C2B 2030   6.035  12.693   8.866  0.0177  0.0598 -0.2289
  127loPI   C3B 2031   5.987  12.701   8.440  0.1625 -0.1007  0.2436
  127loPI   C4B 2032   6.067  12.608   8.049  0.0172 -0.1259  0.1196
  128loPI    C1 2033   0.503  16.725   9.846  0.0073 -0.1350  0.0428
  128loPI    C2 2034   0.190  16.631  10.077 -0.0965 -0.0811 -0.0741
  128loPI    C3 2035   0.421  16.944  10.170  0.0369 -0.2331  0.1171
  128loPI   PO4 2036   0.371  16.741   9.626 -0.1058 -0.2103 -0.1780
  128loPI   GL1 2037   0.289  16.695   9.192  0.2264 -0.0324 -0.1416
  128loPI   GL2 2038   0.350  16.997   9.207  0.2769  0.2371  0.0007
  128loPI   C1A 2039   0.638  16.750   8.910 -0.1545  0.2019  0.0438
  128loPI   C2A 2040   0.612  16.968   8.444 -0.2122 -0.2311  0.3595
  128loPI   C3A 2041   0.533  16.897   8.018 -0.0386  0.1028 -0.1173
  128loPI   C4A 2042   0.800  16.605   7.879 -0.2133  0.0539 -0.3527
  128loPI   C5A 2043   0.628  16.156   7.653  0.0098 -0.2442 -0.1787
  128loPI   C6A 2044   0.692  15.685   7.494  0.2291 -0.1544 -0.2235
  128loPI   C1B 2045   0.343  17.279   8.832 -0.1996 -0.1187  0.0929
  128loPI   C2B 2046   0.494  17.527   8.516  0.0407 -0.0264  0.5471
  128loPI   C3B 2047   0.489  17.342   8.132 -0.0193 -0.0109 -0.1342
  128loPI   C4B 2048   0.396  17.151   7.648  0.1237  0.1242 -0.0821
  129loPI    C1 2049   9.402   2.978  11.130 -0.1200 -0.0992  0.1117
  129loPI    C2 2050   9.311   3.244  11.415 -0.1162 -0.3529  0.3542
  129loPI    C3 2051   9.028   3.000  11.272 -0.2373  0.1002 -0.2179
  129loPI   PO4 2052   9.516   3.116  10.913 -0.3306  0.2935  0.3113
  129loPI   GL1 2053   9.470   3.192  10.515 -0.1240 -0.0074  0.1026
  129loPI   GL2 2054   9.303   2.898  10.414  0.4526 -0.1817  0.0322
  129loPI   C1A 2055   9.653   3.373  10.157  0.0847  0.0085  0.2771
  129loPI   C2A 2056   9.754   3.467   9.665 -0.1445  0.1944 -0.1242
  129loPI   C3A 2057   9.738   3.514   9.246 -0.1533  0.2232 -0.0106
  129loPI   C4A 2058   9.599   3.427   8.826 -0.1258  0.1328 -0.1421
  129loPI   C5A 2059   9.684   3.445   8.466 -0.0544  0.0338  0.3261
  129loPI   C6A 2060   9.919   3.348   8.043 -0.0575  0.0739 -0.1805
  129loPI   C1B 2061   9.390   3.061   9.922  0.4284  0.2480  0.0723
  129loPI   C2B 2062   9.330   3.058   9.496 -0.0251  0.0661 -0.0925
  129loPI   C3B 2063   9.266   3.085   9.109  0.1272 -0.3559  0.3300
  129loPI   C4B 2064   9.297   3.019   8.719  0.0256  0.0388  0.1705
  130loPI    C1 2065  12.959   6.450  11.138  0.2147 -0.1953 -0.0113
  130loPI    C2 2066  13.237   6.175  11.055  0.1853 -0.2318  0.0115
  130loPI    C3 2067  13.274   6.405  11.380  0.3211 -0.0616 -0.1229
  130loPI   PO4 2068  12.744   6.318  10.910  0.3198  0.0037 -0.1452
  130loPI   GL1 2069  12.660   6.241  10.420 -0.3270  0.1444 -0.3459
  130loPI   GL2 2070  12.485   5.983  10.455  0.2837 -0.0050  0.3374
  130loPI   C1A 2071  12.772   6.406  10.049 -0.0683  0.1815 -0.0220
  130loPI   C2A 2072  12.747   6.468   9.624 -0.1964 -0.0589 -0.0495
  130loPI   C3A 2073  12.672   6.387   9.205 -0.1153  0.3269  0.0963
  130loPI   C4A 2074  12.549   6.251   8.780 -0.1043 -0.1959  0.0021
  130loPI   C5A 2075  12.590   6.172   8.395  0.0293 -0.1201 -0.1373
  130loPI   C6A 2076  12.342   6.318   8.123  0.1264  0.5325 -0.0322
  130loPI   C1B 2077  12.402   6.016  10.039 -0.0795 -0.1013  0.1619
  130loPI   C2B 2078  12.330   6.018   9.698 -0.0336 -0.0687 -0.1200
  130loPI   C3B 2079  12.380   6.001   9.260 -0.0272  0.4788  0.3321
  130loPI   C4B 2080  12.208   5.929   8.847 -0.0139  0.0498  0.0286
  131loPI    C1 2081  13.112   5.607  10.901 -0.0674 -0.0710  0.1655
  131loPI    C2 2082  12.798   5.817  10.770 -0.0406 -0.0316  0.1640
  131loPI    C3 2083  12.887   5.814  11.159 -0.0113  0.0004  0.1575
  131loPI   PO4 2084  13.252   5.613  10.681 -0.0492 -0.0279 -0.0263
  131loPI   GL1 2085  13.257   5.874  10.371  0.1201  0.0380 -0.0121
  131loPI   GL2 2086  13.041   5.960  10.284  0.0394 -0.2326 -0.3220
  131loPI   C1A 2087  13.421   5.807   9.985  0.1674  0.0723  0.0448
  131loPI   C2A 2088  13.373   5.855   9.658 -0.2798  0.1786  0.3016
  131loPI   C3A 2089  13.323   5.720   9.324 -0.0593  0.4166 -0.1549
  131loPI   C4A 2090  13.206   5.625   8.852  0.2800  0.0965 -0.0906
  131loPI   C5A 2091  12.967   5.453   8.526  0.4233 -0.1240 -0.0597
  131loPI   C6A 2092  12.972   5.218   8.195  0.1059 -0.1143  0.2381
  131loPI   C1B 2093  12.922   5.941   9.953  0.3102 -0.2176 -0.0638
  131loPI   C2B 2094  12.891   5.987   9.563 -0.2192  0.4450  0.2055
  131loPI   C3B 2095  12.873   5.900   9.271 -0.2537 -0.2304  0.0133
  131loPI   C4B 2096  12.755   5.842   8.920 -0.0850 -0.3304 -0.1953
  132loPI    C1 2097   7.564  14.146  11.240 -0.0985 -0.1735 -0.1263
  132loPI    C2 2098   7.224  13.942  11.192 -0.2717  0.1011 -0.0856
  132loPI    C3 2099   7.335  14.064  11.557 -0.1725  0.0859 -0.1105
  132loPI   PO4 2100   7.792  13.970  11.074 -0.0987  0.1733  0.0176
  132loPI   GL1 2101   7.698  14.211  10.615 -0.1262  0.1627  0.0180
  132loPI   GL2 2102   8.005  14.222  10.496 -0.0116  0.0692 -0.0105
  132loPI   C1A 2103   7.648  14.043  10.113  0.1122 -0.0755  0.2537
  132loPI   C2A 2104   7.491  14.084   9.755  0.3639  0.0397 -0.1113
  132loPI   C3A 2105   7.506  14.077   9.300 -0.1363  0.0562  0.0993
  132loPI   C4A 2106   7.471  14.041   8.948 -0.4233  0.3798  0.0174
  132loPI   C5A 2107   7.520  14.119   8.596 -0.0346 -0.2030 -0.1469
  132loPI   C6A 2108   7.781  14.024   8.200  0.0652 -0.0665  0.3244
  132loPI   C1B 2109   8.176  14.200  10.102 -0.0823 -0.2150 -0.0202
  132loPI   C2B 2110   8.322  14.313   9.723 -0.0574  0.0656 -0.0640
  132loPI   C3B 2111   8.295  14.279   9.200  0.1507  0.4164  0.3272
  132loPI   C4B 2112   8.288  14.213   8.761 -0.1625  0.4355  0.1384
  133loPI    C1 2113  13.137   0.464  10.618 -0.0588 -0.1438 -0.1735
  133loPI    C2 2114  13.069   0.218  10.927  0.1159  0.1302  0.0892
  133loPI    C3 2115  12.874   0.566  10.901  0.0295  0.0655 -0.1651
  133loPI   PO4 2116  13.193   0.282  10.452  0.1120 -0.0504  0.0881
  133loPI   GL1 2117  13.340   0.365  10.079  0.2494  0.1495  0.0026
  133loPI   GL2 2118  13.443   0.004  10.077  0.1416  0.1357 -0.0247
  133loPI   C1A 2119  13.307   0.415   9.657 -0.0822 -0.0171 -0.1757
  133loPI   C2A 2120  13.292   0.422   9.203 -0.1627  0.0427 -0.1117
  133loPI   C3A 2121  13.147   0.571   8.731  0.0927 -0.0410 -0.2525
  133loPI   C4A 2122  13.130   0.466   8.213 -0.0041 -0.2196  0.0989
  133loPI   C5A 2123  13.272   0.185   7.951  0.0750 -0.0099 -0.0099
  133loPI   C6A 2124  13.392   0.019   7.617  0.1145  0.0913  0.0224
  133loPI   C1B 2125  13.547  -0.110   9.615  0.1350  0.0023 -0.3117
  133loPI   C2B 2126  13.382  -0.037   9.193 -0.3004  0.2526 -0.0343
  133loPI   C3B 2127  13.290  -0.015   8.844 -0.0088 -0.1461  0.1321
  133loPI   C4B 2128  13.253   0.060   8.454 -0.2207 -0.0311  0.1249
  134loPI    C1 2129  17.286  17.157  10.362  0.1788  0.1570  0.1489
  134loPI    C2 2130  16.962  17.310  10.539  0.0099 -0.1686  0.1292
  134loPI    C3 2131  17.235  17.114  10.756  0.1607  0.0435  0.1345
  134loPI   PO4 2132  17.192  17.133  10.153 -0.3162 -0.0059 -0.0108
  134loPI   GL1 2133  17.206  17.159   9.802 -0.1179  0.3027  0.2486
  134loPI   GL2 2134  17.037  17.378   9.734 -0.1472 -0.0313 -0.3312
  134loPI   C1A 2135  17.406  17.281   9.411 -0.0512  0.0272  0.0044
  134loPI   C2A 2136  17.445  17.435   8.935  0.0458  0.1546  0.1459
  134loPI   C3A 2137  17.629  17.409   8.588 -0.1460  0.0848  0.1153
  134loPI   C4A 2138  17.663  17.344   8.095  0.2406  0.2587 -0.2585
  134loPI   C5A 2139  17.493  17.588   7.722 -0.0693  0.1066 -0.2081
  134loPI   C6A 2140  17.264  17.660   7.400 -0.0467 -0.0578  0.3306
  134loPI   C1B 2141  16.922  17.309   9.429  0.2389  0.0318 -0.0543
  134loPI   C2B 2142  16.968  17.501   9.073 -0.0629  0.0393  0.0597
  134loPI   C3B 2143  16.929  17.639   8.699 -0.0815 -0.0054 -0.1357
  134loPI   C4B 2144  17.169  17.440   8.382 -0.0613  0.2554 -0.1213
  135loPI    C1 2145  14.931  11.182  10.700 -0.0680 -0.0552  0.1613
  135loPI    C2 2146  14.701  11.449  10.890  0.1743  0.2787 -0.0035
  135loPI    C3 2147  14.943  11.207  11.099 -0.1410  0.0934  0.1548
  135loPI   PO4 2148  14.791  11.321  10.390  0.0363 -0.1608  0.0190
  135loPI   GL1 2149  14.763  11.175   9.987 -0.5015  0.2362  0.1416
  135loPI   GL2 2150  15.085  10.953   9.887 -0.0126  0.1608 -0.2132
  135loPI   C1A 2151  14.666  11.343   9.640  0.2194 -0.0241 -0.0059
  135loPI   C2A 2152  14.576  11.470   9.245 -0.1747  0.0025 -0.2023
  135loPI   C3A 2153  14.642  11.400   8.823 -0.0460  0.0160 -0.2159
  135loPI   C4A 2154  14.536  11.462   8.368  0.0549 -0.0909 -0.0469
  135loPI   C5A 2155  14.180  11.759   8.242 -0.1324  0.2155  0.3663
  135loPI   C6A 2156  13.891  11.868   8.022 -0.1486 -0.1939 -0.1122
  135loPI   C1B 2157  14.888  10.886   9.481  0.0926 -0.0440  0.1298
  135loPI   C2B 2158  14.709  10.924   9.133 -0.1245 -0.1072  0.3758
  135loPI   C3B 2159  14.853  10.832   8.717  0.2442  0.1427 -0.0379
  135loPI   C4B 2160  14.742  10.900   8.361  0.1473 -0.0392 -0.0414
  136loPI    C1 2161  10.531  13.378  11.001 -0.2056 -0.0293  0.2047
  136loPI    C2 2162  10.263  13.249  11.270  0.0680 -0.1693  0.4154
  136loPI    C3 2163  10.634  13.342  11.386  0.2091 -0.2902  0.0751
  136loPI   PO4 2164  10.482  13.290  10.731  0.0333  0.1460 -0.0287
  136loPI   GL1 2165  10.729  13.322  10.393 -0.0869  0.0262  0.3232
  136loPI   GL2 2166  10.564  13.548  10.252 -0.0813  0.0269 -0.1062
  136loPI   C1A 2167  10.899  13.469   9.894  0.2640  0.0295 -0.2697
  136loPI   C2A 2168  10.881  13.515   9.451 -0.0961  0.1763 -0.1199
  136loPI   C3A 2169  10.846  13.383   9.065 -0.0414  0.1948 -0.2674
  136loPI   C4A 2170  10.878  13.441   8.598  0.1391 -0.1118  0.1842
  136loPI   C5A 2171  10.841  13.203   8.388 -0.1395 -0.0842 -0.0344
  136loPI   C6A 2172  10.696  13.082   7.987 -0.2369  0.0209 -0.1753
  136loPI   C1B 2173  10.463  13.676   9.796  0.2321 -0.0636  0.3729
  136loPI   C2B 2174  10.383  13.719   9.366  0.3395 -0.2963 -0.0717
  136loPI   C3B 2175  10.345  13.520   9.029 -0.0956 -0.1443  0.1332
  136loPI   C4B 2176  10.229  13.542   8.616  0.0128 -0.2832 -0.2396
  137loPI    C1 2177   1.000  11.884   9.919  0.0961 -0.2025 -0.0620
  137loPI    C2 2178   0.789  11.747  10.230  0.2224 -0.1877  0.0310
  137loPI    C3 2179   1.044  12.052  10.279  0.1602 -0.1117 -0.1118
  137loPI   PO4 2180   0.820  11.765   9.740  0.3445 -0.2175  0.1937
  137loPI   GL1 2181   0.773  11.946   9.393  0.2985  0.1062 -0.1761
  137loPI   GL2 2182   0.903  11.636   9.249 -0.1723 -0.1976 -0.3117
  137loPI   C1A 2183   0.580  12.171   9.074  0.0788 -0.0106 -0.3142
  137loPI   C2A 2184   0.525  12.246   8.575  0.1081 -0.0355 -0.0747
  137loPI   C3A 2185   0.467  12.306   8.190 -0.2243 -0.0523  0.2410
  137loPI   C4A 2186   0.192  12.559   7.877 -0.1015 -0.2502  0.1761
  137loPI   C5A 2187  -0.246  12.750   7.719  0.2474 -0.1951  0.0462
  137loPI   C6A 2188  -0.532  12.878   7.387  0.4135  0.0306 -0.1095
  137loPI   C1B 2189   0.825  11.858   8.797 -0.0888 -0.1632 -0.1850
  137loPI   C2B 2190   0.860  11.934   8.389 -0.2942 -0.0777 -0.4927
  137loPI   C3B 2191   0.708  11.888   7.925  0.2183 -0.0999 -0.1072
  137loPI   C4B 2192   0.409  11.780   7.603 -0.0448  0.0933 -0.0687
  138loPI    C1 2193  18.268   6.499   9.698 -0.1169  0.0055 -0.0960
  138loPI    C2 2194  18.054   6.443  10.031  0.1251 -0.2626  0.0188
  138loPI    C3 2195  18.423   6.595  10.055  0.0305  0.0024 -0.1586
  138loPI   PO4 2196  18.282   6.266   9.588 -0.3171 -0.0370 -0.0301
  138loPI   GL1 2197  18.325   6.066   9.165  0.1333 -0.2192  0.0940
  138loPI   GL2 2198  17.966   5.877   9.325 -0.1816 -0.0118  0.0822
  138loPI   C1A 2199  18.203   5.964   8.761 -0.0698 -0.1600 -0.2341
  138loPI   C2A 2200  18.191   6.113   8.399 -0.0841 -0.1264 -0.3740
  138loPI   C3A 2201  18.096   6.427   8.104 -0.0930  0.0414 -0.1372
  138loPI   C4A 2202  17.990   6.617   7.687 -0.2534  0.0214 -0.2334
  138loPI   C5A 2203  17.637   6.617   7.441 -0.1454 -0.1191  0.0356
  138loPI   C6A 2204  17.396   6.750   7.429 -0.0012 -0.2511 -0.0905
  138loPI   C1B 2205  17.721   5.799   8.891  0.0971 -0.0553  0.2387
  138loPI   C2B 2206  17.827   5.696   8.512 -0.0436 -0.2545  0.0367
  138loPI   C3B 2207  17.845   5.904   8.055 -0.0470 -0.1694 -0.1292
  138loPI   C4B 2208  17.743   6.180   7.677  0.0606  0.1126 -0.1938
  139loPI    C1 2209   6.295   4.473  10.694 -0.2074 -0.1084 -0.0963
  139loPI    C2 2210   6.608   4.242  10.787 -0.1166  0.1081  0.1467
  139loPI    C3 2211   6.289   4.253  11.028 -0.2679 -0.0272 -0.0436
  139loPI   PO4 2212   6.336   4.469  10.425 -0.1833 -0.0792 -0.0469
  139loPI   GL1 2213   6.123   4.463  10.068  0.1618 -0.2919  0.2255
  139loPI   GL2 2214   6.139   4.761  10.070 -0.0812 -0.2331  0.1062
  139loPI   C1A 2215   6.201   4.472   9.552  0.1069 -0.0415 -0.0583
  139loPI   C2A 2216   6.146   4.572   9.140  0.0016  0.1923  0.0286
  139loPI   C3A 2217   6.119   4.506   8.691  0.0960  0.1067 -0.1842
  139loPI   C4A 2218   6.188   4.501   8.230  0.3048 -0.2742 -0.0613
  139loPI   C5A 2219   6.396   4.248   8.042 -0.0271 -0.1213 -0.3167
  139loPI   C6A 2220   6.559   4.053   7.689  0.2569  0.2246 -0.3866
  139loPI   C1B 2221   6.454   4.832   9.779 -0.0509  0.0300 -0.1917
  139loPI   C2B 2222   6.532   4.833   9.417  0.1879  0.0214  0.0559
  139loPI   C3B 2223   6.555   4.863   8.973 -0.1168  0.2902 -0.2892
  139loPI   C4B 2224   6.515   4.807   8.521 -0.2748 -0.0051 -0.0081
  140loPI    C1 2225  11.478   8.490  10.730  0.0684 -0.1300  0.0731
  140loPI    C2 2226  11.514   8.714  11.060 -0.3684 -0.1928  0.1700
  140loPI    C3 2227  11.555   8.316  11.082 -0.0605 -0.1688  0.0827
  140loPI   PO4 2228  11.471   8.713  10.579 -0.1313  0.0524 -0.0949
  140loPI   GL1 2229  11.490   8.629  10.191  0.1845 -0.1342  0.1582
  140loPI   GL2 2230  11.099   8.618  10.144 -0.0129 -0.1029 -0.1361
  140loPI   C1A 2231  11.738   8.536   9.752  0.2596 -0.0862  0.1790
  140loPI   C2A 2232  11.765   8.575   9.481  0.0693 -0.1635 -0.2389
  140loPI   C3A 2233  11.528   8.601   9.053  0.1120 -0.3215  0.2250
  140loPI   C4A 2234  11.596   8.572   8.603  0.1375  0.1184 -0.0617
  140loPI   C5A 2235  11.542   8.450   8.172  0.2730  0.0701  0.0091
  140loPI   C6A 2236  11.508   8.568   7.764 -0.1913 -0.0223 -0.4208
  140loPI   C1B 2237  11.148   8.673   9.697 -0.0902  0.1605  0.1873
  140loPI   C2B 2238  11.000   8.669   9.308  0.2203 -0.1805 -0.0062
  140loPI   C3B 2239  11.118   8.668   8.794  0.0542 -0.0280 -0.0627
  140loPI   C4B 2240  11.190   8.764   8.322  0.2538 -0.3915  0.2619
  141loPI    C1 2241  14.020   1.611  10.974  0.0304 -0.2286 -0.0321
  141loPI    C2 2242  13.659   1.446  11.022 -0.0094 -0.1766 -0.1507
  141loPI    C3 2243  13.838   1.627  11.330 -0.2877  0.2046 -0.2060
  141loPI   PO4 2244  14.137   1.542  10.705  0.0525  0.2284  0.0536
  141loPI   GL1 2245  14.153   1.473  10.386  0.0667  0.4647 -0.2725
  141loPI   GL2 2246  13.859   1.531  10.220 -0.2110 -0.1554  0.0931
  141loPI   C1A 2247  14.251   1.302   9.928 -0.2156  0.2192 -0.1647
  141loPI   C2A 2248  13.993   1.292   9.522 -0.0082 -0.1161  0.0695
  141loPI   C3A 2249  13.984   1.208   9.101 -0.1847 -0.0320 -0.0032
  141loPI   C4A 2250  13.991   1.235   8.730  0.1026  0.1096  0.1919
  141loPI   C5A 2251  13.903   1.225   8.368  0.2226 -0.0807 -0.2657
  141loPI   C6A 2252  13.626   1.180   8.067 -0.0556  0.0597 -0.2082
  141loPI   C1B 2253  13.905   1.694   9.848  0.0786  0.2077 -0.1177
  141loPI   C2B 2254  13.887   1.781   9.424 -0.2444  0.4178 -0.2025
  141loPI   C3B 2255  13.808   1.682   8.938  0.2366 -0.0424  0.2206
  141loPI   C4B 2256  13.750   1.676   8.490 -0.0441 -0.0942  0.1697
  142loPI    C1 2257   0.574   0.862  10.204  0.1915  0.2123 -0.0702
  142loPI    C2 2258   0.369   0.745  10.527  0.1245 -0.1098 -0.2257
  142loPI    C3 2259   0.714   0.566  10.434  0.1517 -0.0075 -0.3237
  142loPI   PO4 2260   0.334   0.839  10.042 -0.4068 -0.0358  0.3332
  142loPI   GL1 2261   0.429   0.708   9.599 -0.0290 -0.0702 -0.2621
  142loPI   GL2 2262   0.709   0.687   9.583 -0.1224 -0.4328  0.1066
  142loPI   C1A 2263   0.370   0.767   9.127 -0.0786 -0.1345 -0.0652
  142loPI   C2A 2264   0.301   0.867   8.697 -0.3548 -0.0675  0.1371
  142loPI   C3A 2265   0.247   1.157   8.290  0.0226 -0.1760 -0.0491
  142loPI   C4A 2266   0.077   1.344   7.860 -0.1893 -0.1836  0.1418
  142loPI   C5A 2267  -0.064   1.111   7.528  0.1188  0.2706  0.0612
  142loPI   C6A 2268   0.043   0.640   7.500  0.1708 -0.2736 -0.1387
  142loPI   C1B 2269   0.858   0.633   9.205  0.2200  0.0334 -0.0331
  142loPI   C2B 2270   0.914   0.656   8.843  0.1862  0.1918 -0.0621
  142loPI   C3B 2271   0.947   0.550   8.487 -0.0225  0.1393 -0.0254
  142loPI   C4B 2272   0.704   0.797   8.135 -0.1443  0.1789 -0.1422
  143loPI    C1 2273  15.241  15.639  10.468 -0.0011  0.2199 -0.0444
  143loPI    C2 2274  15.314  15.298  10.665  0.1013  0.0763 -0.3255
  143loPI    C3 2275  14.944  15.448  10.655  0.1224  0.1715  0.1056
  143loPI   PO4 2276  15.338  15.647  10.207 -0.1313  0.0266 -0.1016
  143loPI   GL1 2277  15.151  15.779   9.796  0.1774  0.0632  0.0377
  143loPI   GL2 2278  15.073  15.462   9.813 -0.0256  0.0286 -0.0900
  143loPI   C1A 2279  15.389  15.926   9.493  0.0845  0.2019  0.0928
  143loPI   C2A 2280  15.384  15.961   9.134  0.0299  0.0252 -0.0568
  143loPI   C3A 2281  15.416  15.993   8.694 -0.1102 -0.1312  0.2510
  143loPI   C4A 2282  15.319  16.107   8.315 -0.1808 -0.0059  0.1284
  143loPI   C5A 2283  15.325  16.151   7.833  0.1599 -0.1153 -0.0435
  143loPI   C6A 2284  15.427  16.217   7.497  0.2358  0.3176  0.3485
  143loPI   C1B 2285  15.086  15.571   9.355 -0.0828 -0.1594 -0.0303
  143loPI   C2B 2286  15.006  15.586   8.938 -0.0375 -0.0280  0.0757
  143loPI   C3B 2287  14.990  15.764   8.525 -0.3155 -0.0112  0.3410
  143loPI   C4B 2288  14.920  15.738   8.073 -0.3659  0.0511 -0.0815
  144loPI    C1 2289  15.259   3.415  10.749  0.1056  0.2356  0.0396
  144loPI    C2 2290  15.257   3.674  11.053 -0.0213  0.1070  0.1497
  144loPI    C3 2291  15.180   3.287  11.120  0.1136  0.0495 -0.0216
  144loPI   PO4 2292  15.428   3.465  10.582 -0.0541 -0.0941 -0.1535
  144loPI   GL1 2293  15.646   3.456  10.187 -0.1980 -0.0042  0.0907
  144loPI   GL2 2294  15.308   3.450  10.124 -0.0190  0.0010  0.2602
  144loPI   C1A 2295  15.546   3.443   9.700  0.0720  0.0379  0.1621
  144loPI   C2A 2296  15.389   3.319   9.355  0.1593 -0.1624 -0.2847
  144loPI   C3A 2297  15.339   3.268   8.950 -0.0468  0.1558 -0.0089
  144loPI   C4A 2298  15.287   3.222   8.494 -0.1995 -0.2664  0.0548
  144loPI   C5A 2299  15.496   3.161   8.112 -0.0547 -0.0287  0.0020
  144loPI   C6A 2300  15.525   2.829   7.795  0.1250  0.0361  0.1812
  144loPI   C1B 2301  14.932   3.398   9.769 -0.3109 -0.0017  0.1649
  144loPI   C2B 2302  14.854   3.464   9.418 -0.1695 -0.2705 -0.1601
  144loPI   C3B 2303  14.867   3.358   8.948  0.2825 -0.2677 -0.2472
  144loPI   C4B 2304  14.839   3.424   8.539  0.0694  0.1280 -0.2653
  145loPI    C1 2305   3.402   9.499  10.119 -0.1176 -0.0152  0.2685
  145loPI    C2 2306   3.024   9.390  10.193 -0.1675  0.0074  0.0541
  145loPI    C3 2307   3.320   9.260  10.430 -0.2912 -0.1357  0.1320
  145loPI   PO4 2308   3.407   9.457   9.774  0.3718  0.0837 -0.1133
  145loPI   GL1 2309   3.440   9.392   9.284 -0.0868 -0.2335  0.1623
  145loPI   GL2 2310   3.531   9.074   9.429 -0.2817  0.0255  0.1102
  145loPI   C1A 2311   3.324   9.497   8.875  0.0938  0.0313  0.0645
  145loPI   C2A 2312   3.461   9.409   8.443 -0.1021  0.1127  0.3124
  145loPI   C3A 2313   3.217   9.264   8.145 -0.2027 -0.0834 -0.0283
  145loPI   C4A 2314   3.171   9.366   7.738 -0.1236  0.5167  0.0622
  145loPI   C5A 2315   3.404   9.266   7.417  0.2157 -0.4153 -0.1888
  145loPI   C6A 2316   3.402   9.132   7.007  0.0774 -0.1063 -0.1023
  145loPI   C1B 2317   3.411   8.987   8.998 -0.0816 -0.0084 -0.0421
  145loPI   C2B 2318   3.411   8.931   8.593 -0.3247  0.2252 -0.2887
  145loPI   C3B 2319   3.605   8.955   8.274 -0.1382  0.1065  0.2406
  145loPI   C4B 2320   3.573   9.000   7.882  0.2430  0.0858 -0.0317
  146loPI    C1 2321   5.994  16.725  10.927  0.0019  0.3309  0.1123
  146loPI    C2 2322   6.014  16.557  11.290  0.3155  0.0064 -0.0481
  146loPI    C3 2323   6.247  16.870  11.201  0.0329  0.2698  0.1163
  146loPI   PO4 2324   6.070  16.501  10.727 -0.1117  0.0874  0.1303
  146loPI   GL1 2325   6.167  16.631  10.366 -0.4533 -0.2259  0.2970
  146loPI   GL2 2326   5.969  16.477  10.197  0.0942 -0.0560 -0.2610
  146loPI   C1A 2327   6.507  16.589  10.022  0.1333  0.1619 -0.0444
  146loPI   C2A 2328   6.635  16.670   9.632 -0.0427  0.2960 -0.3682
  146loPI   C3A 2329   6.798  16.699   9.228  0.1114  0.3354  0.1204
  146loPI   C4A 2330   6.873  16.650   8.907  0.0491 -0.2210 -0.0505
  146loPI   C5A 2331   6.833  16.617   8.469  0.2273 -0.0162 -0.1280
  146loPI   C6A 2332   6.754  16.516   7.990  0.3724  0.2139 -0.1139
  146loPI   C1B 2333   6.056  16.660   9.802 -0.1666 -0.1300  0.1824
  146loPI   C2B 2334   6.210  16.777   9.346 -0.0518 -0.1555  0.0103
  146loPI   C3B 2335   6.356  16.771   8.948 -0.0709  0.0106  0.1256
  146loPI   C4B 2336   6.137  16.741   8.560  0.1918  0.1595  0.0202
  147loPI    C1 2337  10.624   3.248  11.401 -0.1076 -0.0413 -0.1914
  147loPI    C2 2338  10.839   2.933  11.522 -0.1439  0.0217  0.0436
  147loPI    C3 2339  10.616   3.135  11.785 -0.0598  0.2927 -0.0890
  147loPI   PO4 2340  10.840   3.204  11.156 -0.0625  0.0429 -0.2511
  147loPI   GL1 2341  10.827   3.342  10.735  0.2678  0.2129  0.0774
  147loPI   GL2 2342  10.755   3.470  10.457 -0.0048  0.1183  0.0009
  147loPI   C1A 2343  11.201   3.201  10.440 -0.0215  0.1593 -0.0098
  147loPI   C2A 2344  11.412   3.034  10.065  0.1496  0.3279 -0.0756
  147loPI   C3A 2345  11.350   2.869   9.648  0.3814 -0.0236 -0.0902
  147loPI   C4A 2346  11.291   2.982   9.242 -0.3155  0.3465  0.2650
  147loPI   C5A 2347  11.090   2.997   8.819 -0.0911  0.0738 -0.2052
  147loPI   C6A 2348  11.144   2.910   8.359  0.0714  0.0778 -0.0344
  147loPI   C1B 2349  10.519   3.643  10.123  0.1547  0.0798 -0.2023
  147loPI   C2B 2350  10.536   3.724   9.632 -0.1232  0.1803 -0.0207
  147loPI   C3B 2351  10.633   3.626   9.243 -0.1234 -0.2066 -0.0515
  147loPI   C4B 2352  10.457   3.593   8.809  0.1522  0.1044  0.2329
  148loPI    C1 2353  11.794  13.396  10.846 -0.0043 -0.1135 -0.0697
  148loPI    C2 2354  11.469  13.230  11.009 -0.0124  0.3154  0.3744
  148loPI    C3 2355  11.444  13.589  10.836  0.1351  0.1469 -0.0072
  148loPI   PO4 2356  11.985  13.153  10.766  0.1536  0.2939 -0.1691
  148loPI   GL1 2357  12.046  13.026  10.336 -0.0763 -0.0573  0.0419
  148loPI   GL2 2358  12.369  13.027  10.198  0.2345 -0.0294 -0.1302
  148loPI   C1A 2359  11.904  13.120   9.946 -0.2272  0.3130 -0.0084
  148loPI   C2A 2360  11.905  13.176   9.463 -0.0471 -0.3081  0.2240
  148loPI   C3A 2361  11.885  13.248   9.104 -0.5691 -0.1292  0.1953
  148loPI   C4A 2362  11.799  13.363   8.690 -0.1402 -0.0365  0.2488
  148loPI   C5A 2363  11.813  13.401   8.277 -0.1508 -0.3084  0.1453
  148loPI   C6A 2364  11.606  13.398   7.793 -0.0845 -0.0754 -0.1380
  148loPI   C1B 2365  12.400  13.041   9.722  0.1717 -0.1054  0.1443
  148loPI   C2B 2366  12.370  13.007   9.257  0.0440  0.1075  0.0709
  148loPI   C3B 2367  12.419  13.153   8.890 -0.1305 -0.1006 -0.0026
  148loPI   C4B 2368  12.247  13.048   8.467  0.0719  0.0727 -0.2795
  149loPI    C1 2369   3.043   6.128  10.060 -0.1037  0.1545  0.0289
  149loPI    C2 2370   2.737   6.274  10.273 -0.1494 -0.1629  0.1881
  149loPI    C3 2371   2.889   5.915  10.362  0.0241 -0.1725 -0.1315
  149loPI   PO4 2372   2.960   6.127   9.790 -0.2753  0.1852  0.2729
  149loPI   GL1 2373   3.015   6.069   9.308 -0.2803  0.0405 -0.1815
  149loPI   GL2 2374   2.703   6.315   9.292  0.3337  0.2028 -0.0991
  149loPI   C1A 2375   3.081   6.311   8.914 -0.0831 -0.2581  0.0369
  149loPI   C2A 2376   3.129   6.308   8.478  0.1087 -0.0388 -0.3716
  149loPI   C3A 2377   3.308   6.531   8.171  0.2440  0.0267 -0.1014
  149loPI   C4A 2378   3.222   6.853   7.731  0.2872 -0.2664 -0.1421
  149loPI   C5A 2379   3.357   7.325   7.548 -0.0195 -0.1392 -0.2786
  149loPI   C6A 2380   3.674   7.585   7.744 -0.0762  0.0923 -0.0396
  149loPI   C1B 2381   2.608   6.381   8.926 -0.0686 -0.1388  0.0832
  149loPI   C2B 2382   2.632   6.403   8.528 -0.0111 -0.1511 -0.1089
  149loPI   C3B 2383   2.755   6.382   8.049 -0.0806 -0.0127 -0.0317
  149loPI   C4B 2384   2.864   6.219   7.664  0.2246 -0.0611 -0.2746
  150loPI    C1 2385  14.472   4.066  10.586  0.0324 -0.0365  0.0132
  150loPI    C2 2386  14.375   3.801  10.869  0.0532  0.0741  0.1246
  150loPI    C3 2387  14.255   4.181  10.902  0.0752  0.0924 -0.0038
  150loPI   PO4 2388  14.503   3.840  10.372 -0.1072 -0.0296 -0.0775
  150loPI   GL1 2389  14.254   3.692  10.097 -0.2492  0.1920 -0.0037
  150loPI   GL2 2390  14.556   3.480  10.006 -0.1657 -0.1756 -0.2823
  150loPI   C1A 2391  13.976   3.709   9.824  0.1000 -0.3588  0.1461
  150loPI   C2A 2392  13.911   3.640   9.477 -0.1895 -0.1551 -0.1193
  150loPI   C3A 2393  13.959   3.595   9.087 -0.2848 -0.1740 -0.0886
  150loPI   C4A 2394  13.746   3.608   8.598 -0.2430 -0.0572  0.0643
  150loPI   C5A 2395  13.410   3.455   8.318 -0.2585 -0.0351 -0.0786
  150loPI   C6A 2396  13.400   3.533   7.872  0.0204  0.1084 -0.0740
  150loPI   C1B 2397  14.396   3.604   9.606  0.0596 -0.0935  0.2625
  150loPI   C2B 2398  14.398   3.482   9.215  0.0025  0.0398 -0.1713
  150loPI   C3B 2399  14.262   3.412   8.767 -0.1479  0.0601  0.1128
  150loPI   C4B 2400  14.364   3.217   8.392 -0.1786 -0.1547  0.0455
  151loPI    C1 2401  12.293   8.906  11.028 -0.1789  0.0646  0.3789
  151loPI    C2 2402  11.976   8.795  10.810  0.1525 -0.0262 -0.0704
  151loPI    C3 2403  12.054   8.612  11.158 -0.3141  0.0367  0.0744
  151loPI   PO4 2404  12.445   9.040  10.828  0.0526  0.2939  0.2095
  151loPI   GL1 2405  12.508   9.226  10.391 -0.1023  0.1729 -0.0312
  151loPI   GL2 2406  12.723   9.407  10.336  0.0103 -0.1280 -0.0878
  151loPI   C1A 2407  12.303   8.985  10.048 -0.0758 -0.1496 -0.0329
  151loPI   C2A 2408  12.134   8.822   9.774  0.2423  0.1563 -0.0553
  151loPI   C3A 2409  12.129   8.957   9.420 -0.2751  0.1160  0.5235
  151loPI   C4A 2410  11.989   8.930   9.078  0.0529  0.1322 -0.0999
  151loPI   C5A 2411  11.941   8.928   8.580 -0.1228  0.2072 -0.1213
  151loPI   C6A 2412  11.897   8.809   8.095  0.0735 -0.1578 -0.0518
  151loPI   C1B 2413  12.892   9.620   9.881  0.1245  0.0855 -0.0597
  151loPI   C2B 2414  12.961   9.622   9.556  0.0157 -0.0194  0.0340
  151loPI   C3B 2415  12.836   9.681   9.171 -0.1930 -0.3316  0.0433
  151loPI   C4B 2416  12.738   9.596   8.823 -0.0594 -0.0826 -0.1409
  152loPI    C1 2417   8.984  13.517  11.177  0.0354  0.0715 -0.1258
  152loPI    C2 2418   9.313  13.705  11.306 -0.1395  0.1941  0.1520
  152loPI    C3 2419   9.020  13.616  11.563 -0.1703 -0.2373 -0.0237
  152loPI   PO4 2420   8.946  13.652  10.959 -0.1422 -0.3337  0.0269
  152loPI   GL1 2421   9.128  13.582  10.412  0.1805 -0.0593  0.0103
  152loPI   GL2 2422   9.101  14.009  10.443 -0.0589 -0.0232 -0.2795
  152loPI   C1A 2423   8.949  13.649  10.099  0.2133  0.0751 -0.0865
  152loPI   C2A 2424   8.918  13.697   9.641  0.1618 -0.2572 -0.1412
  152loPI   C3A 2425   8.874  13.580   9.236  0.1979  0.0625 -0.1624
  152loPI   C4A 2426   8.906  13.661   8.698 -0.0806 -0.1377  0.2037
  152loPI   C5A 2427   9.123  13.749   8.368  0.2502 -0.1646 -0.0988
  152loPI   C6A 2428   9.315  14.072   8.202  0.0732  0.2845  0.0836
  152loPI   C1B 2429   9.354  13.942   9.944  0.3281  0.4290  0.2796
  152loPI   C2B 2430   9.329  14.021   9.559 -0.1543  0.0556  0.2732
  152loPI   C3B 2431   9.403  14.030   9.198  0.0815  0.0542 -0.0096
  152loPI   C4B 2432   9.333  14.099   8.705 -0.1275  0.2875 -0.0505
  153loPI    C1 2433   7.184  17.081  10.957  0.2150  0.0629 -0.0325
  153loPI    C2 2434   7.014  17.421  11.082 -0.1724 -0.1617  0.0685
  153loPI    C3 2435   7.024  17.102  11.323  0.2741 -0.1984  0.0101
  153loPI   PO4 2436   7.047  17.038  10.617  0.0809 -0.2118  0.1856
  153loPI   GL1 2437   6.762  16.984  10.359 -0.2000  0.0741  0.1536
  153loPI   GL2 2438   6.556  17.038  10.227  0.3726  0.4404 -0.0100
  153loPI   C1A 2439   6.966  16.995   9.937 -0.1596  0.0842  0.1349
  153loPI   C2A 2440   7.127  16.936   9.512  0.1856 -0.1219 -0.0461
  153loPI   C3A 2441   7.195  16.996   9.040 -0.0225 -0.1662  0.0757
  153loPI   C4A 2442   7.255  16.936   8.672 -0.0893  0.1312  0.3496
  153loPI   C5A 2443   7.074  17.073   8.344  0.2162  0.2868 -0.2142
  153loPI   C6A 2444   7.183  17.314   7.860 -0.0477 -0.3924  0.2952
  153loPI   C1B 2445   6.568  17.136   9.674  0.1994  0.0486  0.2748
  153loPI   C2B 2446   6.657  17.170   9.156 -0.0478  0.0796 -0.2169
  153loPI   C3B 2447   6.722  17.045   8.707 -0.2341  0.0405 -0.1751
  153loPI   C4B 2448   6.565  17.071   8.228 -0.0599 -0.0120  0.1107
  154loPI    C1 2449  14.322  10.342  10.713  0.2037  0.0704 -0.2409
  154loPI    C2 2450  14.064  10.345  10.407 -0.2122 -0.0230  0.0994
  154loPI    C3 2451  14.098  10.020  10.637  0.2212 -0.0145  0.0555
  154loPI   PO4 2452  14.529  10.441  10.597 -0.1058 -0.0353  0.0186
  154loPI   GL1 2453  14.496  10.489  10.141 -0.2139 -0.3995  0.0903
  154loPI   GL2 2454  14.485  10.783  10.178  0.0271  0.1062 -0.2202
  154loPI   C1A 2455  14.505  10.488   9.641 -0.1230 -0.1438  0.1975
  154loPI   C2A 2456  14.444  10.516   9.243 -0.0413  0.1083 -0.0350
  154loPI   C3A 2457  14.373  10.589   8.804 -0.4256 -0.0298  0.0993
  154loPI   C4A 2458  14.312  10.495   8.370 -0.0522 -0.0047  0.3781
  154loPI   C5A 2459  14.267  10.361   7.913 -0.1418  0.2703 -0.1054
  154loPI   C6A 2460  14.188  10.717   7.586 -0.2791 -0.0058 -0.0719
  154loPI   C1B 2461  14.299  11.024   9.825 -0.5351 -0.3083 -0.0952
  154loPI   C2B 2462  14.278  11.125   9.415 -0.0109 -0.0339  0.3869
  154loPI   C3B 2463  14.237  11.156   9.009 -0.0342 -0.2974 -0.1114
  154loPI   C4B 2464  14.298  11.049   8.659  0.1120 -0.3724  0.1780
  155loPI    C1 2465   0.305  18.262  10.177 -0.1502 -0.1679 -0.1390
  155loPI    C2 2466  -0.010  18.020  10.228 -0.2153 -0.0677 -0.0618
  155loPI    C3 2467   0.313  17.980  10.460 -0.2468 -0.0467 -0.0144
  155loPI   PO4 2468   0.364  18.245   9.901 -0.2869  0.1884  0.0617
  155loPI   GL1 2469   0.509  18.342   9.453 -0.1109  0.0400  0.0348
  155loPI   GL2 2470   0.707  18.687   9.531  0.1635  0.3773 -0.1653
  155loPI   C1A 2471   0.390  18.254   9.145  0.0399  0.1735  0.2208
  155loPI   C2A 2472   0.511  18.404   8.772 -0.2232  0.0442  0.0235
  155loPI   C3A 2473   0.662  18.594   8.448  0.1156  0.1787  0.2340
  155loPI   C4A 2474   0.745  18.772   8.018  0.1967  0.0757  0.1342
  155loPI   C5A 2475   0.763  18.976   7.701 -0.2178  0.0177 -0.0025
  155loPI   C6A 2476   0.883  18.945   7.290  0.2770  0.1194 -0.1279
  155loPI   C1B 2477   0.488  18.766   9.079 -0.2105 -0.2945 -0.2660
  155loPI   C2B 2478   0.491  18.936   8.752  0.0042  0.0296  0.0346
  155loPI   C3B 2479   0.346  19.078   8.314  0.0832 -0.2930  0.0021
  155loPI   C4B 2480   0.270  18.979   7.871 -0.1130  0.3606 -0.1602
  156loPI    C1 2481   1.472   0.736  10.338  0.2431  0.0831  0.2112
  156loPI    C2 2482   1.536   0.425  10.581  0.1278 -0.3376 -0.2783
  156loPI    C3 2483   1.180   0.606  10.579  0.1545 -0.2796 -0.0825
  156loPI   PO4 2484   1.680   0.706  10.184 -0.2048 -0.1329  0.0049
  156loPI   GL1 2485   1.724   0.883   9.836 -0.1692  0.0654  0.1278
  156loPI   GL2 2486   1.411   1.069   9.944  0.0930 -0.0194  0.3225
  156loPI   C1A 2487   2.000   0.838   9.583 -0.0817  0.1163 -0.1536
  156loPI   C2A 2488   2.268   0.772   9.263 -0.1820  0.1962 -0.2402
  156loPI   C3A 2489   2.358   0.816   8.849 -0.1920  0.0351  0.0272
  156loPI   C4A 2490   2.341   0.735   8.363 -0.0875 -0.0820  0.0504
  156loPI   C5A 2491   2.496   0.328   8.162 -0.2428 -0.1555  0.0564
  156loPI   C6A 2492   2.382  -0.088   7.944  0.2597 -0.2329  0.0417
  156loPI   C1B 2493   1.529   1.237   9.543  0.0898 -0.3329 -0.0159
  156loPI   C2B 2494   1.539   1.450   9.149  0.2131 -0.1115  0.1855
  156loPI   C3B 2495   1.648   1.407   8.685 -0.0938  0.0767 -0.2500
  156loPI   C4B 2496   1.699   1.339   8.260  0.2312  0.1015 -0.1208
  157loPI    C1 2497   9.952  17.789  11.049  0.0693  0.2004 -0.1240
  157loPI    C2 2498  10.310  17.613  11.079  0.0553  0.1879 -0.0257
  157loPI    C3 2499  10.117  17.731  11.409 -0.1068  0.0431 -0.0673
  157loPI   PO4 2500  10.017  18.027  10.726  0.2926 -0.3463  0.0828
  157loPI   GL1 2501  10.226  18.158  10.398  0.1103  0.0088  0.4763
  157loPI   GL2 2502  10.504  17.969  10.260  0.4007  0.0723 -0.0070
  157loPI   C1A 2503  10.137  18.369  10.084  0.1833  0.1168  0.3876
  157loPI   C2A 2504  10.231  18.314   9.637 -0.1564  0.3334  0.3090
  157loPI   C3A 2505  10.112  18.440   9.257  0.0776  0.1774  0.2446
  157loPI   C4A 2506   9.993  18.595   8.855  0.2573 -0.0163 -0.1552
  157loPI   C5A 2507  10.058  18.417   8.498 -0.5828  0.0296  0.1955
  157loPI   C6A 2508  10.273  18.177   8.263  0.0501  0.1201  0.0303
  157loPI   C1B 2509  10.637  18.229   9.891  0.1503  0.0938  0.1703
  157loPI   C2B 2510  10.730  18.276   9.401 -0.1390 -0.2344  0.3601
  157loPI   C3B 2511  10.753  18.287   8.921 -0.0211 -0.3285  0.0070
  157loPI   C4B 2512  10.530  18.454   8.602  0.0549 -0.0967  0.0934
  158loPI    C1 2513   9.013  10.595  10.895  0.0578  0.3298 -0.0857
  158loPI    C2 2514   9.288  10.731  11.151  0.0813 -0.0872  0.1196
  158loPI    C3 2515   8.934  10.604  11.287 -0.1489  0.2743 -0.1251
  158loPI   PO4 2516   9.254  10.441  10.685 -0.1277  0.0595 -0.1212
  158loPI   GL1 2517   9.326  10.334  10.322  0.0706 -0.0352 -0.1163
  158loPI   GL2 2518   9.457   9.971  10.219  0.1349 -0.0138  0.0923
  158loPI   C1A 2519   9.346  10.647  10.034 -0.2870  0.2951  0.1372
  158loPI   C2A 2520   9.291  10.751   9.570  0.2050  0.1684  0.0881
  158loPI   C3A 2521   9.145  10.748   9.145 -0.1149 -0.1178  0.0651
  158loPI   C4A 2522   9.279  10.740   8.705 -0.3257 -0.1790 -0.2738
  158loPI   C5A 2523   9.330  10.714   8.241 -0.0776  0.3244  0.3588
  158loPI   C6A 2524   9.635  10.703   7.954 -0.1409  0.1892  0.2188
  158loPI   C1B 2525   9.454  10.128   9.849  0.0071 -0.1650 -0.1898
  158loPI   C2B 2526   9.347  10.043   9.505 -0.4065  0.0012  0.1445
  158loPI   C3B 2527   9.362  10.104   9.023 -0.4573  0.0572 -0.0974
  158loPI   C4B 2528   9.351  10.275   8.652 -0.0171  0.6893 -0.0996
  159loPI    C1 2529   1.360  13.753  10.106  0.0476 -0.2367  0.0916
  159loPI    C2 2530   1.706  13.707  10.301  0.2215  0.3791 -0.0506
  159loPI    C3 2531   1.390  13.866  10.488  0.0674 -0.0050  0.0234
  159loPI   PO4 2532   1.401  13.798   9.866 -0.0602  0.0309  0.2221
  159loPI   GL1 2533   1.278  13.836   9.483  0.0292 -0.1220  0.3313
  159loPI   GL2 2534   1.371  13.991   9.280  0.2384  0.1247 -0.2086
  159loPI   C1A 2535   1.179  13.633   9.009 -0.3900  0.0111  0.1169
  159loPI   C2A 2536   1.221  13.636   8.548 -0.1500  0.0280  0.1067
  159loPI   C3A 2537   1.471  13.696   8.136 -0.0104 -0.0257  0.3948
  159loPI   C4A 2538   1.593  13.777   7.747  0.0376 -0.1728  0.0461
  159loPI   C5A 2539   1.442  14.142   7.524 -0.2328  0.2160 -0.1826
  159loPI   C6A 2540   1.496  14.616   7.401  0.5055  0.3376  0.0404
  159loPI   C1B 2541   1.439  14.023   8.825  0.1978 -0.0218  0.0012
  159loPI   C2B 2542   1.418  14.078   8.430  0.0271  0.2086  0.0447
  159loPI   C3B 2543   1.563  14.147   8.032  0.2339 -0.1995 -0.1774
  159loPI   C4B 2544   1.875  14.357   7.741 -0.1511  0.0899 -0.0386
  160loPI    C1 2545   0.815  14.935   9.906  0.0575 -0.0266 -0.0415
  160loPI    C2 2546   1.056  15.231  10.025  0.0342 -0.0656  0.1053
  160loPI    C3 2547   1.004  14.911  10.258  0.1968 -0.2676 -0.1305
  160loPI   PO4 2548   0.609  15.088   9.704  0.0297 -0.2406 -0.2125
  160loPI   GL1 2549   0.530  15.242   9.370 -0.3170 -0.2354  0.0494
  160loPI   GL2 2550   0.279  15.428   9.585  0.4143 -0.1628  0.0350
  160loPI   C1A 2551   0.770  15.580   9.189 -0.0065 -0.3716 -0.1398
  160loPI   C2A 2552   0.921  15.689   8.873  0.0065  0.4052  0.0205
  160loPI   C3A 2553   1.016  15.760   8.465 -0.3214  0.0973 -0.0332
  160loPI   C4A 2554   1.327  15.845   8.139  0.3275  0.2684 -0.1809
  160loPI   C5A 2555   1.328  15.769   7.722  0.0757 -0.3460 -0.0049
  160loPI   C6A 2556   1.192  15.555   7.329 -0.0907  0.0587 -0.0432
  160loPI   C1B 2557   0.185  15.573   9.164 -0.0774  0.0176  0.1590
  160loPI   C2B 2558   0.386  15.488   8.802  0.1451 -0.2430  0.3494
  160loPI   C3B 2559   0.541  15.486   8.375  0.0945  0.0206 -0.0753
  160loPI   C4B 2560   0.784  15.611   7.970  0.0993  0.1462 -0.3040
  161loPI    C1 2561  15.146  17.802  10.348 -0.1054 -0.0461  0.2577
  161loPI    C2 2562  15.173  18.199  10.310 -0.1324 -0.0636  0.0437
  161loPI    C3 2563  15.503  17.973  10.294 -0.1154 -0.0492  0.1805
  161loPI   PO4 2564  14.917  17.781  10.248  0.2980 -0.2138 -0.1354
  161loPI   GL1 2565  14.706  17.753   9.861 -0.1818 -0.1905 -0.0461
  161loPI   GL2 2566  14.840  18.115   9.908 -0.1586 -0.0819 -0.0915
  161loPI   C1A 2567  14.623  17.708   9.377  0.0208 -0.3039  0.1807
  161loPI   C2A 2568  14.475  17.690   8.948  0.0846 -0.0627 -0.0698
  161loPI   C3A 2569  14.377  17.782   8.534 -0.1773  0.0243  0.0489
  161loPI   C4A 2570  14.323  17.688   8.020 -0.0498 -0.3151 -0.0439
  161loPI   C5A 2571  14.262  18.017   7.719 -0.0173  0.0833  0.0964
  161loPI   C6A 2572  14.175  18.475   7.791  0.0619 -0.1430 -0.2443
  161loPI   C1B 2573  14.521  18.123   9.601 -0.1218  0.1273  0.1496
  161loPI   C2B 2574  14.453  18.214   9.165 -0.2762  0.0763  0.2020
  161loPI   C3B 2575  14.335  18.205   8.672  0.0199  0.0135  0.3206
  161loPI   C4B 2576  14.272  18.278   8.240 -0.1605 -0.0105  0.2647
  162loPI    C1 2577  15.472   6.216  10.676 -0.1127  0.1491 -0.0579
  162loPI    C2 2578  15.345   5.959  10.956 -0.0201 -0.0556 -0.2015
  162loPI    C3 2579  15.379   6.348  11.042 -0.4266 -0.0465 -0.0627
  162loPI   PO4 2580  15.385   6.276  10.337  0.0175 -0.0556  0.0263
  162loPI   GL1 2581  15.343   6.319   9.793  0.0354 -0.0403 -0.1491
  162loPI   GL2 2582  15.614   6.303   9.767 -0.0398 -0.0057 -0.0692
  162loPI   C1A 2583  15.126   6.278   9.498  0.4693  0.2826 -0.4518
  162loPI   C2A 2584  15.168   6.164   9.080 -0.0233 -0.1472  0.0362
  162loPI   C3A 2585  15.062   6.068   8.691  0.3719 -0.0927  0.0781
  162loPI   C4A 2586  15.012   6.089   8.263 -0.0651  0.0932  0.0042
  162loPI   C5A 2587  15.231   6.026   7.943 -0.2344 -0.1364  0.2193
  162loPI   C6A 2588  15.503   5.749   7.741 -0.4173 -0.1782 -0.1490
  162loPI   C1B 2589  15.611   6.567   9.449  0.4096  0.2442  0.1897
  162loPI   C2B 2590  15.591   6.501   9.077 -0.0287 -0.1813  0.0243
  162loPI   C3B 2591  15.365   6.507   8.718 -0.1148 -0.1928 -0.1238
  162loPI   C4B 2592  15.288   6.598   8.282 -0.0847  0.1068 -0.1550
  163loPI    C1 2593   7.831   8.542  10.813 -0.0936 -0.0777 -0.3139
  163loPI    C2 2594   7.908   8.196  11.000  0.1092  0.0673 -0.1231
  163loPI    C3 2595   7.842   8.529  11.213 -0.0057  0.1639 -0.3066
  163loPI   PO4 2596   7.947   8.385  10.554  0.0632  0.0488  0.0111
  163loPI   GL1 2597   8.016   8.392  10.160  0.2311  0.1110  0.0572
  163loPI   GL2 2598   7.759   8.223  10.059 -0.0376  0.2718  0.1567
  163loPI   C1A 2599   8.315   8.546   9.861 -0.2022  0.0683 -0.1370
  163loPI   C2A 2600   8.328   8.516   9.398 -0.2330  0.2136  0.1301
  163loPI   C3A 2601   8.327   8.554   8.999  0.1598  0.3713 -0.1786
  163loPI   C4A 2602   8.272   8.537   8.609 -0.1552 -0.1266 -0.0719
  163loPI   C5A 2603   8.262   8.320   8.173  0.0391 -0.1979 -0.1111
  163loPI   C6A 2604   8.592   8.036   8.086 -0.0103  0.0649  0.0931
  163loPI   C1B 2605   7.892   8.122   9.708 -0.4400  0.0773 -0.2633
  163loPI   C2B 2606   7.969   8.187   9.197 -0.0726 -0.4247  0.0457
  163loPI   C3B 2607   7.954   8.089   8.754  0.0401  0.1139 -0.1077
  163loPI   C4B 2608   7.846   8.227   8.411 -0.0960  0.2158  0.1202
  164loPI    C1 2609  16.305   4.092  10.345 -0.0741 -0.1531  0.0084
  164loPI    C2 2610  16.453   4.318  10.639 -0.0007  0.0385 -0.1732
  164loPI    C3 2611  16.475   3.920  10.663  0.0860  0.0544  0.0374
  164loPI   PO4 2612  16.353   4.044  10.194  0.0311 -0.1170  0.1374
  164loPI   GL1 2613  16.396   3.817   9.681  0.0876 -0.0835 -0.0732
  164loPI   GL2 2614  16.323   3.440   9.527  0.4852  0.0008 -0.0758
  164loPI   C1A 2615  16.365   3.862   9.282 -0.2453  0.1511  0.1647
  164loPI   C2A 2616  16.182   3.906   8.943  0.4489 -0.1964 -0.1331
  164loPI   C3A 2617  16.088   3.939   8.468  0.0388  0.0469 -0.0274
  164loPI   C4A 2618  15.934   3.873   8.037 -0.0311  0.1151  0.1040
  164loPI   C5A 2619  15.779   3.719   7.583 -0.3379 -0.0236  0.0813
  164loPI   C6A 2620  15.746   3.863   7.197  0.0154  0.1381  0.0340
  164loPI   C1B 2621  16.211   3.425   9.100  0.2525  0.2381 -0.2493
  164loPI   C2B 2622  16.378   3.366   8.722  0.0771  0.1025 -0.0760
  164loPI   C3B 2623  16.539   3.442   8.374 -0.1073  0.0037 -0.0884
  164loPI   C4B 2624  16.813   3.663   7.964  0.0224 -0.0086  0.2425
  165loPI    C1 2625   3.672  17.437  10.756  0.0154  0.1451  0.1873
  165loPI    C2 2626   3.426  17.195  10.958  0.0760 -0.2112 -0.1536
  165loPI    C3 2627   3.821  17.127  10.961  0.1118 -0.0074 -0.1076
  165loPI   PO4 2628   3.586  17.494  10.515  0.0784  0.3352  0.0400
  165loPI   GL1 2629   3.469  17.285  10.073  0.1997  0.0808 -0.5314
  165loPI   GL2 2630   3.340  17.149   9.777  0.0718  0.1389  0.1657
  165loPI   C1A 2631   3.799  17.405   9.733 -0.0463 -0.1262 -0.2223
  165loPI   C2A 2632   3.850  17.481   9.276 -0.1787 -0.2309  0.2637
  165loPI   C3A 2633   3.858  17.535   8.867  0.1048  0.2374 -0.1487
  165loPI   C4A 2634   3.923  17.609   8.404  0.0107 -0.0112  0.1778
  165loPI   C5A 2635   3.932  17.572   7.962 -0.3361  0.1661  0.0718
  165loPI   C6A 2636   4.208  17.627   7.573  0.0692  0.0220 -0.2979
  165loPI   C1B 2637   3.383  17.290   9.352 -0.0344  0.0992  0.2072
  165loPI   C2B 2638   3.375  17.334   8.970  0.0844 -0.0710 -0.1196
  165loPI   C3B 2639   3.452  17.328   8.593 -0.1375 -0.1407 -0.2546
  165loPI   C4B 2640   3.582  17.296   8.143 -0.2727  0.1149  0.0825
  166loPI    C1 2641   2.761   4.347  10.517  0.0507  0.1598  0.0335
  166loPI    C2 2642   2.460   4.577  10.647 -0.1226  0.1934 -0.4085
  166loPI    C3 2643   2.583   4.266  10.866 -0.4168  0.2346 -0.1784
  166loPI   PO4 2644   2.748   4.221  10.199  0.1571 -0.1415 -0.0375
  166loPI   GL1 2645   2.897   3.985   9.830  0.1205  0.0803 -0.3233
  166loPI   GL2 2646   3.122   4.212   9.844  0.1177  0.0265  0.0760
  166loPI   C1A 2647   2.884   3.900   9.455  0.1092  0.1115 -0.1700
  166loPI   C2A 2648   2.741   3.881   8.999  0.0240  0.0358  0.3394
  166loPI   C3A 2649   2.859   3.912   8.584  0.2645  0.1180  0.1986
  166loPI   C4A 2650   2.827   3.825   8.112  0.0972  0.0002  0.1188
  166loPI   C5A 2651   3.051   3.706   7.835  0.2492  0.0515  0.1564
  166loPI   C6A 2652   3.493   3.662   7.970 -0.1184 -0.0195 -0.0552
  166loPI   C1B 2653   3.361   4.227   9.412 -0.0718  0.2877  0.0930
  166loPI   C2B 2654   3.458   4.213   8.989 -0.0173 -0.0241 -0.0461
  166loPI   C3B 2655   3.608   4.263   8.566  0.1254 -0.1472  0.1325
  166loPI   C4B 2656   3.687   4.246   8.080 -0.0694 -0.2551 -0.5369
  167loPI    C1 2657   7.758   3.268  10.752 -0.1464  0.1811  0.0180
  167loPI    C2 2658   8.032   3.167  11.026 -0.1127  0.1021 -0.0443
  167loPI    C3 2659   7.749   3.435  11.116 -0.0010  0.2018  0.0130
  167loPI   PO4 2660   7.921   3.346  10.561  0.1263  0.1707 -0.0107
  167loPI   GL1 2661   7.886   3.468  10.093 -0.2649  0.2208 -0.0275
  167loPI   GL2 2662   7.935   3.091  10.113 -0.1917 -0.1715 -0.0873
  167loPI   C1A 2663   7.802   3.507   9.646 -0.0428  0.3157  0.0183
  167loPI   C2A 2664   7.814   3.595   9.188 -0.0725 -0.0339 -0.1902
  167loPI   C3A 2665   7.877   3.549   8.838  0.1441  0.1499  0.0912
  167loPI   C4A 2666   8.303   3.653   8.431  0.0273 -0.1911 -0.1341
  167loPI   C5A 2667   8.556   3.447   8.125  0.1824  0.0773 -0.1320
  167loPI   C6A 2668   8.682   3.365   7.763 -0.3065  0.1116 -0.0532
  167loPI   C1B 2669   7.933   3.002   9.780  0.2271  0.2555 -0.0080
  167loPI   C2B 2670   7.974   3.078   9.364 -0.1447 -0.1237  0.0801
  167loPI   C3B 2671   7.971   3.048   8.920 -0.1043 -0.0092 -0.0122
  167loPI   C4B 2672   8.115   3.147   8.467 -0.0987 -0.1197  0.0818
  168loPI    C1 2673  12.744   6.897  11.080  0.1365 -0.0824 -0.2401
  168loPI    C2 2674  13.027   6.869  11.361 -0.0422 -0.1532 -0.0647
  168loPI    C3 2675  12.649   6.771  11.448 -0.1488  0.0804 -0.2556
  168loPI   PO4 2676  12.893   6.835  10.832 -0.1497  0.0748  0.2214
  168loPI   GL1 2677  12.824   6.752  10.430  0.1230  0.2678  0.1920
  168loPI   GL2 2678  12.640   6.946  10.404 -0.2132  0.1410  0.1594
  168loPI   C1A 2679  13.104   6.785  10.133 -0.2067  0.1059  0.1965
  168loPI   C2A 2680  13.120   6.822   9.749  0.1900  0.4144 -0.0246
  168loPI   C3A 2681  12.993   6.810   9.366 -0.0341  0.0126 -0.0301
  168loPI   C4A 2682  13.014   6.686   8.992  0.2691 -0.1695  0.2248
  168loPI   C5A 2683  13.041   6.655   8.510 -0.3167  0.1661  0.0214
  168loPI   C6A 2684  13.407   6.805   8.137  0.1143  0.3157  0.1348
  168loPI   C1B 2685  12.592   6.908   9.930  0.3838 -0.1833 -0.3129
  168loPI   C2B 2686  12.521   6.892   9.412  0.0246 -0.0137  0.2311
  168loPI   C3B 2687  12.544   6.880   8.994 -0.0101  0.1101  0.1530
  168loPI   C4B 2688  12.533   6.802   8.531  0.1652  0.1070  0.0892
  169loPI    C1 2689  14.181  11.421  10.900 -0.1772 -0.1795 -0.2142
  169loPI    C2 2690  14.405  11.185  11.132 -0.0571 -0.0804 -0.2284
  169loPI    C3 2691  14.096  11.384  11.289  0.2061  0.2236 -0.0841
  169loPI   PO4 2692  14.099  11.331  10.724 -0.0857  0.0887  0.0104
  169loPI   GL1 2693  13.977  11.240  10.318 -0.0174  0.1079  0.1278
  169loPI   GL2 2694  14.287  11.299  10.253 -0.1426 -0.1280  0.1963
  169loPI   C1A 2695  13.824  11.195   9.968 -0.1826  0.0771 -0.0341
  169loPI   C2A 2696  13.823  11.276   9.488 -0.2488  0.1176  0.2985
  169loPI   C3A 2697  13.763  11.207   9.058  0.0700 -0.1317 -0.1842
  169loPI   C4A 2698  13.782  11.239   8.679  0.1862 -0.1661  0.1100
  169loPI   C5A 2699  14.056  11.251   8.283  0.4226 -0.0122 -0.1268
  169loPI   C6A 2700  14.351  10.956   8.098  0.1306  0.3085 -0.4704
  169loPI   C1B 2701  14.289  11.546   9.885 -0.0462  0.3326 -0.0493
  169loPI   C2B 2702  14.170  11.657   9.457  0.1812  0.1389 -0.0175
  169loPI   C3B 2703  14.115  11.657   9.142  0.1015  0.1753  0.0509
  169loPI   C4B 2704  14.184  11.531   8.719 -0.1226  0.0979  0.0154
  170loPI    C1 2705   8.726   6.666  11.067 -0.0130 -0.4178 -0.0936
  170loPI    C2 2706   9.054   6.876  11.161 -0.1743 -0.0761 -0.2758
  170loPI    C3 2707   8.893   6.626  11.429 -0.0247  0.0930 -0.0236
  170loPI   PO4 2708   8.752   6.645  10.824 -0.1059  0.0076  0.1960
  170loPI   GL1 2709   8.503   6.837  10.525 -0.1823 -0.0520 -0.1759
  170loPI   GL2 2710   8.686   7.086  10.334 -0.1769  0.3956 -0.2797
  170loPI   C1A 2711   8.399   6.650  10.048 -0.0232 -0.2240 -0.3042
  170loPI   C2A 2712   8.432   6.686   9.620 -0.1264 -0.1535  0.0115
  170loPI   C3A 2713   8.272   6.684   9.183 -0.3497 -0.2292 -0.2978
  170loPI   C4A 2714   8.354   6.608   8.795 -0.2692 -0.0100 -0.1192
  170loPI   C5A 2715   8.457   6.619   8.350  0.1006 -0.2877  0.1487
  170loPI   C6A 2716   8.531   6.670   7.866  0.1867  0.0814 -0.2125
  170loPI   C1B 2717   8.733   7.025   9.897 -0.3938 -0.0317 -0.1749
  170loPI   C2B 2718   8.729   7.045   9.478  0.2228 -0.1467  0.0134
  170loPI   C3B 2719   8.712   7.128   9.072 -0.0291  0.1145 -0.0531
  170loPI   C4B 2720   8.626   7.051   8.633 -0.1928  0.2877  0.0804
  171loPI    C1 2721   0.377   7.483   9.809 -0.0679  0.0315  0.0021
  171loPI    C2 2722   0.718   7.418  10.008 -0.0080  0.1600 -0.0573
  171loPI    C3 2723   0.370   7.420  10.204  0.0233  0.0126  0.0009
  171loPI   PO4 2724   0.389   7.381   9.583 -0.0598  0.2149  0.3456
  171loPI   GL1 2725   0.273   7.542   9.103 -0.1092 -0.3311 -0.5673
  171loPI   GL2 2726   0.125   7.304   9.073 -0.1142 -0.2678  0.3402
  171loPI   C1A 2727   0.171   7.530   8.608  0.0373  0.4064  0.0354
  171loPI   C2A 2728   0.098   7.364   8.156 -0.3994  0.1598  0.0102
  171loPI   C3A 2729  -0.091   7.306   7.821  0.1475 -0.0299  0.0893
  171loPI   C4A 2730  -0.034   7.534   7.417 -0.1806 -0.0095 -0.3216
  171loPI   C5A 2731  -0.327   7.516   7.172  0.1051 -0.0917  0.0361
  171loPI   C6A 2732  -0.746   7.592   7.236  0.2045 -0.2238  0.1503
  171loPI   C1B 2733   0.186   7.003   8.888 -0.3007 -0.0309 -0.1831
  171loPI   C2B 2734   0.253   6.929   8.460  0.2660  0.1971 -0.1233
  171loPI   C3B 2735   0.373   6.969   8.047  0.1054  0.0935 -0.1749
  171loPI   C4B 2736   0.346   7.080   7.621 -0.2338  0.1590 -0.0296
  172loPI    C1 2737  16.758   6.468  10.046  0.0547 -0.2015 -0.0428
  172loPI    C2 2738  16.973   6.304  10.340  0.0583 -0.0683  0.0292
  172loPI    C3 2739  17.062   6.671  10.208 -0.2108  0.0452  0.1561
  172loPI   PO4 2740  16.741   6.228   9.866 -0.1391  0.1185 -0.3943
  172loPI   GL1 2741  16.924   6.186   9.369 -0.0019  0.1334 -0.0226
  172loPI   GL2 2742  16.539   6.200   9.395  0.2257 -0.3132 -0.2348
  172loPI   C1A 2743  16.774   6.154   8.983  0.0550 -0.0408 -0.0553
  172loPI   C2A 2744  16.508   6.174   8.524  0.2789  0.0546  0.4213
  172loPI   C3A 2745  16.222   6.221   8.109 -0.0088  0.1937  0.2467
  172loPI   C4A 2746  16.204   6.296   7.650  0.2964  0.0977 -0.0681
  172loPI   C5A 2747  15.773   6.202   7.484 -0.0659  0.3243 -0.1887
  172loPI   C6A 2748  15.361   6.239   7.469  0.2958  0.1535 -0.1279
  172loPI   C1B 2749  16.246   6.287   9.012 -0.4259  0.1837  0.1360
  172loPI   C2B 2750  15.991   6.357   8.760  0.1290 -0.0657 -0.1741
  172loPI   C3B 2751  15.787   6.324   8.449 -0.2580  0.3038 -0.1674
  172loPI   C4B 2752  15.747   6.306   7.983 -0.0462  0.0301  0.1683
  173loPI    C1 2753  12.626  10.474  11.280 -0.0721  0.1915 -0.1131
  173loPI    C2 2754  13.006  10.556  11.371 -0.1092  0.0681  0.1627
  173loPI    C3 2755  12.783  10.338  11.621 -0.3216  0.0220 -0.0629
  173loPI   PO4 2756  12.578  10.529  11.052 -0.0098 -0.0895  0.0913
  173loPI   GL1 2757  12.475  10.272  10.634 -0.0598 -0.0450  0.1433
  173loPI   GL2 2758  12.199  10.308  10.337  0.0713 -0.1189 -0.0085
  173loPI   C1A 2759  12.718  10.145  10.223  0.1622  0.0710  0.2842
  173loPI   C2A 2760  12.763  10.117   9.857  0.1048 -0.0313 -0.1999
  173loPI   C3A 2761  12.797  10.183   9.486  0.1009  0.2535  0.2752
  173loPI   C4A 2762  12.743  10.109   8.933 -0.1635 -0.1353 -0.3326
  173loPI   C5A 2763  12.478  10.365   8.626  0.2411  0.2987  0.2387
  173loPI   C6A 2764  12.436  10.716   8.402 -0.0072  0.3068  0.1056
  173loPI   C1B 2765  12.185  10.298   9.929  0.3451  0.1141  0.3283
  173loPI   C2B 2766  12.239  10.365   9.575  0.1262 -0.1360 -0.0512
  173loPI   C3B 2767  12.238  10.298   9.101 -0.1370 -0.0114 -0.1806
  173loPI   C4B 2768  12.039  10.234   8.677  0.1469  0.0923 -0.0457
  174loPI    C1 2769  17.989   4.823   9.744  0.2754  0.1094  0.0423
  174loPI    C2 2770  18.196   4.755  10.079 -0.0061 -0.1569  0.1659
  174loPI    C3 2771  17.827   4.908  10.099  0.1898  0.3694 -0.0561
  174loPI   PO4 2772  18.046   4.709   9.652  0.0685 -0.1911 -0.0251
  174loPI   GL1 2773  17.971   4.432   9.310 -0.0254 -0.0996 -0.0048
  174loPI   GL2 2774  17.710   4.259   9.325  0.1828 -0.0086  0.0283
  174loPI   C1A 2775  18.098   4.486   8.952  0.1298  0.1960 -0.0327
  174loPI   C2A 2776  18.090   4.444   8.554  0.1962  0.1396 -0.0148
  174loPI   C3A 2777  17.935   4.323   8.173  0.1571 -0.1784 -0.3868
  174loPI   C4A 2778  17.770   4.529   7.800  0.2670  0.1905 -0.2463
  174loPI   C5A 2779  17.820   4.898   7.630 -0.1928  0.1066 -0.0183
  174loPI   C6A 2780  18.009   5.289   7.493  0.2230 -0.1190  0.1419
  174loPI   C1B 2781  17.786   4.095   8.964  0.2788  0.0028 -0.1879
  174loPI   C2B 2782  17.645   4.168   8.555  0.2676 -0.0327 -0.2461
  174loPI   C3B 2783  17.483   4.186   8.129  0.1050 -0.1939  0.0867
  174loPI   C4B 2784  17.562   4.025   7.726 -0.1407  0.2938 -0.1430
  175loPI    C1 2785  15.529  12.506  10.492  0.0938 -0.0327  0.0357
  175loPI    C2 2786  15.334  12.772  10.719 -0.1074 -0.0140 -0.1562
  175loPI    C3 2787  15.572  12.500  10.890 -0.1036  0.1240  0.0612
  175loPI   PO4 2788  15.417  12.485  10.238 -0.1281  0.2272  0.0031
  175loPI   GL1 2789  15.556  12.532   9.863  0.1872 -0.1169 -0.1257
  175loPI   GL2 2790  15.438  12.791   9.844 -0.1005 -0.1330 -0.1384
  175loPI   C1A 2791  15.277  12.202   9.678  0.0760 -0.0675 -0.1239
  175loPI   C2A 2792  15.098  11.885   9.517 -0.2654 -0.2876 -0.2363
  175loPI   C3A 2793  15.006  11.771   9.092  0.0871  0.0927  0.0128
  175loPI   C4A 2794  14.876  11.795   8.666  0.0757 -0.3467 -0.1117
  175loPI   C5A 2795  14.807  11.890   8.274  0.1553 -0.1896 -0.3116
  175loPI   C6A 2796  14.687  11.809   7.864 -0.0000  0.3481 -0.3218
  175loPI   C1B 2797  15.310  12.639   9.443  0.0788  0.2155  0.1682
  175loPI   C2B 2798  15.284  12.614   8.960 -0.2064 -0.2136 -0.0520
  175loPI   C3B 2799  15.239  12.637   8.615 -0.0569 -0.0684 -0.2129
  175loPI   C4B 2800  15.276  12.736   8.285 -0.1788 -0.1087 -0.4241
  176loPI    C1 2801   4.428  14.112   9.926  0.1484 -0.1188  0.0566
  176loPI    C2 2802   4.242  14.407  10.123  0.1433 -0.1487  0.0968
  176loPI    C3 2803   4.443  14.126  10.326 -0.0029 -0.2750  0.0691
  176loPI   PO4 2804   4.304  14.056   9.789  0.0895  0.2071  0.2838
  176loPI   GL1 2805   4.322  13.892   9.421  0.3048 -0.1690 -0.3112
  176loPI   GL2 2806   4.314  13.549   9.384  0.0837  0.1987 -0.0370
  176loPI   C1A 2807   4.620  13.786   9.158 -0.0194 -0.2091  0.0358
  176loPI   C2A 2808   4.781  13.531   8.860  0.1593  0.1769 -0.1985
  176loPI   C3A 2809   4.840  13.476   8.413 -0.0690 -0.0646  0.2343
  176loPI   C4A 2810   4.838  13.330   7.977  0.0135 -0.1629 -0.3285
  176loPI   C5A 2811   4.830  13.407   7.443  0.0066 -0.0108  0.0005
  176loPI   C6A 2812   4.799  13.614   6.984  0.2103 -0.0797  0.2420
  176loPI   C1B 2813   4.350  13.290   9.037 -0.3036 -0.0680 -0.1971
  176loPI   C2B 2814   4.404  13.121   8.735  0.0795  0.3317  0.2594
  176loPI   C3B 2815   4.482  13.050   8.287  0.1668 -0.1885 -0.0621
  176loPI   C4B 2816   4.502  12.962   7.964 -0.1730  0.4057 -0.0159
  177loPI    C1 2817   4.689  14.944   9.818  0.0095  0.0956  0.1046
  177loPI    C2 2818   4.859  14.988  10.178  0.1230 -0.1063  0.0772
  177loPI    C3 2819   4.498  14.819  10.147  0.1607 -0.1892  0.0876
  177loPI   PO4 2820   4.855  15.103   9.691  0.1782  0.1493 -0.0868
  177loPI   GL1 2821   4.904  15.415   9.435  0.1748 -0.0770  0.1609
  177loPI   GL2 2822   4.892  15.658   9.571  0.1027  0.0252 -0.0773
  177loPI   C1A 2823   4.958  15.227   9.071  0.0055  0.0772  0.2430
  177loPI   C2A 2824   4.993  15.195   8.760  0.2200 -0.1126 -0.3578
  177loPI   C3A 2825   5.089  15.107   8.361  0.0694  0.1521 -0.0048
  177loPI   C4A 2826   5.226  15.262   8.001 -0.1576 -0.2780  0.0026
  177loPI   C5A 2827   5.042  15.451   7.652 -0.0867  0.0309 -0.1034
  177loPI   C6A 2828   4.943  15.547   7.251  0.0084 -0.0136  0.2295
  177loPI   C1B 2829   5.079  15.721   9.107  0.0210 -0.2214 -0.0327
  177loPI   C2B 2830   5.206  15.709   8.766 -0.3613  0.1114  0.2604
  177loPI   C3B 2831   5.036  15.605   8.414  0.0751 -0.1271 -0.1555
  177loPI   C4B 2832   5.139  15.722   8.083  0.0326  0.0387  0.3373
  178loPI    C1 2833  15.015  18.477  10.681  0.0593 -0.0571  0.1194
  178loPI    C2 2834  14.682  18.688  10.752  0.0767 -0.1267  0.4228
  178loPI    C3 2835  14.717  18.315  10.892  0.0198 -0.3633 -0.1652
  178loPI   PO4 2836  15.041  18.677  10.399 -0.2515 -0.0699 -0.1007
  178loPI   GL1 2837  15.063  18.639   9.956  0.1350 -0.0922 -0.0098
  178loPI   GL2 2838  14.883  18.925   9.908  0.2477  0.0427 -0.1506
  178loPI   C1A 2839  14.900  18.488   9.594 -0.0249 -0.1378 -0.1637
  178loPI   C2A 2840  14.859  18.471   9.227 -0.0850 -0.2022  0.1177
  178loPI   C3A 2841  14.740  18.501   8.866 -0.0383  0.2781 -0.0428
  178loPI   C4A 2842  14.594  18.673   8.465 -0.0724  0.0523  0.0838
  178loPI   C5A 2843  14.609  18.646   8.017  0.0927 -0.0382  0.2212
  178loPI   C6A 2844  14.656  18.541   7.620  0.0742 -0.0345 -0.1362
  178loPI   C1B 2845  14.742  19.007   9.539 -0.3317 -0.1001 -0.5543
  178loPI   C2B 2846  14.647  19.203   9.171  0.0521  0.0473  0.2180
  178loPI   C3B 2847  14.577  19.158   8.727  0.2176  0.2293 -0.0762
  178loPI   C4B 2848  14.539  19.128   8.329  0.3950  0.0393  0.3890
  179loPI    C1 2849  16.823   0.168  10.324  0.0915 -0.0398 -0.1203
  179loPI    C2 2850  17.122   0.270  10.570  0.0168 -0.0192 -0.0373
  179loPI    C3 2851  16.764   0.175  10.720 -0.0117 -0.0667 -0.1351
  179loPI   PO4 2852  16.888   0.082  10.132 -0.1072  0.0318 -0.3931
  179loPI   GL1 2853  16.725   0.333   9.836  0.0743  0.0453 -0.0723
  179loPI   GL2 2854  16.731   0.473   9.470  0.1407 -0.2865 -0.1351
  179loPI   C1A 2855  16.362   0.182   9.571  0.2482 -0.1473 -0.0154
  179loPI   C2A 2856  16.206   0.147   9.164 -0.0469 -0.0582 -0.0908
  179loPI   C3A 2857  16.102   0.278   8.771 -0.2013  0.0583 -0.3692
  179loPI   C4A 2858  15.994   0.102   8.309 -0.1401 -0.1056 -0.2023
  179loPI   C5A 2859  16.217   0.059   7.878 -0.1153  0.0150 -0.0455
  179loPI   C6A 2860  16.458  -0.220   7.729 -0.1027 -0.0194 -0.0801
  179loPI   C1B 2861  16.633   0.593   9.055 -0.1447 -0.0366  0.2819
  179loPI   C2B 2862  16.427   0.634   8.593 -0.2791 -0.2596  0.0931
  179loPI   C3B 2863  16.346   0.458   8.190 -0.2551 -0.0142  0.2227
  179loPI   C4B 2864  16.169   0.541   7.764  0.0095  0.2272  0.1842
  180loPI    C1 2865  17.623   5.757   9.868 -0.0826 -0.1916 -0.2051
  180loPI    C2 2866  17.994   5.778  10.017 -0.0328 -0.0484 -0.3458
  180loPI    C3 2867  17.699   5.619  10.236  0.0333  0.1816 -0.0843
  180loPI   PO4 2868  17.621   5.718   9.646 -0.0703 -0.0614  0.1847
  180loPI   GL1 2869  17.647   5.392   9.347  0.1357 -0.2732  0.1996
  180loPI   GL2 2870  17.291   5.446   9.398 -0.0010  0.1339  0.1588
  180loPI   C1A 2871  17.635   5.217   8.934  0.2244 -0.0310 -0.0364
  180loPI   C2A 2872  17.674   5.221   8.524 -0.1828 -0.0114  0.0769
  180loPI   C3A 2873  17.583   5.431   8.174 -0.1995 -0.0186  0.0016
  180loPI   C4A 2874  17.571   5.552   7.744  0.1286 -0.0301  0.0224
  180loPI   C5A 2875  17.841   5.803   7.407  0.2912  0.2440 -0.0375
  180loPI   C6A 2876  18.026   5.634   7.115  0.0390  0.3936  0.2702
  180loPI   C1B 2877  17.285   5.569   9.015  0.2752  0.0306 -0.1262
  180loPI   C2B 2878  17.319   5.630   8.595 -0.1167 -0.1081 -0.0048
  180loPI   C3B 2879  17.333   5.886   8.176  0.2198  0.1963 -0.2616
  180loPI   C4B 2880  17.280   6.099   7.745  0.0767  0.1189  0.5047
  181loPI    C1 2881   8.476  13.475  11.114 -0.0060 -0.0812 -0.1031
  181loPI    C2 2882   8.667  13.145  11.237  0.0450 -0.0729 -0.1601
  181loPI    C3 2883   8.317  13.247  11.402  0.0320 -0.1526 -0.1385
  181loPI   PO4 2884   8.480  13.411  10.840 -0.0774 -0.3379 -0.1111
  181loPI   GL1 2885   8.655  13.344  10.411 -0.1400  0.1283  0.3636
  181loPI   GL2 2886   8.459  13.691  10.353 -0.2035 -0.0588  0.1292
  181loPI   C1A 2887   8.563  13.320   9.990  0.1608 -0.2140  0.2433
  181loPI   C2A 2888   8.500  13.313   9.562  0.3719  0.1755  0.2268
  181loPI   C3A 2889   8.554  13.135   9.130 -0.1179  0.0077  0.0135
  181loPI   C4A 2890   8.563  13.241   8.645  0.0449  0.0252  0.2256
  181loPI   C5A 2891   8.672  13.333   8.326 -0.0587  0.0486  0.2369
  181loPI   C6A 2892   8.956  13.398   8.022 -0.2091 -0.2867 -0.1818
  181loPI   C1B 2893   8.426  13.789   9.872  0.0196 -0.0730  0.5441
  181loPI   C2B 2894   8.462  13.802   9.395  0.1205 -0.0736 -0.4121
  181loPI   C3B 2895   8.466  13.762   8.991  0.0362  0.0497  0.0956
  181loPI   C4B 2896   8.423  13.697   8.540  0.3786  0.3334  0.2740
  182loPI    C1 2897  11.665   2.857  11.114 -0.1530 -0.2090  0.2333
  182loPI    C2 2898  11.960   2.666  11.305 -0.0385 -0.1170  0.1501
  182loPI    C3 2899  11.707   2.899  11.510  0.0762 -0.0282  0.1916
  182loPI   PO4 2900  11.728   2.956  10.945 -0.0067 -0.1576 -0.0714
  182loPI   GL1 2901  11.825   3.043  10.485  0.1389  0.2204 -0.3036
  182loPI   GL2 2902  11.823   2.745  10.451 -0.2733  0.2945  0.1264
  182loPI   C1A 2903  12.028   3.237  10.144 -0.2309  0.1899 -0.1830
  182loPI   C2A 2904  12.117   3.171   9.809  0.2456  0.1083  0.1761
  182loPI   C3A 2905  12.172   3.121   9.328  0.3121  0.0426 -0.0645
  182loPI   C4A 2906  11.992   3.231   8.988 -0.0394 -0.2247  0.0514
  182loPI   C5A 2907  12.029   3.331   8.605 -0.0079  0.2956  0.0372
  182loPI   C6A 2908  12.047   3.053   8.284 -0.0084 -0.1287 -0.1023
  182loPI   C1B 2909  11.880   2.786   9.994 -0.2095  0.0992 -0.2090
  182loPI   C2B 2910  11.771   2.805   9.534  0.0732  0.1149  0.1498
  182loPI   C3B 2911  11.708   2.797   9.086 -0.0666  0.3525 -0.1460
  182loPI   C4B 2912  11.646   2.884   8.637 -0.1218 -0.2645  0.1551
  183loPI    C1 2913   6.774   0.764  10.619  0.0693  0.1558  0.2332
  183loPI    C2 2914   6.429   0.594  10.726  0.0410 -0.1197 -0.2662
  183loPI    C3 2915   6.754   0.547  10.954 -0.1687 -0.1346  0.0356
  183loPI   PO4 2916   6.721   0.766  10.347  0.1095  0.0673  0.2361
  183loPI   GL1 2917   6.644   0.738   9.803  0.2548  0.0370 -0.0748
  183loPI   GL2 2918   6.590   1.072   9.889  0.0775 -0.1305  0.3436
  183loPI   C1A 2919   6.530   0.650   9.451  0.3218  0.1713 -0.0674
  183loPI   C2A 2920   6.616   0.536   9.051  0.2081  0.0036  0.2233
  183loPI   C3A 2921   6.692   0.439   8.607  0.0560  0.0163 -0.1518
  183loPI   C4A 2922   6.662   0.524   8.078 -0.0607 -0.0480  0.0361
  183loPI   C5A 2923   6.304   0.480   7.770 -0.2071 -0.2306 -0.0124
  183loPI   C6A 2924   5.887   0.339   7.651 -0.2492  0.0786 -0.1005
  183loPI   C1B 2925   6.527   1.183   9.426  0.2850  0.2422 -0.0731
  183loPI   C2B 2926   6.541   1.093   8.997 -0.0816  0.2096  0.1040
  183loPI   C3B 2927   6.530   1.021   8.551 -0.2398 -0.0905 -0.0476
  183loPI   C4B 2928   6.608   1.151   8.148 -0.1817  0.2196  0.1667
  184loPI    C1 2929  12.527  13.362  11.161  0.0860 -0.0598  0.1277
  184loPI    C2 2930  12.514  13.083  11.447  0.0899  0.0880  0.2738
  184loPI    C3 2931  12.350  13.442  11.510 -0.3594 -0.0428 -0.0956
  184loPI   PO4 2932  12.471  13.267  10.989  0.3397  0.0938  0.0394
  184loPI   GL1 2933  12.702  13.223  10.544  0.1438 -0.0380  0.1999
  184loPI   GL2 2934  12.388  13.389  10.511  0.0408 -0.1562  0.0389
  184loPI   C1A 2935  12.717  13.355  10.045 -0.0226 -0.0935  0.2549
  184loPI   C2A 2936  12.816  13.421   9.607 -0.0166  0.0411  0.3037
  184loPI   C3A 2937  12.665  13.409   9.196  0.1126  0.1043  0.2318
  184loPI   C4A 2938  12.730  13.529   8.791  0.0488  0.0050  0.2270
  184loPI   C5A 2939  12.355  13.541   8.424  0.1055 -0.3437 -0.0886
  184loPI   C6A 2940  12.101  13.877   8.220  0.2886  0.1093 -0.0690
  184loPI   C1B 2941  12.255  13.515  10.067 -0.0192  0.2664  0.1966
  184loPI   C2B 2942  12.283  13.534   9.643  0.1025  0.0993 -0.1164
  184loPI   C3B 2943  12.213  13.547   9.347  0.0335 -0.0345  0.0695
  184loPI   C4B 2944  12.190  13.639   8.938 -0.0872 -0.3221  0.2977
  185loPI    C1 2945   3.177   8.741   9.652  0.0555  0.1741 -0.1023
  185loPI    C2 2946   2.998   9.097   9.617 -0.3764 -0.0318 -0.0387
  185loPI    C3 2947   3.088   8.952   9.979 -0.0807  0.0682 -0.0702
  185loPI   PO4 2948   3.123   8.629   9.497  0.1242  0.0258  0.2776
  185loPI   GL1 2949   2.879   8.773   9.236 -0.1168 -0.4362  0.0016
  185loPI   GL2 2950   2.962   9.080   9.060 -0.0252 -0.1413 -0.0284
  185loPI   C1A 2951   2.983   8.558   8.825  0.3847 -0.0470 -0.0577
  185loPI   C2A 2952   3.037   8.527   8.404 -0.1737 -0.3854  0.1796
  185loPI   C3A 2953   3.098   8.824   8.102 -0.2043 -0.0292 -0.1116
  185loPI   C4A 2954   3.079   8.815   7.613  0.2988 -0.1466  0.0276
  185loPI   C5A 2955   3.508   8.671   7.382 -0.0270 -0.0348 -0.0480
  185loPI   C6A 2956   3.871   8.488   7.152 -0.0099 -0.0062 -0.1890
  185loPI   C1B 2957   2.958   9.193   8.633  0.1345  0.0150 -0.0724
  185loPI   C2B 2958   2.720   9.082   8.295 -0.1725 -0.1102 -0.3322
  185loPI   C3B 2959   2.750   9.184   7.841 -0.1275  0.1733  0.2688
  185loPI   C4B 2960   2.779   9.405   7.474 -0.0292  0.1093  0.0498
  186loPI    C1 2961   5.256   4.638  10.535  0.4486 -0.1214 -0.0561
  186loPI    C2 2962   5.375   4.263  10.606  0.3353 -0.1492 -0.0114
  186loPI    C3 2963   5.230   4.487  10.904  0.1117 -0.1750 -0.0983
  186loPI   PO4 2964   5.104   4.701  10.302 -0.2257  0.2310  0.3800
  186loPI   GL1 2965   5.084   4.528   9.910 -0.0090 -0.1690  0.0458
  186loPI   GL2 2966   5.237   4.401   9.649 -0.0680 -0.1030 -0.4601
  186loPI   C1A 2967   4.728   4.575   9.542 -0.3256 -0.0417  0.2179
  186loPI   C2A 2968   4.745   4.666   9.091  0.1760 -0.2850 -0.1105
  186loPI   C3A 2969   4.888   4.814   8.664 -0.1793 -0.1827  0.1489
  186loPI   C4A 2970   5.233   4.717   8.355  0.0559  0.0815  0.0153
  186loPI   C5A 2971   5.084   4.711   7.911 -0.4503  0.3669 -0.1720
  186loPI   C6A 2972   4.836   4.599   7.616 -0.1763  0.1945  0.2913
  186loPI   C1B 2973   5.144   4.585   9.320  0.0368 -0.0732 -0.1382
  186loPI   C2B 2974   5.174   4.473   8.853 -0.0375 -0.1929 -0.1914
  186loPI   C3B 2975   5.132   4.241   8.540  0.0548 -0.0923  0.1389
  186loPI   C4B 2976   4.938   3.913   8.302  0.1081 -0.1433  0.0938
  187loPI    C1 2977  17.903  16.490   9.583  0.0879 -0.3837 -0.3432
  187loPI    C2 2978  17.548  16.352   9.706  0.0159 -0.1915 -0.3316
  187loPI    C3 2979  17.871  16.306   9.937 -0.0822 -0.0018 -0.1537
  187loPI   PO4 2980  17.779  16.703   9.388 -0.0121 -0.0222  0.2195
  187loPI   GL1 2981  17.532  16.641   9.089  0.0454  0.0506  0.1356
  187loPI   GL2 2982  17.611  16.979   8.970  0.0376 -0.2621  0.0432
  187loPI   C1A 2983  17.547  16.573   8.697  0.1019 -0.2510  0.1087
  187loPI   C2A 2984  17.507  16.601   8.238 -0.4927  0.2527 -0.0581
  187loPI   C3A 2985  17.612  16.628   7.768 -0.0584  0.1503 -0.4863
  187loPI   C4A 2986  17.869  16.709   7.422  0.0836  0.0061 -0.0252
  187loPI   C5A 2987  17.805  16.807   6.972  0.4182  0.6041  0.0249
  187loPI   C6A 2988  17.532  16.722   6.585  0.0859  0.3156  0.0580
  187loPI   C1B 2989  17.784  16.932   8.487  0.2648 -0.0776  0.2728
  187loPI   C2B 2990  17.932  16.857   8.129  0.3109  0.1524  0.0708
  187loPI   C3B 2991  17.936  17.134   7.726 -0.1672 -0.0914  0.0016
  187loPI   C4B 2992  17.832  17.203   7.260 -0.1652  0.2364  0.0046
  188loPI    C1 2993   6.744  12.467  10.651 -0.0033  0.1889 -0.1342
  188loPI    C2 2994   6.807  12.682  10.983  0.1419  0.1233 -0.1187
  188loPI    C3 2995   6.651  12.314  11.009  0.2749  0.0668 -0.1115
  188loPI   PO4 2996   6.618  12.615  10.559  0.1145  0.0540  0.1949
  188loPI   GL1 2997   6.679  12.854  10.183  0.3679  0.0643  0.3006
  188loPI   GL2 2998   6.418  12.812   9.989  0.2331  0.4646  0.1972
  188loPI   C1A 2999   6.858  12.942   9.740 -0.0371  0.4026 -0.2801
  188loPI   C2A 3000   6.876  12.984   9.366  0.0857  0.3473  0.0465
  188loPI   C3A 3001   6.864  12.832   8.985  0.1371 -0.1625 -0.2345
  188loPI   C4A 3002   6.866  12.782   8.657 -0.0331  0.2959 -0.1988
  188loPI   C5A 3003   6.888  12.834   8.173  0.1144 -0.1937 -0.3747
  188loPI   C6A 3004   6.805  12.682   7.789 -0.0546 -0.0002 -0.3281
  188loPI   C1B 3005   6.405  12.806   9.559 -0.0811 -0.1516  0.2782
  188loPI   C2B 3006   6.362  12.944   9.087 -0.0424 -0.1602 -0.1701
  188loPI   C3B 3007   6.388  13.026   8.689  0.3082  0.1196  0.3133
  188loPI   C4B 3008   6.330  13.059   8.224  0.1194 -0.2033 -0.0656
  189loPI    C1 3009  10.771  10.984  10.939 -0.0442 -0.1624 -0.1867
  189loPI    C2 3010  10.830  10.765  11.268  0.1569  0.2895  0.0881
  189loPI    C3 3011  10.504  10.995  11.237 -0.0263  0.0021 -0.1756
  189loPI   PO4 3012  10.964  10.942  10.771 -0.1961  0.4419  0.0219
  189loPI   GL1 3013  11.022  11.243  10.345  0.0598  0.0964  0.2978
  189loPI   GL2 3014  11.011  10.909  10.152 -0.0913  0.0304  0.3438
  189loPI   C1A 3015  11.370  11.350  10.125  0.0180 -0.1511 -0.0792
  189loPI   C2A 3016  11.506  11.447   9.797  0.0638 -0.2284 -0.2639
  189loPI   C3A 3017  11.390  11.466   9.338  0.1021 -0.0057  0.3208
  189loPI   C4A 3018  11.362  11.411   8.836 -0.0918 -0.3149 -0.2688
  189loPI   C5A 3019  11.419  11.551   8.483 -0.0518  0.0263 -0.0905
  189loPI   C6A 3020  11.251  11.648   8.174 -0.0875 -0.1679 -0.2145
  189loPI   C1B 3021  11.092  11.006   9.734  0.0376  0.0647  0.0272
  189loPI   C2B 3022  11.035  11.058   9.292  0.0971  0.0745 -0.1538
  189loPI   C3B 3023  10.990  11.014   8.841 -0.1774 -0.3054 -0.1389
  189loPI   C4B 3024  11.027  11.267   8.424 -0.1439  0.1964  0.3895
  190loPI    C1 3025  17.266  13.682   9.988  0.2168  0.0493  0.0469
  190loPI    C2 3026  17.565  13.440   9.878  0.2030  0.0353  0.0409
  190loPI    C3 3027  17.493  13.505  10.266  0.1637 -0.0240  0.0437
  190loPI   PO4 3028  17.261  13.806   9.673  0.0792 -0.1998 -0.0946
  190loPI   GL1 3029  17.532  14.006   9.299  0.2632 -0.3693  0.1536
  190loPI   GL2 3030  17.833  14.091   9.182  0.1622 -0.1332  0.0609
  190loPI   C1A 3031  17.367  14.106   8.932  0.1347 -0.0515 -0.2019
  190loPI   C2A 3032  17.315  14.235   8.535  0.1797  0.1033 -0.2341
  190loPI   C3A 3033  17.453  14.503   8.184  0.0227 -0.0403 -0.3167
  190loPI   C4A 3034  17.376  14.563   7.865 -0.0716  0.2460  0.3085
  190loPI   C5A 3035  17.142  14.628   7.529 -0.4527  0.5014 -0.0967
  190loPI   C6A 3036  17.038  14.885   7.323  0.0153 -0.1309  0.1951
  190loPI   C1B 3037  17.779  13.816   8.845 -0.0612  0.0204 -0.0442
  190loPI   C2B 3038  17.839  13.805   8.381 -0.0186 -0.1795  0.0989
  190loPI   C3B 3039  18.097  13.818   8.005  0.0541  0.1720  0.2434
  190loPI   C4B 3040  17.948  13.661   7.685  0.1731 -0.2711  0.1836
  191loPI    C1 3041   4.778  11.984  10.108  0.0274 -0.0749 -0.0360
  191loPI    C2 3042   4.682  11.597  10.078  0.0811 -0.1282  0.4040
  191loPI    C3 3043   4.579  11.804  10.404  0.0439  0.2347  0.1685
  191loPI   PO4 3044   4.790  12.118   9.825 -0.0379  0.0071  0.0415
  191loPI   GL1 3045   5.097  12.045   9.478 -0.0981 -0.1011  0.3009
  191loPI   GL2 3046   4.826  11.713   9.548  0.1127  0.2261  0.1161
  191loPI   C1A 3047   5.210  11.804   9.207  0.0018 -0.5351 -0.0543
  191loPI   C2A 3048   5.288  11.763   8.823 -0.1193  0.1002  0.1183
  191loPI   C3A 3049   5.339  11.962   8.349 -0.3529 -0.2626  0.1756
  191loPI   C4A 3050   5.230  11.917   7.961 -0.0025 -0.1681 -0.1612
  191loPI   C5A 3051   5.033  11.764   7.607 -0.0661  0.0292  0.1353
  191loPI   C6A 3052   5.207  11.634   7.257 -0.1610 -0.2746 -0.1126
  191loPI   C1B 3053   4.809  11.486   9.158 -0.2531 -0.0219  0.1990
  191loPI   C2B 3054   4.861  11.460   8.806  0.3498  0.1261  0.2728
  191loPI   C3B 3055   4.877  11.550   8.367 -0.1180  0.0501  0.1761
  191loPI   C4B 3056   4.819  11.443   7.957 -0.2340 -0.2425  0.0755
  192loPI    C1 3057  17.983   4.191   9.779 -0.0861 -0.0563 -0.1002
  192loPI    C2 3058  18.202   4.144  10.111 -0.0344  0.3433 -0.0720
  192loPI    C3 3059  17.812   4.225  10.139 -0.1187 -0.0292 -0.1183
  192loPI   PO4 3060  18.058   3.912   9.531 -0.0563  0.0765 -0.2078
  192loPI   GL1 3061  18.158   3.507   9.312 -0.1421  0.0453  0.0544
  192loPI   GL2 3062  18.450   3.549   9.336 -0.1593  0.1386  0.1971
  192loPI   C1A 3063  18.020   3.561   8.976 -0.2563  0.0712  0.0378
  192loPI   C2A 3064  17.886   3.642   8.557  0.2259 -0.0437  0.1175
  192loPI   C3A 3065  17.735   3.736   8.142  0.2541  0.1936  0.1670
  192loPI   C4A 3066  17.757   3.571   7.729  0.2957 -0.2292 -0.1219
  192loPI   C5A 3067  18.102   3.543   7.432 -0.1093 -0.0715  0.1286
  192loPI   C6A 3068  18.308   3.857   7.230 -0.2820 -0.3313  0.2032
  192loPI   C1B 3069  18.524   3.537   8.766  0.1453  0.0333  0.1338
  192loPI   C2B 3070  18.372   3.452   8.385 -0.0027  0.1313  0.1308
  192loPI   C3B 3071  18.308   3.567   7.966 -0.3970 -0.2392  0.1396
  192loPI   C4B 3072  18.099   3.934   7.758 -0.0913 -0.0734  0.2029
  193loPI    C1 3073   3.397   4.651  10.448 -0.0023  0.0349  0.0080
  193loPI    C2 3074   3.280   4.289  10.324 -0.2021  0.1424 -0.1238
  193loPI    C3 3075   3.246   4.389  10.710  0.0029 -0.0346 -0.0580
  193loPI   PO4 3076   3.488   4.720  10.241  0.6860 -0.3371  0.1388
  193loPI   GL1 3077   3.476   4.529   9.920 -0.0634 -0.0729  0.2833
  193loPI   GL2 3078   3.649   4.838   9.810 -0.0639  0.2640  0.0363
  193loPI   C1A 3079   3.770   4.439   9.534 -0.2328 -0.0268 -0.0158
  193loPI   C2A 3080   3.861   4.504   9.178  0.3743 -0.2097  0.0748
  193loPI   C3A 3081   3.826   4.986   8.976 -0.1914 -0.0985  0.2451
  193loPI   C4A 3082   4.239   5.299   8.865 -0.1122 -0.1456  0.0744
  193loPI   C5A 3083   4.459   5.211   8.478 -0.0336 -0.4426 -0.0158
  193loPI   C6A 3084   4.684   5.025   8.185 -0.4657 -0.0475 -0.0847
  193loPI   C1B 3085   3.737   4.990   9.542  0.2035 -0.1407  0.2639
  193loPI   C2B 3086   4.088   5.330   9.318 -0.1098 -0.1250  0.1878
  193loPI   C3B 3087   4.168   5.720   9.186 -0.3408 -0.1847  0.2129
  193loPI   C4B 3088   4.306   6.104   8.965 -0.1762 -0.2093  0.0200
  194loPI    C1 3089  16.888  13.287   9.982 -0.1669 -0.1311  0.0215
  194loPI    C2 3090  17.206  13.100  10.137 -0.0539  0.1506  0.1361
  194loPI    C3 3091  16.840  13.030  10.284 -0.0285 -0.0699  0.0961
  194loPI   PO4 3092  16.908  13.262   9.667  0.1372  0.1625 -0.0309
  194loPI   GL1 3093  17.135  13.440   9.352 -0.0564  0.1896  0.1243
  194loPI   GL2 3094  17.416  13.469   9.336  0.3132  0.0028 -0.1720
  194loPI   C1A 3095  16.936  13.735   9.142  0.0008 -0.1432  0.2387
  194loPI   C2A 3096  16.930  13.915   8.762 -0.1956  0.4019 -0.1841
  194loPI   C3A 3097  16.859  13.998   8.368  0.1935 -0.0488  0.2737
  194loPI   C4A 3098  16.835  14.371   8.245  0.0135  0.0389 -0.1819
  194loPI   C5A 3099  16.846  14.675   7.924 -0.2010 -0.0996 -0.1656
  194loPI   C6A 3100  16.431  14.906   7.828 -0.1470  0.2103 -0.0089
  194loPI   C1B 3101  17.360  13.584   8.950  0.1676 -0.2336  0.2704
  194loPI   C2B 3102  17.338  13.654   8.620  0.1179  0.2198  0.0199
  194loPI   C3B 3103  17.333  13.847   8.242 -0.0362 -0.2114  0.2599
  194loPI   C4B 3104  17.204  14.109   7.835  0.2673  0.1533  0.0406
  195loPI    C1 3105   9.024  12.833  11.082 -0.0058 -0.1891 -0.2253
  195loPI    C2 3106   9.147  12.478  11.218  0.3138  0.0084  0.0148
  195loPI    C3 3107   8.863  12.680  11.414  0.1963 -0.0721 -0.0713
  195loPI   PO4 3108   9.003  12.745  10.787  0.4301  0.0462  0.0458
  195loPI   GL1 3109   8.957  12.828  10.365 -0.1350 -0.3766 -0.2069
  195loPI   GL2 3110   9.183  13.080  10.366  0.1152 -0.3441  0.0051
  195loPI   C1A 3111   9.141  12.609  10.010 -0.4037 -0.1440 -0.1782
  195loPI   C2A 3112   9.233  12.715   9.620  0.2828 -0.2614 -0.1525
  195loPI   C3A 3113   9.183  12.626   9.227 -0.0605 -0.3507  0.0441
  195loPI   C4A 3114   9.222  12.548   8.743  0.1735  0.0136 -0.1582
  195loPI   C5A 3115   9.084  12.411   8.243 -0.0316 -0.1576  0.1637
  195loPI   C6A 3116   8.937  12.090   8.038  0.0508 -0.1211  0.0210
  195loPI   C1B 3117   9.057  13.165   9.895 -0.0562  0.0858 -0.4596
  195loPI   C2B 3118   9.013  13.149   9.468  0.1467  0.2600 -0.0651
  195loPI   C3B 3119   9.103  13.061   9.072  0.0727  0.1110 -0.2473
  195loPI   C4B 3120   9.082  13.213   8.647  0.0122  0.1573  0.0892
  196loPI    C1 3121  16.082  15.198  10.009  0.0141  0.2989  0.2830
  196loPI    C2 3122  16.168  15.506  10.249  0.2300  0.2871  0.2231
  196loPI    C3 3123  16.200  15.131  10.386 -0.0329  0.2892  0.2961
  196loPI   PO4 3124  16.075  15.244   9.839  0.4591  0.3662 -0.1830
  196loPI   GL1 3125  15.935  15.249   9.485  0.3915 -0.2295 -0.1034
  196loPI   GL2 3126  16.124  14.836   9.620 -0.0820 -0.0970  0.0289
  196loPI   C1A 3127  15.561  15.471   9.282 -0.1146 -0.0352  0.1837
  196loPI   C2A 3128  15.469  15.539   8.812  0.0849  0.1502  0.1171
  196loPI   C3A 3129  15.491  15.579   8.414  0.1776 -0.0514 -0.1484
  196loPI   C4A 3130  15.448  15.678   7.985  0.0298  0.2874  0.1639
  196loPI   C5A 3131  15.709  15.753   7.638 -0.0394 -0.0986  0.2259
  196loPI   C6A 3132  15.717  15.768   7.281  0.0460 -0.2098  0.0274
  196loPI   C1B 3133  16.156  14.817   9.197  0.0171  0.2583  0.2799
  196loPI   C2B 3134  16.153  14.858   8.794 -0.2256 -0.0361 -0.2449
  196loPI   C3B 3135  16.046  14.909   8.314  0.3428  0.0164  0.4020
  196loPI   C4B 3136  15.945  14.906   7.833 -0.1928 -0.0179 -0.1327
  197loPI    C1 3137   6.541  14.671  10.243 -0.0280  0.1305 -0.0196
  197loPI    C2 3138   6.146  14.694  10.184 -0.0240  0.1428 -0.0415
  197loPI    C3 3139   6.290  14.494  10.499 -0.0430  0.0121 -0.1147
  197loPI   PO4 3140   6.703  14.664  10.023 -0.0054 -0.1662  0.1929
  197loPI   GL1 3141   6.762  14.514   9.661  0.3544 -0.3449 -0.1899
  197loPI   GL2 3142   6.956  14.241   9.826  0.5456  0.0717  0.0908
  197loPI   C1A 3143   6.846  14.630   9.273  0.2418  0.3904  0.3866
  197loPI   C2A 3144   6.801  14.693   8.880 -0.2716 -0.1410 -0.2440
  197loPI   C3A 3145   6.786  14.730   8.490  0.0092 -0.0499 -0.0573
  197loPI   C4A 3146   7.036  14.587   8.055 -0.0419 -0.0001  0.0741
  197loPI   C5A 3147   7.391  14.670   7.820 -0.1198  0.1906  0.1545
  197loPI   C6A 3148   7.826  14.494   7.914  0.1741 -0.3371 -0.0743
  197loPI   C1B 3149   7.053  14.175   9.372 -0.0142  0.0084  0.3367
  197loPI   C2B 3150   6.985  14.163   8.889 -0.2000  0.2909  0.0017
  197loPI   C3B 3151   6.938  14.241   8.399  0.0116  0.1039  0.2711
  197loPI   C4B 3152   6.715  13.985   8.021 -0.1639  0.1950  0.2566
  198loPI    C1 3153   8.587   1.460  10.699 -0.0692 -0.0926 -0.1091
  198loPI    C2 3154   8.406   1.670  10.987  0.0455  0.1459 -0.2080
  198loPI    C3 3155   8.700   1.416  11.080  0.0736  0.2124 -0.1132
  198loPI   PO4 3156   8.433   1.215  10.641 -0.1248 -0.0159  0.1786
  198loPI   GL1 3157   8.516   0.848  10.458  0.0434  0.1133 -0.0100
  198loPI   GL2 3158   8.555   0.563  10.287 -0.2820 -0.1246 -0.0205
  198loPI   C1A 3159   8.370   0.927  10.029  0.1463 -0.0765 -0.4647
  198loPI   C2A 3160   8.329   0.888   9.551 -0.1751  0.2243 -0.0735
  198loPI   C3A 3161   8.331   0.887   9.112  0.2008  0.0026 -0.1725
  198loPI   C4A 3162   8.352   1.042   8.681  0.5383  0.1166  0.0781
  198loPI   C5A 3163   8.638   1.082   8.327  0.0556 -0.1665  0.1833
  198loPI   C6A 3164   9.037   0.871   8.416  0.0445 -0.2226 -0.0937
  198loPI   C1B 3165   8.669   0.372   9.991  0.2290 -0.1597  0.1512
  198loPI   C2B 3166   8.531   0.316   9.475  0.1986 -0.0673  0.1585
  198loPI   C3B 3167   8.500   0.402   9.125  0.2984  0.0167 -0.0365
  198loPI   C4B 3168   8.531   0.523   8.721 -0.1922  0.1157  0.0530
  199loPI    C1 3169   5.824   2.152  10.507 -0.1628 -0.0303 -0.0143
  199loPI    C2 3170   5.695   2.304  10.854  0.0658  0.2236 -0.0377
  199loPI    C3 3171   5.921   1.974  10.852  0.1309  0.2670  0.0617
  199loPI   PO4 3172   5.593   2.152  10.326 -0.0109 -0.2052  0.0288
  199loPI   GL1 3173   5.672   2.064   9.953  0.2205 -0.3007  0.0404
  199loPI   GL2 3174   6.025   2.025   9.854  0.0252  0.0930 -0.2564
  199loPI   C1A 3175   5.639   2.345   9.572  0.1668 -0.0812  0.0845
  199loPI   C2A 3176   5.746   2.305   9.195 -0.0146  0.1533  0.3501
  199loPI   C3A 3177   5.796   2.367   8.765  0.2223  0.2741 -0.2411
  199loPI   C4A 3178   5.795   2.346   8.397  0.1394  0.1129  0.0275
  199loPI   C5A 3179   5.638   2.393   8.020 -0.2540  0.1318 -0.1239
  199loPI   C6A 3180   5.604   2.156   7.664  0.0759  0.2099 -0.2562
  199loPI   C1B 3181   6.142   2.143   9.568 -0.0419 -0.1365  0.0570
  199loPI   C2B 3182   6.262   2.059   9.153  0.3749 -0.0657  0.2451
  199loPI   C3B 3183   6.235   2.102   8.751 -0.2477 -0.0037  0.0374
  199loPI   C4B 3184   6.297   2.187   8.370 -0.1632  0.0040 -0.1970
  200loPI    C1 3185   7.781  12.222  10.861 -0.0700 -0.0414  0.1259
  200loPI    C2 3186   7.506  12.065  11.105 -0.1799 -0.0615 -0.0097
  200loPI    C3 3187   7.809  12.277  11.256 -0.4257  0.2031  0.1214
  200loPI   PO4 3188   7.663  12.228  10.624 -0.0225 -0.0903 -0.1573
  200loPI   GL1 3189   7.692  11.982  10.215  0.2425 -0.0066 -0.3530
  200loPI   GL2 3190   7.597  11.738  10.276  0.1043 -0.3274  0.3932
  200loPI   C1A 3191   7.957  12.000   9.868 -0.1044  0.1718 -0.0161
  200loPI   C2A 3192   8.033  12.002   9.493 -0.0017 -0.1399 -0.1707
  200loPI   C3A 3193   7.975  12.001   9.103 -0.1709 -0.2697 -0.0435
  200loPI   C4A 3194   7.913  11.939   8.677  0.2576  0.0332  0.0227
  200loPI   C5A 3195   7.799  11.976   8.303  0.0582 -0.0768 -0.0847
  200loPI   C6A 3196   7.474  12.039   8.022  0.1193  0.3500 -0.0799
  200loPI   C1B 3197   7.537  11.584   9.808  0.2368  0.0509  0.0388
  200loPI   C2B 3198   7.658  11.667   9.380  0.0026 -0.0052  0.1552
  200loPI   C3B 3199   7.665  11.595   9.016  0.0014  0.0985 -0.1541
  200loPI   C4B 3200   7.523  11.564   8.659  0.1858  0.0869  0.0381
  201loPI    C1 3201  14.158  16.389  10.436  0.1545  0.0187  0.0366
  201loPI    C2 3202  14.423  16.095  10.381  0.0965 -0.0248 -0.0095
  201loPI    C3 3203  14.548  16.457  10.495  0.1519 -0.1125  0.2135
  201loPI   PO4 3204  13.890  16.300  10.350 -0.3293 -0.3392  0.1173
  201loPI   GL1 3205  13.965  16.166  10.016  0.1156  0.1254  0.2922
  201loPI   GL2 3206  13.983  15.896   9.720  0.1017 -0.0024 -0.0287
  201loPI   C1A 3207  14.021  16.409   9.609  0.1556 -0.2860  0.0011
  201loPI   C2A 3208  13.999  16.391   9.262  0.0478 -0.2419  0.1580
  201loPI   C3A 3209  13.895  16.424   8.796  0.1381  0.0631  0.1705
  201loPI   C4A 3210  13.767  16.482   8.353  0.3116  0.2486  0.1242
  201loPI   C5A 3211  13.625  16.574   8.065  0.0107  0.3153  0.1164
  201loPI   C6A 3212  13.285  16.730   7.728  0.0211 -0.2636  0.1491
  201loPI   C1B 3213  14.100  15.892   9.292 -0.1217  0.2646  0.0414
  201loPI   C2B 3214  14.007  15.936   8.807  0.1453  0.0115  0.4186
  201loPI   C3B 3215  14.038  15.989   8.387 -0.2199 -0.0752  0.0440
  201loPI   C4B 3216  13.671  16.119   7.953 -0.1134 -0.0601  0.0140
  202loPI    C1 3217   0.977  16.852  10.407 -0.0570  0.2275  0.2100
  202loPI    C2 3218   0.808  17.153  10.609 -0.1870  0.2094  0.1293
  202loPI    C3 3219   0.865  16.800  10.788 -0.0412  0.2788  0.2218
  202loPI   PO4 3220   0.945  16.811  10.067 -0.1714 -0.1756 -0.2532
  202loPI   GL1 3221   1.295  16.701   9.800  0.1902  0.0693  0.2514
  202loPI   GL2 3222   1.067  16.708   9.585  0.4334 -0.3413 -0.0615
  202loPI   C1A 3223   1.354  17.005   9.417  0.3214 -0.2661 -0.2792
  202loPI   C2A 3224   1.423  16.954   9.065  0.0808 -0.3000  0.1785
  202loPI   C3A 3225   1.492  16.984   8.645  0.2622  0.0408 -0.3139
  202loPI   C4A 3226   1.550  16.907   8.265  0.0328  0.1960 -0.4043
  202loPI   C5A 3227   1.436  16.785   7.840 -0.0375 -0.0471 -0.1036
  202loPI   C6A 3228   1.029  16.836   7.531  0.1658  0.1218  0.0999
  202loPI   C1B 3229   1.029  16.558   9.189  0.0114 -0.2068 -0.3515
  202loPI   C2B 3230   1.126  16.606   8.754  0.3354 -0.1265  0.2315
  202loPI   C3B 3231   1.040  16.881   8.291 -0.2952  0.0350 -0.0270
  202loPI   C4B 3232   1.034  17.131   7.922 -0.0176 -0.2204  0.0030
  203loPI    C1 3233   4.322   9.146  10.028  0.0592  0.0509  0.0590
  203loPI    C2 3234   4.519   8.955   9.736  0.0273  0.0035  0.0686
  203loPI    C3 3235   4.499   8.795  10.102 -0.0106  0.0188  0.0733
  203loPI   PO4 3236   4.128   9.159  10.008 -0.0219  0.0186 -0.4562
  203loPI   GL1 3237   3.901   9.340   9.663  0.1225  0.1819 -0.0260
  203loPI   GL2 3238   4.040   9.691   9.566 -0.1467 -0.2640  0.1457
  203loPI   C1A 3239   3.901   9.336   9.244 -0.1394  0.4030  0.0028
  203loPI   C2A 3240   3.782   9.341   8.837 -0.0511 -0.0864  0.1814
  203loPI   C3A 3241   3.968   9.396   8.467 -0.1976  0.0605  0.0957
  203loPI   C4A 3242   4.094   9.297   8.076 -0.0900 -0.1262 -0.4596
  203loPI   C5A 3243   4.439   9.203   7.930 -0.1344 -0.3856  0.1406
  203loPI   C6A 3244   4.654   9.575   7.694 -0.1204 -0.0324  0.1364
  203loPI   C1B 3245   4.351   9.490   9.544  0.1685 -0.0268 -0.3007
  203loPI   C2B 3246   4.427   9.154   9.311 -0.2401  0.0685 -0.0574
  203loPI   C3B 3247   4.365   9.224   8.869  0.1582 -0.0407 -0.0552
  203loPI   C4B 3248   4.425   9.217   8.461 -0.1097 -0.4003 -0.0452
  204loPI    C1 3249  13.309   8.180  10.674 -0.1206  0.1850  0.3548
  204loPI    C2 3250  13.096   7.899  10.864  0.0596 -0.1280  0.1057
  204loPI    C3 3251  13.495   7.907  10.900  0.0666  0.0167  0.0067
  204loPI   PO4 3252  13.321   8.144  10.417 -0.3410  0.0983 -0.1098
  204loPI   GL1 3253  13.259   8.097   9.887 -0.2476  0.3161 -0.2514
  204loPI   GL2 3254  13.373   7.886   9.999 -0.2595 -0.0655 -0.0461
  204loPI   C1A 3255  13.283   8.108   9.485  0.1810 -0.0813 -0.0406
  204loPI   C2A 3256  13.134   8.092   9.024  0.0476  0.3970 -0.1319
  204loPI   C3A 3257  13.118   8.100   8.602  0.0654 -0.0778 -0.0147
  204loPI   C4A 3258  13.030   7.751   8.278  0.0515  0.2872  0.1689
  204loPI   C5A 3259  12.680   7.577   8.025 -0.0567  0.2113  0.0543
  204loPI   C6A 3260  12.347   7.910   7.926  0.0707 -0.0942 -0.2015
  204loPI   C1B 3261  13.403   7.640   9.681 -0.4632  0.0640  0.2644
  204loPI   C2B 3262  13.320   7.683   9.244  0.0761  0.4432  0.2862
  204loPI   C3B 3263  13.193   7.646   8.786  0.0922  0.1891  0.1655
  204loPI   C4B 3264  13.445   7.492   8.405 -0.2810 -0.1782 -0.0731
  205loPI    C1 3265  16.862   7.227  10.088 -0.1374  0.2203  0.1394
  205loPI    C2 3266  17.226   7.113  10.207 -0.0410  0.1437 -0.2164
  205loPI    C3 3267  16.945   7.201  10.478  0.1459 -0.0984  0.0620
  205loPI   PO4 3268  16.832   7.019   9.907 -0.0966 -0.0245 -0.0519
  205loPI   GL1 3269  16.807   6.965   9.393 -0.0305  0.0646 -0.2015
  205loPI   GL2 3270  16.545   6.686   9.589  0.0386 -0.4020  0.1783
  205loPI   C1A 3271  16.884   6.991   8.917  0.0889 -0.4059 -0.0927
  205loPI   C2A 3272  16.715   7.001   8.473 -0.0618 -0.0589  0.0482
  205loPI   C3A 3273  16.504   7.069   8.080  0.0321  0.3492 -0.2432
  205loPI   C4A 3274  16.295   7.158   7.667 -0.3937 -0.0548 -0.3057
  205loPI   C5A 3275  16.236   6.938   7.342  0.0087 -0.1321 -0.2781
  205loPI   C6A 3276  16.150   6.835   6.964 -0.1759  0.0228 -0.0247
  205loPI   C1B 3277  16.540   6.642   9.108  0.0092  0.4568 -0.2115
  205loPI   C2B 3278  16.380   6.646   8.662  0.0450  0.0999 -0.0444
  205loPI   C3B 3279  16.166   6.744   8.277 -0.1010 -0.0615  0.0960
  205loPI   C4B 3280  15.983   6.708   7.811 -0.2607  0.0941 -0.3091
  206loPI    C1 3281   0.216   0.299   9.880  0.1879  0.3702 -0.1100
  206loPI    C2 3282   0.329   0.263  10.262 -0.1794 -0.0992 -0.0353
  206loPI    C3 3283   0.595   0.372   9.983  0.1598 -0.0273  0.3080
  206loPI   PO4 3284   0.109   0.171   9.782 -0.0235 -0.3979 -0.1536
  206loPI   GL1 3285   0.066   0.068   9.404  0.0965 -0.3971  0.0012
  206loPI   GL2 3286   0.080   0.387   9.364  0.1996  0.2665 -0.0569
  206loPI   C1A 3287   0.062   0.045   8.908 -0.2167  0.1469 -0.0151
  206loPI   C2A 3288   0.124   0.216   8.506  0.1146  0.1590 -0.1666
  206loPI   C3A 3289   0.257   0.083   8.210 -0.2713 -0.2566 -0.1221
  206loPI   C4A 3290   0.493  -0.125   7.821 -0.0928 -0.0775 -0.1098
  206loPI   C5A 3291   0.927  -0.063   7.620 -0.1936 -0.1211 -0.0372
  206loPI   C6A 3292   1.256   0.182   7.743  0.0951  0.2598  0.1835
  206loPI   C1B 3293  -0.099   0.574   8.956  0.1984  0.0799 -0.2639
  206loPI   C2B 3294  -0.177   0.638   8.504 -0.0865  0.1030 -0.1145
  206loPI   C3B 3295  -0.138   0.803   8.015  0.4270  0.4194  0.0189
  206loPI   C4B 3296  -0.424   1.020   7.814 -0.1316 -0.1127 -0.0321
  207loPI    C1 3297   6.045  17.261  11.003 -0.0433  0.0534  0.1178
  207loPI    C2 3298   5.814  17.517  11.206 -0.2207  0.0161 -0.0333
  207loPI    C3 3299   6.133  17.352  11.382 -0.4096 -0.0675  0.2366
  207loPI   PO4 3300   6.130  17.407  10.788  0.1317  0.1064  0.1025
  207loPI   GL1 3301   6.318  17.441  10.379  0.2140 -0.0336  0.0073
  207loPI   GL2 3302   6.423  17.534  10.165 -0.0290 -0.2755  0.1593
  207loPI   C1A 3303   6.035  17.250  10.012 -0.3302 -0.2511 -0.0451
  207loPI   C2A 3304   6.131  17.255   9.612 -0.0247 -0.1252 -0.0736
  207loPI   C3A 3305   6.205  17.257   9.127  0.0783  0.1810 -0.0205
  207loPI   C4A 3306   6.213  17.238   8.683 -0.0417  0.4153 -0.0796
  207loPI   C5A 3307   6.069  17.139   8.167 -0.2478 -0.2283 -0.2814
  207loPI   C6A 3308   6.184  17.129   7.732  0.0426  0.2588 -0.2454
  207loPI   C1B 3309   6.436  17.658   9.742 -0.3774 -0.1855 -0.3117
  207loPI   C2B 3310   6.481  17.605   9.281 -0.2293 -0.1053 -0.1522
  207loPI   C3B 3311   6.584  17.544   8.853  0.1173 -0.0313  0.0367
  207loPI   C4B 3312   6.554  17.535   8.465 -0.0975 -0.0749 -0.0413
  208loPI    C1 3313  17.966   9.380   9.488  0.0839 -0.1360 -0.0168
  208loPI    C2 3314  17.665   9.254   9.257  0.0152  0.0837 -0.0498
  208loPI    C3 3315  17.685   9.637   9.368  0.0504 -0.0178  0.3064
  208loPI   PO4 3316  18.240   9.187   9.475  0.0214 -0.0425  0.0820
  208loPI   GL1 3317  18.321   8.965   9.140 -0.1814  0.2905  0.1720
  208loPI   GL2 3318  18.548   8.961   8.917  0.1558  0.0936 -0.4102
  208loPI   C1A 3319  18.040   9.135   8.864  0.2920 -0.0495 -0.0070
  208loPI   C2A 3320  17.696   9.329   8.671 -0.2287 -0.0904  0.0912
  208loPI   C3A 3321  17.540   9.400   8.207 -0.0589  0.1150 -0.3557
  208loPI   C4A 3322  17.572   9.421   7.731 -0.1226 -0.1851 -0.0512
  208loPI   C5A 3323  17.848   9.488   7.371  0.0479 -0.0809  0.2053
  208loPI   C6A 3324  18.133   9.495   7.076 -0.0621  0.0619  0.0493
  208loPI   C1B 3325  18.434   9.090   8.452  0.2349 -0.5705  0.1903
  208loPI   C2B 3326  18.158   9.244   8.158  0.1994  0.0830 -0.2971
  208loPI   C3B 3327  17.789   8.985   7.952 -0.0323  0.2830  0.1468
  208loPI   C4B 3328  17.456   8.885   7.671  0.4332 -0.0763 -0.2080
  209loPI    C1 3329  15.664   2.195  10.493 -0.0038  0.0727 -0.3585
  209loPI    C2 3330  15.485   2.454  10.247 -0.0231  0.1301 -0.2841
  209loPI    C3 3331  15.523   2.541  10.636 -0.0623  0.0054 -0.2521
  209loPI   PO4 3332  15.550   1.918  10.470  0.0519 -0.1851  0.1582
  209loPI   GL1 3333  15.399   1.708  10.096 -0.3963  0.0822  0.0009
  209loPI   GL2 3334  15.229   1.926  10.049  0.0015 -0.0424 -0.2028
  209loPI   C1A 3335  15.370   1.723   9.571 -0.0771 -0.0123 -0.2826
  209loPI   C2A 3336  15.199   1.970   9.326  0.4398 -0.1181  0.1747
  209loPI   C3A 3337  15.100   1.866   8.838  0.0832 -0.0166  0.0358
  209loPI   C4A 3338  15.148   1.820   8.416  0.1898 -0.2637  0.2826
  209loPI   C5A 3339  15.170   1.698   8.015  0.1575 -0.2288 -0.3131
  209loPI   C6A 3340  15.174   1.754   7.526 -0.2732  0.2446  0.1321
  209loPI   C1B 3341  14.840   2.046   9.688 -0.5202  0.0174 -0.0100
  209loPI   C2B 3342  14.668   2.025   9.321  0.3386  0.1498 -0.0049
  209loPI   C3B 3343  14.608   1.979   8.833 -0.2354 -0.3436 -0.1871
  209loPI   C4B 3344  14.686   1.877   8.495  0.0096 -0.0007 -0.3457
  210loPI    C1 3345  12.143   9.764  10.865 -0.1266 -0.0339 -0.1570
  210loPI    C2 3346  12.395   9.984  11.084 -0.1409 -0.0155 -0.1590
  210loPI    C3 3347  12.000  10.046  11.110 -0.1747 -0.3391  0.1734
  210loPI   PO4 3348  12.215   9.820  10.626 -0.1752  0.3079 -0.0989
  210loPI   GL1 3349  12.456   9.776  10.198 -0.0169  0.4793  0.0243
  210loPI   GL2 3350  12.313   9.874   9.997  0.0608  0.0286  0.1965
  210loPI   C1A 3351  12.501   9.386   9.825  0.2306 -0.1453  0.1202
  210loPI   C2A 3352  12.515   9.232   9.519  0.0364 -0.1293  0.1009
  210loPI   C3A 3353  12.497   9.283   9.098  0.0585 -0.0461 -0.1471
  210loPI   C4A 3354  12.358   9.249   8.680  0.3751 -0.1399 -0.0891
  210loPI   C5A 3355  12.328   9.012   8.291  0.0342 -0.0237 -0.1438
  210loPI   C6A 3356  12.379   8.575   8.031 -0.0451 -0.0423 -0.2957
  210loPI   C1B 3357  12.422   9.843   9.571  0.0917  0.0877 -0.4263
  210loPI   C2B 3358  12.361   9.822   9.257 -0.0376 -0.0638 -0.0979
  210loPI   C3B 3359  12.324   9.867   8.762  0.1960  0.1208  0.0417
  210loPI   C4B 3360  12.599   9.759   8.331 -0.1010 -0.1199 -0.1315
  211loPI    C1 3361   8.280   5.723  11.116 -0.1267 -0.0905  0.0123
  211loPI    C2 3362   8.655   5.589  11.150 -0.0229  0.2177  0.1146
  211loPI    C3 3363   8.417   5.600  11.471 -0.0378  0.2586  0.1022
  211loPI   PO4 3364   8.344   5.813  10.842  0.1069  0.0813 -0.3988
  211loPI   GL1 3365   8.596   5.776  10.468  0.0865  0.0834 -0.1065
  211loPI   GL2 3366   8.858   5.731  10.561  0.1679 -0.0427  0.1362
  211loPI   C1A 3367   8.580   5.666  10.058 -0.1288  0.1182  0.0959
  211loPI   C2A 3368   8.610   5.702   9.572  0.2149 -0.0344  0.2732
  211loPI   C3A 3369   8.580   5.656   9.151  0.0334  0.1120  0.2042
  211loPI   C4A 3370   8.588   5.736   8.623 -0.2187 -0.2240  0.1846
  211loPI   C5A 3371   8.380   5.631   8.217  0.0231 -0.2972 -0.0899
  211loPI   C6A 3372   8.020   5.427   8.032 -0.0273 -0.0513 -0.0799
  211loPI   C1B 3373   9.141   5.547  10.167 -0.0676  0.2282 -0.1636
  211loPI   C2B 3374   9.115   5.558   9.747  0.0465  0.0275  0.2033
  211loPI   C3B 3375   9.091   5.590   9.236 -0.0201 -0.0625 -0.1101
  211loPI   C4B 3376   9.146   5.496   8.826  0.2281 -0.2591  0.0614
  212loPI    C1 3377   4.964   6.273  10.479  0.2775 -0.1513  0.0164
  212loPI    C2 3378   4.901   5.898  10.605  0.5849 -0.1109  0.3065
  212loPI    C3 3379   4.891   6.201  10.866  0.0275  0.1283  0.0246
  212loPI   PO4 3380   5.196   6.346  10.421  0.0451 -0.0854  0.0843
  212loPI   GL1 3381   5.401   6.414   9.984 -0.1499 -0.0847  0.0374
  212loPI   GL2 3382   5.711   6.621  10.049  0.1255  0.1209 -0.0755
  212loPI   C1A 3383   5.549   6.437   9.644 -0.3029 -0.1083 -0.1491
  212loPI   C2A 3384   5.556   6.464   9.273  0.1420  0.4129  0.2315
  212loPI   C3A 3385   5.607   6.521   8.796  0.1073 -0.3237  0.0211
  212loPI   C4A 3386   5.580   6.594   8.427 -0.1350 -0.1429 -0.2468
  212loPI   C5A 3387   5.597   6.534   8.001 -0.2907 -0.0314  0.2677
  212loPI   C6A 3388   5.705   6.640   7.534 -0.0798 -0.0328  0.2116
  212loPI   C1B 3389   5.878   6.818   9.592 -0.0218  0.2695  0.0181
  212loPI   C2B 3390   5.974   6.900   9.134 -0.0243 -0.0324  0.6091
  212loPI   C3B 3391   6.004   6.822   8.669 -0.1686  0.1191 -0.2487
  212loPI   C4B 3392   5.898   6.947   8.190 -0.1049  0.0109 -0.4525
  213loPI    C1 3393   2.503  14.312   9.649 -0.1302  0.1438  0.1909
  213loPI    C2 3394   2.221  14.035   9.586  0.0360  0.0269 -0.0604
  213loPI    C3 3395   2.133  14.368   9.791 -0.1483 -0.2405  0.3073
  213loPI   PO4 3396   2.637  14.312   9.418 -0.1017 -0.1248 -0.1087
  213loPI   GL1 3397   2.905  14.542   9.131  0.1027  0.0660 -0.0362
  213loPI   GL2 3398   3.127  14.632   9.053  0.0117  0.0222 -0.4198
  213loPI   C1A 3399   2.678  14.366   8.800 -0.1702 -0.0138  0.0897
  213loPI   C2A 3400   2.781  14.299   8.409 -0.1319 -0.0903 -0.2686
  213loPI   C3A 3401   2.767  14.284   8.077  0.2166  0.0101  0.2971
  213loPI   C4A 3402   2.995  13.999   7.731  0.4954  0.1452 -0.0932
  213loPI   C5A 3403   3.150  14.103   7.360 -0.1118 -0.1498  0.1568
  213loPI   C6A 3404   3.368  14.286   6.933  0.1165 -0.3381 -0.1786
  213loPI   C1B 3405   3.393  14.623   8.728 -0.0185  0.0071  0.1582
  213loPI   C2B 3406   3.676  14.550   8.440  0.0086  0.1119 -0.1964
  213loPI   C3B 3407   3.812  14.509   8.132 -0.2124  0.0104 -0.0776
  213loPI   C4B 3408   4.050  14.270   7.822 -0.0081 -0.0146  0.0122
  214loPI    C1 3409   9.718  16.677  11.207 -0.1490  0.1867  0.1607
  214loPI    C2 3410   9.849  16.473  11.525 -0.0564  0.1852  0.1220
  214loPI    C3 3411  10.104  16.695  11.311 -0.0938  0.0908 -0.0217
  214loPI   PO4 3412   9.614  16.552  11.049 -0.2275 -0.2519 -0.0112
  214loPI   GL1 3413   9.615  16.552  10.658 -0.2036 -0.3163  0.3849
  214loPI   GL2 3414   9.718  16.147  10.737  0.0305  0.4116 -0.0215
  214loPI   C1A 3415   9.466  16.715  10.270 -0.2663  0.0870 -0.2053
  214loPI   C2A 3416   9.641  16.854   9.913 -0.2512  0.5157  0.4010
  214loPI   C3A 3417   9.578  16.712   9.430 -0.0437 -0.0010  0.1059
  214loPI   C4A 3418   9.452  16.718   9.055  0.0755 -0.0548  0.0164
  214loPI   C5A 3419   9.641  16.667   8.684 -0.0319 -0.1312  0.4488
  214loPI   C6A 3420   9.770  16.763   8.328  0.1797 -0.0380 -0.0334
  214loPI   C1B 3421   9.706  16.262  10.218  0.1411  0.1870 -0.1012
  214loPI   C2B 3422   9.619  16.344   9.811 -0.0478 -0.1495  0.1003
  214loPI   C3B 3423   9.491  16.203   9.313 -0.0191  0.1063 -0.1189
  214loPI   C4B 3424   9.739  16.172   8.984 -0.1184 -0.0977  0.1708
  215loPI    C1 3425   8.158  15.135  11.061 -0.1116  0.0334 -0.0550
  215loPI    C2 3426   7.806  15.252  11.211 -0.1506 -0.0862 -0.0527
  215loPI    C3 3427   8.078  15.525  11.103 -0.2178  0.0050  0.0077
  215loPI   PO4 3428   8.068  14.965  10.812  0.1886  0.3165  0.0810
  215loPI   GL1 3429   7.848  14.707  10.528  0.3430 -0.4189 -0.0565
  215loPI   GL2 3430   7.591  14.616  10.258 -0.1404 -0.1381 -0.3887
  215loPI   C1A 3431   8.187  14.726  10.230 -0.0811  0.0097 -0.0649
  215loPI   C2A 3432   8.221  14.784   9.778  0.2577  0.0451  0.1413
  215loPI   C3A 3433   8.240  14.782   9.368  0.3120  0.1833 -0.0539
  215loPI   C4A 3434   8.188  14.771   8.935 -0.3182 -0.2593  0.0600
  215loPI   C5A 3435   8.259  14.921   8.546 -0.1858 -0.4621  0.2855
  215loPI   C6A 3436   8.166  14.757   8.113 -0.2447 -0.3160  0.2176
  215loPI   C1B 3437   7.834  14.527   9.880  0.0015  0.0630 -0.2552
  215loPI   C2B 3438   7.878  14.342   9.423  0.2314 -0.0275 -0.0711
  215loPI   C3B 3439   7.810  14.387   8.948 -0.0600 -0.1527 -0.2459
  215loPI   C4B 3440   7.945  14.423   8.504 -0.2462  0.1316  0.0212
  216loPI    C1 3441   2.580   1.318  10.391  0.1595 -0.0543  0.2486
  216loPI    C2 3442   2.288   1.543  10.237  0.1088 -0.3592 -0.1158
  216loPI    C3 3443   2.225   1.338  10.575 -0.0214 -0.2469 -0.0709
  216loPI   PO4 3444   2.753   1.380  10.226 -0.2218  0.0287  0.2478
  216loPI   GL1 3445   2.787   1.491   9.815  0.4434  0.0070  0.0918
  216loPI   GL2 3446   3.035   1.741   9.878 -0.0375 -0.2664  0.0233
  216loPI   C1A 3447   3.037   1.252   9.518  0.0636 -0.0579 -0.1143
  216loPI   C2A 3448   3.048   1.161   9.128  0.0499 -0.3612  0.0414
  216loPI   C3A 3449   3.177   1.076   8.710 -0.1407 -0.0586 -0.0544
  216loPI   C4A 3450   3.149   1.141   8.333 -0.2129 -0.3066  0.1336
  216loPI   C5A 3451   3.125   0.962   7.928 -0.1459 -0.0134  0.1463
  216loPI   C6A 3452   2.994   0.529   7.770  0.0480  0.0623  0.1429
  216loPI   C1B 3453   2.874   1.751   9.404 -0.2342  0.1156 -0.1441
  216loPI   C2B 3454   2.931   1.622   8.963 -0.1176 -0.1826  0.3088
  216loPI   C3B 3455   2.971   1.652   8.469 -0.0280 -0.0952  0.0324
  216loPI   C4B 3456   3.087   1.536   7.984  0.1624  0.2459 -0.1766
  217loPI    C1 3457  15.255   9.877  10.306 -0.1298 -0.1357  0.1365
  217loPI    C2 3458  15.539   9.601  10.359  0.2388  0.1454 -0.2975
  217loPI    C3 3459  15.200   9.505  10.171  0.1624 -0.1213 -0.0314
  217loPI   PO4 3460  15.333  10.082  10.208 -0.0022 -0.1711  0.0835
  217loPI   GL1 3461  15.608  10.082   9.828 -0.2970  0.3268  0.0477
  217loPI   GL2 3462  15.562   9.734   9.905  0.3612 -0.1058  0.0654
  217loPI   C1A 3463  15.488  10.144   9.329  0.0307 -0.1396 -0.1634
  217loPI   C2A 3464  15.388  10.215   8.906 -0.3662 -0.1284  0.1029
  217loPI   C3A 3465  15.382  10.335   8.476  0.0226  0.4195  0.0749
  217loPI   C4A 3466  15.256  10.166   8.046  0.1289 -0.1360  0.2419
  217loPI   C5A 3467  15.089   9.815   7.852  0.3581 -0.1902 -0.2658
  217loPI   C6A 3468  15.357   9.455   7.698 -0.0443 -0.2975  0.0984
  217loPI   C1B 3469  15.184   9.780   9.622  0.2270  0.1324 -0.1847
  217loPI   C2B 3470  15.026   9.861   9.255 -0.0593  0.2358  0.0947
  217loPI   C3B 3471  14.964   9.857   8.816  0.1911 -0.2562  0.3434
  217loPI   C4B 3472  14.834   9.904   8.314 -0.2143  0.0253  0.2353
  218loPI    C1 3473   4.140   0.116  10.546  0.4587  0.2483  0.0036
  218loPI    C2 3474   4.265  -0.101  10.234 -0.0877 -0.0702 -0.0056
  218loPI    C3 3475   4.324  -0.234  10.607 -0.1433 -0.0832 -0.0013
  218loPI   PO4 3476   3.933   0.258  10.440  0.0004  0.4500 -0.2974
  218loPI   GL1 3477   4.021   0.408   9.999 -0.3206 -0.2370  0.0177
  218loPI   GL2 3478   3.784   0.471   9.951  0.0300  0.0091  0.0286
  218loPI   C1A 3479   4.157   0.171   9.635  0.0364  0.1792  0.0057
  218loPI   C2A 3480   4.261   0.302   9.139  0.0685 -0.2135  0.2824
  218loPI   C3A 3481   4.353   0.311   8.767  0.0695  0.0980  0.1981
  218loPI   C4A 3482   4.376   0.438   8.365 -0.1604  0.0963  0.0164
  218loPI   C5A 3483   4.398   0.492   7.933  0.0724 -0.1408 -0.1148
  218loPI   C6A 3484   4.362   0.586   7.559 -0.0073 -0.1478  0.0660
  218loPI   C1B 3485   3.695   0.582   9.484  0.2724 -0.3618 -0.0353
  218loPI   C2B 3486   3.776   0.440   9.077 -0.3186 -0.0674 -0.2669
  218loPI   C3B 3487   3.824   0.401   8.742 -0.0286  0.1673  0.0606
  218loPI   C4B 3488   3.907   0.468   8.252  0.0339  0.3710  0.3093
  219loPI    C1 3489  12.982  15.299  11.057 -0.0305 -0.3772  0.3249
  219loPI    C2 3490  13.357  15.197  10.964  0.0232 -0.1299  0.2621
  219loPI    C3 3491  13.285  15.541  11.155 -0.2022  0.0157 -0.0759
  219loPI   PO4 3492  12.841  15.305  10.829  0.2877  0.0424  0.2393
  219loPI   GL1 3493  12.679  15.039  10.530  0.3915 -0.1104  0.1889
  219loPI   GL2 3494  12.430  15.255  10.502 -0.0811  0.0861  0.0576
  219loPI   C1A 3495  12.821  15.313  10.141  0.0664 -0.1741 -0.0182
  219loPI   C2A 3496  12.797  15.316   9.723  0.2015  0.1135 -0.2160
  219loPI   C3A 3497  12.787  15.290   9.310 -0.2118 -0.0498  0.2599
  219loPI   C4A 3498  12.586  15.374   8.868 -0.3266  0.2223  0.0591
  219loPI   C5A 3499  12.539  15.369   8.464 -0.0628 -0.0984 -0.0722
  219loPI   C6A 3500  12.240  15.399   8.148  0.0371 -0.0960 -0.3667
  219loPI   C1B 3501  12.339  15.431  10.107 -0.2567  0.1225 -0.1224
  219loPI   C2B 3502  12.278  15.350   9.576 -0.3088 -0.1490 -0.1421
  219loPI   C3B 3503  12.178  15.489   9.188 -0.2074 -0.3099  0.0521
  219loPI   C4B 3504  12.128  15.581   8.674  0.1030 -0.0862 -0.0963
  220loPI    C1 3505   1.670  11.879   9.515  0.0075 -0.0446  0.1899
  220loPI    C2 3506   1.273  11.922   9.523  0.0030  0.0246 -0.2088
  220loPI    C3 3507   1.437  11.568   9.611 -0.1696 -0.1025 -0.3863
  220loPI   PO4 3508   1.779  11.936   9.277 -0.2343 -0.1102  0.2863
  220loPI   GL1 3509   1.925  12.276   9.129 -0.2860 -0.1674 -0.1544
  220loPI   GL2 3510   2.165  12.146   9.011 -0.1133 -0.1111 -0.2324
  220loPI   C1A 3511   1.914  12.629   8.905 -0.1896  0.3223 -0.1164
  220loPI   C2A 3512   1.844  12.650   8.497  0.2645 -0.0076 -0.1740
  220loPI   C3A 3513   1.948  12.628   8.131  0.1281 -0.1802  0.0302
  220loPI   C4A 3514   2.038  12.395   7.683 -0.1978  0.0332  0.0513
  220loPI   C5A 3515   1.901  12.078   7.443  0.0895 -0.0309 -0.0189
  220loPI   C6A 3516   2.329  11.916   7.173 -0.3026 -0.2985  0.0446
  220loPI   C1B 3517   2.070  12.212   8.585 -0.1535 -0.1801  0.1059
  220loPI   C2B 3518   2.308  12.225   8.212 -0.2083  0.0751  0.0032
  220loPI   C3B 3519   2.357  12.023   7.774  0.1018 -0.3867 -0.0536
  220loPI   C4B 3520   2.693  11.883   7.520 -0.0663 -0.3647  0.1873
  221loPI    C1 3521  14.999  13.052  10.574  0.1214 -0.0984 -0.1210
  221loPI    C2 3522  15.323  13.239  10.718 -0.0086 -0.1482  0.2461
  221loPI    C3 3523  15.012  13.163  10.958 -0.1637 -0.3882 -0.0235
  221loPI   PO4 3524  14.993  13.207  10.334 -0.2310 -0.2834 -0.3706
  221loPI   GL1 3525  15.021  13.102   9.982  0.1013  0.0954 -0.1358
  221loPI   GL2 3526  15.063  13.402   9.835 -0.1166 -0.0592  0.0309
  221loPI   C1A 3527  14.692  13.301   9.570 -0.0786 -0.0715  0.1262
  221loPI   C2A 3528  14.581  13.366   9.153  0.1533  0.3500 -0.3779
  221loPI   C3A 3529  14.540  13.391   8.789  0.2242  0.0087  0.2213
  221loPI   C4A 3530  14.597  13.280   8.366 -0.0378 -0.2970  0.3779
  221loPI   C5A 3531  14.703  13.195   7.917 -0.0200  0.2826 -0.0815
  221loPI   C6A 3532  14.902  13.243   7.505  0.0335 -0.0612  0.5217
  221loPI   C1B 3533  15.232  13.199   9.534  0.0478 -0.0022 -0.1428
  221loPI   C2B 3534  15.278  13.098   9.161  0.3466  0.1415 -0.0201
  221loPI   C3B 3535  15.148  13.137   8.745  0.2003 -0.2081 -0.1001
  221loPI   C4B 3536  15.205  13.204   8.399 -0.1103  0.0624 -0.3365
  222loPI    C1 3537  17.646  10.530   9.935 -0.1645 -0.1067 -0.1687
  222loPI    C2 3538  17.869  10.272  10.143 -0.0245  0.0625 -0.1058
  222loPI    C3 3539  17.473  10.224  10.124 -0.0478  0.0840  0.2594
  222loPI   PO4 3540  17.847  10.501   9.655  0.0910  0.1062 -0.1472
  222loPI   GL1 3541  18.150  10.608   9.282  0.1201  0.1535  0.1276
  222loPI   GL2 3542  18.331  10.580   9.101 -0.1874 -0.2628  0.0410
  222loPI   C1A 3543  17.759  10.563   9.022  0.0522 -0.1457 -0.1098
  222loPI   C2A 3544  17.415  10.635   8.743  0.0944 -0.3376 -0.1847
  222loPI   C3A 3545  17.248  10.334   8.469  0.2391  0.1491 -0.2206
  222loPI   C4A 3546  17.251  10.345   8.009 -0.0354 -0.0268 -0.1424
  222loPI   C5A 3547  17.468  10.426   7.665 -0.0607  0.0591  0.0176
  222loPI   C6A 3548  17.732  10.507   7.265  0.0649  0.1323 -0.1112
  222loPI   C1B 3549  18.548  10.624   8.678  0.2399 -0.5797  0.0408
  222loPI   C2B 3550  18.561  10.712   8.291  0.2129 -0.0934 -0.1915
  222loPI   C3B 3551  18.513  10.679   7.816  0.0338 -0.1341  0.3632
  222loPI   C4B 3552  18.400  10.671   7.342 -0.1373  0.1423  0.1220
  223loPI    C1 3553   7.174  13.911  10.121  0.1012  0.2443 -0.1779
  223loPI    C2 3554   7.285  13.876  10.504  0.3076  0.0205 -0.2560
  223loPI    C3 3555   7.178  14.233  10.359 -0.3329  0.0139  0.1581
  223loPI   PO4 3556   6.957  13.819  10.070 -0.4409 -0.1955 -0.2526
  223loPI   GL1 3557   6.975  13.457   9.796  0.4322 -0.2072 -0.2291
  223loPI   GL2 3558   7.131  13.735   9.575  0.1587 -0.0008  0.2183
  223loPI   C1A 3559   7.242  13.248   9.555 -0.2120 -0.0591 -0.2824
  223loPI   C2A 3560   7.265  13.197   9.106 -0.1924  0.0941  0.2153
  223loPI   C3A 3561   7.269  13.130   8.645  0.0532 -0.0087 -0.1020
  223loPI   C4A 3562   7.216  13.335   8.151 -0.2873 -0.0585  0.3480
  223loPI   C5A 3563   7.199  13.510   7.855 -0.0226  0.3271  0.2229
  223loPI   C6A 3564   7.127  13.904   7.611 -0.0591  0.3452 -0.3877
  223loPI   C1B 3565   7.031  13.660   9.114 -0.1946 -0.4528 -0.1677
  223loPI   C2B 3566   7.092  13.712   8.607  0.0474  0.2489 -0.0952
  223loPI   C3B 3567   7.196  13.799   8.299 -0.1053 -0.3491  0.0096
  223loPI   C4B 3568   7.308  14.192   8.036  0.1385  0.2378 -0.0306
  224loPI    C1 3569   6.791   2.007  10.376  0.0806 -0.1096  0.1402
  224loPI    C2 3570   6.724   2.270  10.082  0.1893 -0.1283  0.0981
  224loPI    C3 3571   6.682   2.382  10.463  0.2787 -0.0369  0.0815
  224loPI   PO4 3572   6.708   1.754  10.317 -0.2168 -0.3641  0.1083
  224loPI   GL1 3573   6.912   1.541  10.009 -0.0263  0.0051 -0.1484
  224loPI   GL2 3574   7.288   1.765   9.831 -0.3073  0.1793 -0.0280
  224loPI   C1A 3575   6.975   1.488   9.593  0.2928 -0.2733  0.0341
  224loPI   C2A 3576   6.928   1.422   9.195  0.0977 -0.1080 -0.2210
  224loPI   C3A 3577   6.938   1.531   8.779 -0.2480 -0.1014 -0.5455
  224loPI   C4A 3578   6.939   1.414   8.451  0.1357 -0.1990 -0.4390
  224loPI   C5A 3579   7.060   1.533   8.065  0.6001  0.1999 -0.3162
  224loPI   C6A 3580   7.251   1.428   7.759  0.0286 -0.2957  0.2289
  224loPI   C1B 3581   7.363   1.792   9.394  0.1889  0.1223 -0.1198
  224loPI   C2B 3582   7.205   1.856   9.043 -0.0321  0.1085 -0.0131
  224loPI   C3B 3583   7.314   1.870   8.543 -0.0377  0.1289 -0.0791
  224loPI   C4B 3584   7.511   2.007   8.088  0.4039 -0.0707  0.1313
  225loPI    C1 3585   0.314   8.666   9.936  0.1949 -0.0124  0.1047
  225loPI    C2 3586   0.069   8.979   9.895  0.0681 -0.1315 -0.0587
  225loPI    C3 3587   0.072   8.771  10.236 -0.1087 -0.1707 -0.0801
  225loPI   PO4 3588   0.560   8.753   9.765  0.1093 -0.0340  0.0251
  225loPI   GL1 3589   0.681   8.767   9.341 -0.4286  0.0822 -0.0715
  225loPI   GL2 3590   0.299   8.890   9.335 -0.2762  0.2388  0.0368
  225loPI   C1A 3591   0.645   8.890   8.890 -0.0629 -0.3624  0.0760
  225loPI   C2A 3592   0.693   8.883   8.436  0.0870 -0.1718 -0.1244
  225loPI   C3A 3593   0.687   8.683   8.083 -0.0726  0.1828 -0.2703
  225loPI   C4A 3594   0.700   8.564   7.752  0.0560 -0.1296  0.0739
  225loPI   C5A 3595   0.741   8.325   7.407  0.0226 -0.0277  0.0640
  225loPI   C6A 3596   0.438   8.278   7.023  0.0412 -0.2911  0.1042
  225loPI   C1B 3597   0.323   8.518   9.145 -0.0593 -0.0004  0.0880
  225loPI   C2B 3598   0.330   8.613   8.678 -0.1993  0.0095  0.0535
  225loPI   C3B 3599   0.207   8.778   8.209 -0.3948 -0.0809 -0.3397
  225loPI   C4B 3600   0.199   8.612   7.846  0.1112  0.2911  0.0100
  226loPI    C1 3601  14.349  12.928  10.570  0.0576  0.0871 -0.0621
  226loPI    C2 3602  14.638  12.822  10.826  0.1327 -0.1409 -0.2379
  226loPI    C3 3603  14.305  12.601  10.797  0.1084 -0.0950 -0.3108
  226loPI   PO4 3604  14.547  13.025  10.366  0.1585  0.0908  0.1219
  226loPI   GL1 3605  14.388  13.111  10.040 -0.0321  0.0436  0.3025
  226loPI   GL2 3606  14.540  12.848   9.923  0.0655 -0.0888 -0.1369
  226loPI   C1A 3607  14.318  13.011   9.497 -0.1246  0.1838  0.1485
  226loPI   C2A 3608  14.275  12.970   9.032  0.2083  0.1258 -0.0445
  226loPI   C3A 3609  14.265  12.955   8.630  0.0987  0.2505 -0.1178
  226loPI   C4A 3610  14.155  12.961   8.274 -0.1762 -0.2483 -0.1357
  226loPI   C5A 3611  14.214  13.294   7.984 -0.0620  0.0265 -0.1942
  226loPI   C6A 3612  14.170  13.417   7.701 -0.0737 -0.2148 -0.3538
  226loPI   C1B 3613  14.902  12.788   9.631  0.3175 -0.3235  0.1288
  226loPI   C2B 3614  14.808  12.897   9.189 -0.0568 -0.3542  0.0569
  226loPI   C3B 3615  14.764  12.849   8.719  0.2738 -0.2578 -0.2249
  226loPI   C4B 3616  14.785  12.839   8.305 -0.2011 -0.0443 -0.1796
  227loPI    C1 3617  10.178   1.099  11.178 -0.1995  0.4693 -0.1056
  227loPI    C2 3618  10.576   1.062  11.196 -0.2487 -0.0849 -0.0044
  227loPI    C3 3619  10.383   1.280  11.470 -0.0464 -0.1042  0.1558
  227loPI   PO4 3620  10.193   1.147  10.853 -0.1753  0.0374  0.3860
  227loPI   GL1 3621  10.152   0.913  10.372 -0.1164  0.2910  0.0666
  227loPI   GL2 3622   9.940   0.810  10.512 -0.0249  0.1534 -0.1768
  227loPI   C1A 3623  10.165   1.238  10.004 -0.0037  0.0249 -0.0695
  227loPI   C2A 3624  10.229   1.431   9.599  0.2839  0.0066 -0.1637
  227loPI   C3A 3625  10.144   1.380   9.197  0.0364 -0.0336  0.0297
  227loPI   C4A 3626  10.154   1.415   8.810 -0.0409 -0.0197  0.1267
  227loPI   C5A 3627  10.052   1.314   8.454  0.0140  0.0362 -0.3085
  227loPI   C6A 3628   9.935   1.167   8.102 -0.0670 -0.1216 -0.0365
  227loPI   C1B 3629   9.874   0.747  10.003 -0.0536 -0.1895  0.0075
  227loPI   C2B 3630   9.852   1.004   9.634 -0.1756 -0.0135 -0.3342
  227loPI   C3B 3631   9.780   1.086   9.256 -0.3090 -0.0600 -0.0174
  227loPI   C4B 3632   9.785   1.090   8.894  0.3065 -0.2562 -0.1068
  228loPI    C1 3633  11.162  16.262  11.028 -0.0834  0.0234  0.1120
  228loPI    C2 3634  11.365  16.334  11.365 -0.1372 -0.0017  0.1498
  228loPI    C3 3635  11.088  16.045  11.355 -0.0310 -0.1009  0.0423
  228loPI   PO4 3636  11.108  16.503  10.922 -0.4458  0.2542 -0.1477
  228loPI   GL1 3637  10.993  16.429  10.533  0.1814 -0.0399  0.2765
  228loPI   GL2 3638  11.118  16.667  10.380  0.0384  0.1188 -0.2311
  228loPI   C1A 3639  10.777  16.462  10.140 -0.2847  0.3344  0.0918
  228loPI   C2A 3640  10.702  16.407   9.697  0.0080 -0.1324 -0.2357
  228loPI   C3A 3641  10.565  16.403   9.302  0.1285 -0.2765 -0.0823
  228loPI   C4A 3642  10.544  16.438   8.903 -0.1488 -0.1070  0.1090
  228loPI   C5A 3643  10.591  16.274   8.424  0.2328 -0.1992 -0.2320
  228loPI   C6A 3644  10.715  16.013   8.061  0.0508 -0.1066  0.1873
  228loPI   C1B 3645  11.124  16.777   9.908 -0.2090  0.0205  0.0603
  228loPI   C2B 3646  11.128  16.817   9.443  0.1976 -0.0560  0.0437
  228loPI   C3B 3647  10.965  16.842   9.006  0.1686 -0.1213 -0.0158
  228loPI   C4B 3648  11.036  16.759   8.549  0.2362 -0.1842 -0.0241
  229loPI    C1 3649   1.360  12.343   9.887  0.2507  0.0208  0.0152
  229loPI    C2 3650   1.652  12.604   9.967  0.1598  0.0393  0.2956
  229loPI    C3 3651   1.386  12.508  10.250 -0.1121  0.0282  0.0412
  229loPI   PO4 3652   1.233  12.440   9.593 -0.1718  0.3089  0.2584
  229loPI   GL1 3653   1.076  12.245   9.193  0.1725 -0.0580 -0.0503
  229loPI   GL2 3654   1.378  12.207   9.059  0.1782 -0.0175  0.3080
  229loPI   C1A 3655   1.059  12.295   8.692  0.0180  0.3659  0.2138
  229loPI   C2A 3656   1.104  12.303   8.191  0.1510  0.2998  0.3466
  229loPI   C3A 3657   0.925  12.285   7.722  0.2660 -0.0512  0.2805
  229loPI   C4A 3658   0.438  12.356   7.443 -0.2540  0.0017  0.0919
  229loPI   C5A 3659   0.401  12.470   7.007  0.2603 -0.2958 -0.3113
  229loPI   C6A 3660   0.431  12.820   6.756 -0.0478 -0.1133  0.1249
  229loPI   C1B 3661   1.590  12.331   8.756  0.1298 -0.0616  0.0129
  229loPI   C2B 3662   1.638  12.251   8.338 -0.0601 -0.1224  0.0021
  229loPI   C3B 3663   1.519  12.149   7.930  0.4813  0.0310 -0.0080
  229loPI   C4B 3664   1.402  11.893   7.533  0.1438  0.2100 -0.1237
  230loPI    C1 3665  11.098   2.171  10.718  0.0060  0.1215 -0.1460
  230loPI    C2 3666  10.870   1.895  10.897  0.0690  0.1061 -0.0889
  230loPI    C3 3667  10.901   1.902  10.498 -0.1983  0.2393 -0.1095
  230loPI   PO4 3668  11.372   2.143  10.793 -0.2051 -0.0797  0.0219
  230loPI   GL1 3669  11.470   2.044  10.377 -0.0343  0.0781 -0.4101
  230loPI   GL2 3670  11.717   2.202  10.407  0.1792  0.1523  0.0355
  230loPI   C1A 3671  11.105   2.064  10.093  0.0966 -0.0788  0.0669
  230loPI   C2A 3672  11.086   2.144   9.687  0.0155  0.1268 -0.0718
  230loPI   C3A 3673  10.913   2.125   9.316  0.1305  0.1738 -0.0518
  230loPI   C4A 3674  10.888   2.150   8.825  0.3059  0.0259 -0.2170
  230loPI   C5A 3675  10.880   2.167   8.442  0.2585  0.2466  0.3153
  230loPI   C6A 3676  10.721   2.497   8.273  0.3289 -0.4219  0.1323
  230loPI   C1B 3677  11.942   2.255  10.027 -0.0254 -0.0331 -0.1651
  230loPI   C2B 3678  11.875   2.331   9.619 -0.2837 -0.1235 -0.1335
  230loPI   C3B 3679  11.865   2.253   9.202  0.0224  0.2985  0.0276
  230loPI   C4B 3680  11.726   2.391   8.834 -0.0905  0.1160  0.0105
  231loPI    C1 3681   5.411   2.576  10.561  0.1022 -0.1786  0.0265
  231loPI    C2 3682   5.171   2.548  10.879 -0.1767 -0.0663 -0.1696
  231loPI    C3 3683   5.215   2.235  10.633 -0.1119 -0.0903 -0.1278
  231loPI   PO4 3684   5.415   2.829  10.345  0.2280  0.1243  0.1703
  231loPI   GL1 3685   5.569   2.985   9.970 -0.2572 -0.0470 -0.0318
  231loPI   GL2 3686   5.834   3.033  10.034  0.2690 -0.0397  0.1384
  231loPI   C1A 3687   5.441   2.818   9.558 -0.0010 -0.0192 -0.0030
  231loPI   C2A 3688   5.573   2.800   9.176  0.1048 -0.1547  0.1187
  231loPI   C3A 3689   5.571   2.891   8.683 -0.2533  0.0588 -0.0677
  231loPI   C4A 3690   5.759   2.845   8.307 -0.2987 -0.0515 -0.1612
  231loPI   C5A 3691   6.095   2.580   8.062  0.0498  0.1772 -0.1978
  231loPI   C6A 3692   6.276   2.594   7.605 -0.3978  0.2415 -0.2381
  231loPI   C1B 3693   5.837   3.155   9.528  0.0670  0.0014 -0.2402
  231loPI   C2B 3694   5.893   3.208   9.087  0.2421  0.0958  0.0123
  231loPI   C3B 3695   6.085   3.122   8.610  0.1025  0.2187 -0.3672
  231loPI   C4B 3696   6.167   3.058   8.162 -0.0324  0.0249  0.1297
  232loPI    C1 3697  13.870  12.899  10.928 -0.0869  0.2586 -0.0642
  232loPI    C2 3698  13.479  12.979  10.941 -0.0715  0.3037  0.1657
  232loPI    C3 3699  13.657  12.800  11.251 -0.0365 -0.3215 -0.1968
  232loPI   PO4 3700  13.880  12.806  10.652  0.1576 -0.0594 -0.1137
  232loPI   GL1 3701  13.913  13.076  10.293  0.1884 -0.1265 -0.1742
  232loPI   GL2 3702  13.865  12.778  10.146 -0.0419 -0.0324  0.2519
  232loPI   C1A 3703  13.964  13.159   9.887  0.1592 -0.0889 -0.0042
  232loPI   C2A 3704  13.808  13.055   9.410  0.0852  0.0637  0.1650
  232loPI   C3A 3705  13.789  13.098   8.995  0.1426 -0.1492 -0.1606
  232loPI   C4A 3706  13.699  13.102   8.555 -0.2550 -0.2147  0.1997
  232loPI   C5A 3707  13.728  13.346   8.253  0.2661  0.1635 -0.0781
  232loPI   C6A 3708  13.957  13.733   8.067 -0.1669 -0.0599 -0.0612
  232loPI   C1B 3709  13.981  12.689   9.733  0.0378  0.0492  0.1656
  232loPI   C2B 3710  14.000  12.585   9.381  0.0127  0.0373  0.1052
  232loPI   C3B 3711  13.873  12.598   8.923  0.0272  0.1776 -0.1133
  232loPI   C4B 3712  13.804  12.589   8.490 -0.1150 -0.0866 -0.0686
  233loPI    C1 3713   6.039   0.171  10.641 -0.0978 -0.1251  0.1405
  233loPI    C2 3714   6.402   0.081  10.782 -0.0696 -0.2069  0.0181
  233loPI    C3 3715   6.104  -0.185  10.811 -0.1393 -0.1125  0.1829
  233loPI   PO4 3716   6.096   0.323  10.453  0.0528 -0.0644  0.0855
  233loPI   GL1 3717   6.027   0.125  10.041 -0.0592 -0.1595  0.0848
  233loPI   GL2 3718   5.880  -0.044   9.887 -0.2845  0.1863 -0.1999
  233loPI   C1A 3719   6.260   0.207   9.686  0.0801  0.2815 -0.4149
  233loPI   C2A 3720   6.309   0.183   9.314 -0.0875  0.2165  0.1768
  233loPI   C3A 3721   6.270   0.104   8.792  0.0540  0.0041 -0.0599
  233loPI   C4A 3722   6.293   0.226   8.389  0.0284  0.3676 -0.0692
  233loPI   C5A 3723   6.031   0.124   8.057 -0.0153  0.1438 -0.3637
  233loPI   C6A 3724   5.721   0.016   7.935 -0.2515  0.3318 -0.1508
  233loPI   C1B 3725   5.776  -0.010   9.490  0.1600  0.1775  0.2602
  233loPI   C2B 3726   5.920  -0.146   9.121  0.1476  0.0151  0.1295
  233loPI   C3B 3727   5.897  -0.238   8.807  0.0476  0.0362 -0.0949
  233loPI   C4B 3728   5.961  -0.221   8.410  0.1129  0.3909 -0.2971
  234loPI    C1 3729  14.390  17.690  10.409  0.0621 -0.0809 -0.1600
  234loPI    C2 3730  14.695  17.505  10.589 -0.0745 -0.0621  0.0967
  234loPI    C3 3731  14.326  17.353  10.616 -0.1276  0.0468 -0.0063
  234loPI   PO4 3732  14.391  17.737  10.242 -0.0864  0.1447  0.3026
  234loPI   GL1 3733  14.161  17.802   9.790 -0.1500  0.0485 -0.1494
  234loPI   GL2 3734  14.313  17.497   9.756  0.0248 -0.0774  0.0701
  234loPI   C1A 3735  14.035  17.866   9.416 -0.0489 -0.0954 -0.0696
  234loPI   C2A 3736  13.988  17.902   8.921 -0.2472  0.0154 -0.1410
  234loPI   C3A 3737  13.873  17.888   8.560 -0.0951 -0.1195 -0.3832
  234loPI   C4A 3738  13.838  17.902   8.159 -0.2666  0.0705 -0.0764
  234loPI   C5A 3739  13.735  18.004   7.764 -0.0820  0.1714  0.0053
  234loPI   C6A 3740  13.857  18.014   7.411  0.3061 -0.0734  0.0601
  234loPI   C1B 3741  14.186  17.411   9.379 -0.1580  0.2413  0.2006
  234loPI   C2B 3742  14.169  17.300   8.950  0.1763  0.1172  0.3554
  234loPI   C3B 3743  14.057  17.348   8.627  0.2358 -0.3783  0.4049
  234loPI   C4B 3744  13.952  17.369   8.212 -0.1834 -0.0670 -0.1587
  235loPI    C1 3745  16.824   2.918  10.128  0.2403 -0.0407 -0.0749
  235loPI    C2 3746  16.783   3.137  10.460 -0.3466 -0.3194  0.0496
  235loPI    C3 3747  16.992   2.796  10.470  0.0829 -0.0654 -0.0056
  235loPI   PO4 3748  16.912   3.169   9.934  0.0426 -0.0870 -0.0709
  235loPI   GL1 3749  16.877   3.443   9.591  0.2269 -0.2036  0.1304
  235loPI   GL2 3750  17.285   3.523   9.556  0.1316 -0.1899  0.0791
  235loPI   C1A 3751  16.743   3.534   9.211  0.0849  0.1322 -0.0829
  235loPI   C2A 3752  16.740   3.646   8.899 -0.1117 -0.1415 -0.1972
  235loPI   C3A 3753  16.660   3.893   8.480  0.0466 -0.3779 -0.3486
  235loPI   C4A 3754  16.475   3.998   8.151 -0.2927  0.3271  0.2147
  235loPI   C5A 3755  16.306   4.269   7.904 -0.1615 -0.0031 -0.0660
  235loPI   C6A 3756  16.185   4.123   7.473  0.1954  0.1163 -0.0695
  235loPI   C1B 3757  17.189   3.310   9.199  0.3313  0.0694  0.1898
  235loPI   C2B 3758  17.115   3.255   8.781  0.1657  0.0582 -0.1717
  235loPI   C3B 3759  17.012   3.231   8.334 -0.0239  0.0614 -0.1493
  235loPI   C4B 3760  16.853   3.129   7.965 -0.3396  0.0944 -0.0204
  236loPI    C1 3761   1.989   7.782   9.830 -0.0172 -0.0870 -0.1191
  236loPI    C2 3762   1.896   7.529  10.126  0.0906 -0.1088 -0.1037
  236loPI    C3 3763   1.728   7.891  10.112 -0.2142 -0.2521 -0.2345
  236loPI   PO4 3764   1.984   7.704   9.592  0.0494  0.0366  0.0253
  236loPI   GL1 3765   2.000   7.792   9.300  0.1532  0.4259  0.1627
  236loPI   GL2 3766   1.992   8.115   9.228 -0.0092 -0.2130 -0.2513
  236loPI   C1A 3767   2.135   7.640   8.948  0.0198  0.0835  0.3503
  236loPI   C2A 3768   2.209   7.481   8.635  0.2453 -0.0892 -0.1561
  236loPI   C3A 3769   2.085   7.353   8.305  0.0701 -0.4365  0.2580
  236loPI   C4A 3770   2.089   6.993   7.957 -0.1924 -0.1262 -0.2450
  236loPI   C5A 3771   2.349   6.901   7.613  0.0976 -0.0886  0.1977
  236loPI   C6A 3772   2.784   6.721   7.587  0.2452  0.1927 -0.2260
  236loPI   C1B 3773   1.834   8.075   8.862  0.0592 -0.1021 -0.0337
  236loPI   C2B 3774   1.807   7.953   8.473 -0.0572  0.1006 -0.2495
  236loPI   C3B 3775   1.815   8.013   8.105  0.1625 -0.0557  0.0473
  236loPI   C4B 3776   1.626   7.925   7.662  0.2946 -0.2340 -0.0614
  237loPI    C1 3777   5.405  13.806  10.117  0.1986 -0.0963 -0.0211
  237loPI    C2 3778   5.341  13.595  10.451 -0.0028 -0.2525 -0.1559
  237loPI    C3 3779   5.240  13.981  10.436  0.0910 -0.2212 -0.0073
  237loPI   PO4 3780   5.270  13.708   9.960  0.0540  0.0239 -0.0162
  237loPI   GL1 3781   5.490  13.736   9.526  0.4262  0.2433 -0.0802
  237loPI   GL2 3782   5.172  13.762   9.269  0.2148 -0.0885  0.0103
  237loPI   C1A 3783   5.637  13.650   9.139 -0.0790 -0.2821 -0.1204
  237loPI   C2A 3784   5.814  13.647   8.816 -0.0357 -0.0280 -0.0854
  237loPI   C3A 3785   5.697  13.806   8.444  0.1581  0.2846 -0.0864
  237loPI   C4A 3786   5.764  13.691   8.020  0.4001 -0.0588 -0.5064
  237loPI   C5A 3787   5.930  13.680   7.671 -0.3954 -0.0516 -0.1932
  237loPI   C6A 3788   6.023  13.741   7.235 -0.0859 -0.0713 -0.1244
  237loPI   C1B 3789   5.200  13.890   8.849  0.0178 -0.2498  0.0793
  237loPI   C2B 3790   5.209  13.939   8.386 -0.2599  0.1404  0.1170
  237loPI   C3B 3791   5.199  13.762   7.999  0.0350  0.0977  0.2972
  237loPI   C4B 3792   5.445  13.749   7.575  0.0967 -0.1114  0.1699
  238loPI    C1 3793   1.314   4.542  10.169  0.0643 -0.0378 -0.0068
  238loPI    C2 3794   1.206   4.872  10.367  0.0708 -0.1513  0.1884
  238loPI    C3 3795   0.933   4.593  10.277  0.0802 -0.1310  0.0950
  238loPI   PO4 3796   1.571   4.655  10.052 -0.0266 -0.3269  0.1349
  238loPI   GL1 3797   1.582   4.833   9.638  0.0027  0.0236  0.0849
  238loPI   GL2 3798   1.385   5.038   9.449  0.1056  0.1605 -0.1540
  238loPI   C1A 3799   1.647   4.565   9.373 -0.0185  0.2457 -0.0437
  238loPI   C2A 3800   1.797   4.470   8.975  0.0924  0.2131  0.0208
  238loPI   C3A 3801   2.004   4.365   8.581 -0.2512  0.2102  0.0692
  238loPI   C4A 3802   2.052   4.393   8.112  0.2712  0.0349  0.0535
  238loPI   C5A 3803   2.186   4.543   7.692 -0.0879 -0.0082  0.0756
  238loPI   C6A 3804   2.125   4.727   7.306 -0.1477  0.4034  0.1382
  238loPI   C1B 3805   1.276   4.774   9.090 -0.1706 -0.1248  0.1924
  238loPI   C2B 3806   1.439   4.666   8.687 -0.1826 -0.0822  0.1072
  238loPI   C3B 3807   1.591   4.559   8.325 -0.1791 -0.0739 -0.2957
  238loPI   C4B 3808   1.518   4.292   7.930  0.2844  0.1130 -0.0722
  239loPI    C1 3809   6.408   9.475  10.724  0.1148 -0.0867  0.0742
  239loPI    C2 3810   6.098   9.398  10.965  0.1185 -0.0936  0.0767
  239loPI    C3 3811   6.398   9.630  11.093 -0.0291  0.1618 -0.0317
  239loPI   PO4 3812   6.396   9.511  10.473  0.2916  0.0018 -0.2761
  239loPI   GL1 3813   6.730   9.324  10.068  0.3280 -0.0390  0.2115
  239loPI   GL2 3814   7.005   9.419   9.892 -0.0902  0.1568  0.0472
  239loPI   C1A 3815   6.766   9.084   9.675 -0.0559  0.2945 -0.3457
  239loPI   C2A 3816   6.868   8.870   9.285  0.1595 -0.0304 -0.3524
  239loPI   C3A 3817   6.784   9.018   8.844  0.2915  0.0089 -0.1209
  239loPI   C4A 3818   6.790   8.980   8.447  0.1268 -0.1787  0.0570
  239loPI   C5A 3819   6.814   8.863   7.985  0.4226  0.3275  0.0451
  239loPI   C6A 3820   6.550   8.612   7.769 -0.3650  0.0016 -0.0503
  239loPI   C1B 3821   7.176   9.265   9.514  0.0136  0.2383 -0.2425
  239loPI   C2B 3822   7.206   9.239   9.044 -0.0314  0.0018 -0.0743
  239loPI   C3B 3823   7.176   9.255   8.642 -0.0817  0.0067 -0.1062
  239loPI   C4B 3824   7.125   9.205   8.158 -0.0642  0.0924 -0.3186
  240loPI    C1 3825   2.542   9.916   9.706 -0.5183 -0.2649 -0.0859
  240loPI    C2 3826   2.276  10.061   9.967 -0.0400 -0.0234  0.2844
  240loPI    C3 3827   2.648   9.974  10.087  0.0147 -0.4984 -0.1884
  240loPI   PO4 3828   2.384   9.763   9.516  0.1268 -0.1162 -0.1751
  240loPI   GL1 3829   2.280   9.786   9.094 -0.2913  0.0795  0.0761
  240loPI   GL2 3830   1.929   9.895   9.104 -0.0725  0.2097 -0.0607
  240loPI   C1A 3831   2.237   9.819   8.695 -0.1203 -0.1022  0.0123
  240loPI   C2A 3832   2.266   9.845   8.279 -0.1049 -0.1140 -0.1136
  240loPI   C3A 3833   2.428   9.928   7.872  0.2488  0.1407 -0.0969
  240loPI   C4A 3834   2.501   9.847   7.430  0.1210  0.0362  0.0075
  240loPI   C5A 3835   2.223   9.779   7.025  0.2920  0.0559  0.1489
  240loPI   C6A 3836   1.887   9.902   6.874  0.1455  0.1566 -0.0112
  240loPI   C1B 3837   1.806  10.080   8.739  0.0107 -0.2831  0.5623
  240loPI   C2B 3838   1.859  10.102   8.339  0.0440 -0.1120 -0.5611
  240loPI   C3B 3839   1.944  10.174   7.977  0.1772 -0.0108 -0.3335
  240loPI   C4B 3840   2.045   9.978   7.561 -0.0615 -0.0359 -0.0409
  241loPI    C1 3841  14.133  18.116  10.403  0.1216  0.1843 -0.1465
  241loPI    C2 3842  14.265  18.415  10.634  0.0407  0.0678  0.0538
  241loPI    C3 3843  14.309  18.036  10.754 -0.0758  0.0092 -0.0853
  241loPI   PO4 3844  14.251  18.209  10.159 -0.2257  0.1670  0.1191
  241loPI   GL1 3845  13.977  18.276   9.870 -0.0698  0.2386 -0.2405
  241loPI   GL2 3846  13.739  18.080   9.946  0.0054 -0.0755  0.0525
  241loPI   C1A 3847  13.952  18.341   9.361 -0.0830 -0.2158 -0.2006
  241loPI   C2A 3848  13.869  18.360   8.932 -0.1238  0.1174  0.0969
  241loPI   C3A 3849  13.737  18.420   8.487 -0.2199  0.0963 -0.0081
  241loPI   C4A 3850  13.666  18.453   8.019  0.2531  0.1261  0.0721
  241loPI   C5A 3851  13.811  18.808   7.866  0.0930 -0.0703 -0.1938
  241loPI   C6A 3852  14.248  19.045   7.822  0.0051 -0.0320 -0.0331
  241loPI   C1B 3853  13.560  17.927   9.614  0.0414  0.0312  0.0809
  241loPI   C2B 3854  13.539  18.010   9.253  0.0931 -0.0566  0.0198
  241loPI   C3B 3855  13.444  18.008   8.850 -0.0076 -0.1519  0.0227
  241loPI   C4B 3856  13.355  18.013   8.379  0.0115 -0.0427 -0.1512
  242loPI    C1 3857  13.067   7.437  10.660 -0.1820 -0.2127  0.0212
  242loPI    C2 3858  13.276   7.198  10.903  0.1489  0.2145  0.1713
  242loPI    C3 3859  12.949   7.385  11.038  0.0063  0.0110  0.1134
  242loPI   PO4 3860  13.031   7.326  10.439  0.1143  0.2042  0.1418
  242loPI   GL1 3861  12.934   7.295  10.074 -0.1741  0.3135  0.0717
  242loPI   GL2 3862  12.573   7.404  10.255 -0.0612  0.2638  0.1788
  242loPI   C1A 3863  12.994   7.297   9.611  0.3890 -0.2227  0.0736
  242loPI   C2A 3864  12.914   7.262   9.200 -0.0206 -0.2039 -0.3454
  242loPI   C3A 3865  12.881   7.148   8.785  0.2267  0.0419  0.2095
  242loPI   C4A 3866  12.978   7.205   8.317 -0.0114 -0.1018 -0.2460
  242loPI   C5A 3867  13.160   7.384   8.000 -0.0875  0.1773 -0.3312
  242loPI   C6A 3868  13.302   7.223   7.567  0.2173 -0.0573 -0.1898
  242loPI   C1B 3869  12.561   7.388   9.814 -0.3857  0.0297  0.2815
  242loPI   C2B 3870  12.525   7.391   9.403  0.4502 -0.2118  0.0047
  242loPI   C3B 3871  12.421   7.390   8.958  0.3328 -0.1203 -0.1921
  242loPI   C4B 3872  12.504   7.328   8.459  0.1207  0.2887 -0.3393
  243loPI    C1 3873   5.633   8.963  10.407  0.0557  0.0003 -0.0210
  243loPI    C2 3874   5.375   9.005  10.710 -0.0179 -0.3675 -0.0277
  243loPI    C3 3875   5.743   9.161  10.737 -0.0691 -0.2803  0.1934
  243loPI   PO4 3876   5.457   8.974  10.203  0.0678  0.0148 -0.2264
  243loPI   GL1 3877   5.609   9.151   9.905  0.0001 -0.0428 -0.1189
  243loPI   GL2 3878   5.750   9.351   9.859  0.0990  0.0158 -0.3982
  243loPI   C1A 3879   5.445   8.930   9.500 -0.1642 -0.0109 -0.0517
  243loPI   C2A 3880   5.540   8.935   9.113 -0.0466 -0.0466  0.1014
  243loPI   C3A 3881   5.402   8.858   8.706 -0.0096  0.1726 -0.3815
  243loPI   C4A 3882   5.420   8.916   8.321 -0.1830  0.2021 -0.0475
  243loPI   C5A 3883   5.431   8.854   7.860 -0.0662 -0.1245  0.0806
  243loPI   C6A 3884   5.587   8.682   7.533  0.0237 -0.1086  0.0472
  243loPI   C1B 3885   5.892   9.305   9.510 -0.2339 -0.1077  0.0835
  243loPI   C2B 3886   5.896   9.266   9.018  0.1915 -0.0181 -0.1748
  243loPI   C3B 3887   5.699   9.251   8.561  0.2344  0.0620  0.0391
  243loPI   C4B 3888   5.762   9.267   8.175  0.0138 -0.0110 -0.1185
  244loPI    C1 3889   3.103   9.909  10.010  0.0877 -0.2456 -0.0762
  244loPI    C2 3890   3.482   9.941  10.133 -0.0017 -0.2001  0.1937
  244loPI    C3 3891   3.184   9.962  10.399 -0.2030 -0.0342 -0.0416
  244loPI   PO4 3892   3.081  10.035   9.726  0.3417 -0.1385 -0.3524
  244loPI   GL1 3893   3.131   9.744   9.284  0.1395 -0.1611  0.1771
  244loPI   GL2 3894   2.763   9.624   9.228  0.0118 -0.0158  0.2529
  244loPI   C1A 3895   3.064   9.945   8.972 -0.1512  0.0964 -0.2705
  244loPI   C2A 3896   3.174   9.840   8.475 -0.0326 -0.3037  0.2847
  244loPI   C3A 3897   3.301   9.724   8.035 -0.0032 -0.2488  0.1670
  244loPI   C4A 3898   3.677   9.507   7.916 -0.1583 -0.1157 -0.1844
  244loPI   C5A 3899   3.922   9.279   7.616  0.1356 -0.0546  0.1698
  244loPI   C6A 3900   4.323   9.219   7.340  0.1404  0.2374 -0.2207
  244loPI   C1B 3901   2.711   9.647   8.826  0.2426 -0.2418  0.0605
  244loPI   C2B 3902   2.680   9.676   8.468 -0.1416 -0.0524  0.2455
  244loPI   C3B 3903   2.779   9.692   8.066 -0.0343  0.2423 -0.1079
  244loPI   C4B 3904   2.968   9.830   7.630  0.1482  0.0091  0.4344
  245loPI    C1 3905  10.922  12.034  11.122  0.1241 -0.1092 -0.1320
  245loPI    C2 3906  11.218  12.080  11.388  0.1318 -0.0368 -0.1528
  245loPI    C3 3907  10.868  12.266  11.443 -0.0243 -0.3765  0.0399
  245loPI   PO4 3908  11.059  11.954  10.947 -0.2095 -0.1559 -0.0392
  245loPI   GL1 3909  11.002  11.746  10.531  0.0077  0.1233 -0.0053
  245loPI   GL2 3910  10.797  11.956  10.460  0.2821  0.1716 -0.0279
  245loPI   C1A 3911  11.009  11.740  10.098  0.1304  0.1286 -0.2038
  245loPI   C2A 3912  11.006  11.487   9.674  0.1679 -0.1991 -0.0998
  245loPI   C3A 3913  10.838  11.629   9.381  0.0543 -0.0399  0.0487
  245loPI   C4A 3914  10.782  11.522   8.967  0.2306 -0.2178 -0.1908
  245loPI   C5A 3915  10.804  11.652   8.536 -0.1627 -0.0848 -0.0713
  245loPI   C6A 3916  10.728  11.751   8.101 -0.1639  0.0787 -0.1368
  245loPI   C1B 3917  10.702  12.131  10.207 -0.3121  0.0273  0.2577
  245loPI   C2B 3918  10.753  12.082   9.713  0.1609 -0.1185  0.1114
  245loPI   C3B 3919  10.731  12.138   9.321 -0.1850  0.0653 -0.3772
  245loPI   C4B 3920  10.794  12.077   8.919  0.0600 -0.3994 -0.0761
  246loPI    C1 3921  15.482   9.106  10.673 -0.0689 -0.1331 -0.0363
  246loPI    C2 3922  15.712   9.144  10.349 -0.0807  0.3040 -0.0007
  246loPI    C3 3923  15.869   9.196  10.713 -0.1245  0.0747  0.0527
  246loPI   PO4 3924  15.191   9.122  10.493  0.0627 -0.0549  0.1517
  246loPI   GL1 3925  15.071   8.851  10.118  0.0247  0.1661  0.0692
  246loPI   GL2 3926  15.417   9.015  10.008  0.3358  0.1532  0.0880
  246loPI   C1A 3927  15.021   9.211   9.761 -0.1887 -0.2667 -0.2187
  246loPI   C2A 3928  14.903   9.111   9.364 -0.0651 -0.0837 -0.0065
  246loPI   C3A 3929  14.730   9.039   8.939  0.2154 -0.0472 -0.1727
  246loPI   C4A 3930  14.733   9.168   8.532 -0.0261 -0.1544 -0.0148
  246loPI   C5A 3931  14.612   9.492   8.197  0.2889  0.1358  0.1145
  246loPI   C6A 3932  14.472   9.779   7.859 -0.2507 -0.2823  0.3365
  246loPI   C1B 3933  15.268   8.662   9.718 -0.0491  0.0147 -0.1393
  246loPI   C2B 3934  15.083   8.654   9.247 -0.2326 -0.2719  0.0979
  246loPI   C3B 3935  14.990   8.649   8.735 -0.0336  0.0551 -0.2077
  246loPI   C4B 3936  14.879   8.595   8.274  0.0092  0.1282 -0.1343
  247loPI    C1 3937  13.845   6.432  10.963  0.3317 -0.0076  0.0565
  247loPI    C2 3938  13.801   6.158  11.252  0.1347  0.0860  0.1164
  247loPI    C3 3939  13.791   6.548  11.342  0.3457  0.1146  0.0212
  247loPI   PO4 3940  13.719   6.298  10.734  0.2262 -0.2782  0.0621
  247loPI   GL1 3941  13.624   6.272  10.315 -0.1538  0.2823  0.1709
  247loPI   GL2 3942  13.718   5.898  10.311  0.0622 -0.0051  0.1919
  247loPI   C1A 3943  13.314   6.284   9.926 -0.0493  0.1726 -0.0082
  247loPI   C2A 3944  13.243   6.286   9.415  0.4105  0.0258 -0.2507
  247loPI   C3A 3945  13.204   6.161   8.987  0.0481 -0.1922  0.2385
  247loPI   C4A 3946  13.016   6.117   8.600  0.2706 -0.1894 -0.3128
  247loPI   C5A 3947  12.978   6.133   8.109  0.1977 -0.2897 -0.0457
  247loPI   C6A 3948  12.897   5.803   7.688 -0.0055  0.1759  0.4541
  247loPI   C1B 3949  13.817   6.049   9.849  0.0055 -0.0769 -0.0331
  247loPI   C2B 3950  13.715   6.147   9.466 -0.4246 -0.1359 -0.2419
  247loPI   C3B 3951  13.724   6.097   9.124 -0.1325  0.2182  0.3891
  247loPI   C4B 3952  13.600   5.909   8.764 -0.0496  0.0420  0.1041
  248loPI    C1 3953  13.724   3.926  11.027 -0.0138  0.0092  0.1710
  248loPI    C2 3954  13.680   4.124  11.372  0.0624  0.0552  0.1545
  248loPI    C3 3955  14.022   3.933  11.293  0.0763  0.1152  0.0682
  248loPI   PO4 3956  13.633   4.060  10.784 -0.0424  0.0631  0.2906
  248loPI   GL1 3957  13.550   4.132  10.358  0.0020  0.0258  0.0096
  248loPI   GL2 3958  13.407   3.775  10.349  0.2475 -0.3218  0.0406
  248loPI   C1A 3959  13.785   4.054  10.089 -0.0983 -0.3575 -0.1117
  248loPI   C2A 3960  13.771   4.238   9.732 -0.1007 -0.0967 -0.0507
  248loPI   C3A 3961  13.721   4.200   9.264 -0.0481 -0.1486 -0.3395
  248loPI   C4A 3962  13.708   4.175   8.747 -0.0766 -0.2498 -0.2158
  248loPI   C5A 3963  13.569   4.115   8.325  0.1870  0.0960 -0.4317
  248loPI   C6A 3964  13.558   4.008   8.013  0.2297 -0.0860 -0.0912
  248loPI   C1B 3965  13.435   3.824   9.921  0.0381  0.2245 -0.0221
  248loPI   C2B 3966  13.429   3.830   9.433 -0.1254  0.1472  0.2529
  248loPI   C3B 3967  13.520   3.732   9.053 -0.0411  0.1178 -0.3502
  248loPI   C4B 3968  13.293   3.848   8.663  0.1775  0.0652  0.1561
  249loPI    C1 3969   3.613  16.514  10.442 -0.0813 -0.1394  0.1661
  249loPI    C2 3970   3.845  16.574  10.762  0.1195 -0.4015  0.0739
  249loPI    C3 3971   3.448  16.546  10.805  0.1001  0.0418  0.2342
  249loPI   PO4 3972   3.738  16.525  10.269 -0.1912 -0.2028  0.2474
  249loPI   GL1 3973   3.735  16.473   9.808  0.2002  0.0250  0.0807
  249loPI   GL2 3974   3.513  16.678   9.760  0.1785 -0.0349 -0.0352
  249loPI   C1A 3975   4.140  16.540   9.601  0.2144 -0.2248  0.0175
  249loPI   C2A 3976   4.310  16.778   9.244  0.0932 -0.2034 -0.0695
  249loPI   C3A 3977   4.354  16.809   8.858 -0.0521  0.4550  0.1353
  249loPI   C4A 3978   4.508  16.922   8.585 -0.1382  0.2336 -0.2850
  249loPI   C5A 3979   4.634  16.841   8.180  0.1686  0.1434  0.1315
  249loPI   C6A 3980   4.822  16.821   7.813  0.2571  0.3821 -0.2683
  249loPI   C1B 3981   3.767  16.886   9.430  0.1751 -0.1567 -0.0353
  249loPI   C2B 3982   3.883  16.951   9.014 -0.1290  0.0466 -0.2578
  249loPI   C3B 3983   3.907  17.106   8.664  0.0973 -0.1122  0.0441
  249loPI   C4B 3984   4.175  17.124   8.301  0.0385  0.0017 -0.1084
  250loPI    C1 3985   7.076   6.054  10.813 -0.0641 -0.3346 -0.0950
  250loPI    C2 3986   7.090   6.449  10.751 -0.2087 -0.3237 -0.0607
  250loPI    C3 3987   7.402   6.261  10.916 -0.1694 -0.2111 -0.0059
  250loPI   PO4 3988   7.044   6.055  10.497  0.0908  0.0830 -0.0365
  250loPI   GL1 3989   7.335   5.924  10.168  0.0887 -0.1191 -0.3434
  250loPI   GL2 3990   7.663   5.858  10.187 -0.1179  0.1509 -0.2355
  250loPI   C1A 3991   7.069   5.933   9.866 -0.3197  0.0044 -0.1787
  250loPI   C2A 3992   7.065   5.988   9.423 -0.0312  0.2327 -0.1378
  250loPI   C3A 3993   7.108   6.209   8.988 -0.1954  0.0692 -0.2772
  250loPI   C4A 3994   7.046   6.163   8.556  0.4758 -0.1333  0.0686
  250loPI   C5A 3995   7.027   5.987   8.226  0.0374 -0.2930 -0.0142
  250loPI   C6A 3996   6.754   5.959   7.908  0.1220  0.1566  0.1220
  250loPI   C1B 3997   7.643   5.874   9.640  0.1469 -0.1968 -0.4327
  250loPI   C2B 3998   7.623   5.896   9.134  0.0469  0.0924  0.2961
  250loPI   C3B 3999   7.540   5.975   8.716 -0.2400 -0.4736  0.1221
  250loPI   C4B 4000   7.498   5.755   8.346 -0.4525  0.2402  0.3517
  251loPI    C1 4001  11.346  10.201  10.681 -0.0331 -0.0559 -0.0608
  251loPI    C2 4002  11.155  10.490  10.480 -0.1288 -0.0084  0.0966
  251loPI    C3 4003  11.110  10.458  10.876 -0.0127 -0.1570  0.0989
  251loPI   PO4 4004  11.305  10.003  10.478  0.0086 -0.1414  0.0535
  251loPI   GL1 4005  11.520   9.998  10.139  0.3507 -0.1206  0.2650
  251loPI   GL2 4006  11.856   9.958  10.182 -0.3558 -0.0138  0.1272
  251loPI   C1A 4007  11.503  10.106   9.632  0.0350  0.0080 -0.2344
  251loPI   C2A 4008  11.406  10.113   9.268 -0.4122  0.2387  0.0891
  251loPI   C3A 4009  11.173  10.051   8.863 -0.1945  0.3815 -0.0626
  251loPI   C4A 4010  11.216  10.109   8.380 -0.1744 -0.0816 -0.0159
  251loPI   C5A 4011  11.299  10.120   7.988  0.1822  0.0768  0.2606
  251loPI   C6A 4012  11.304  10.078   7.629 -0.1204  0.0055  0.3194
  251loPI   C1B 4013  11.917   9.948   9.713  0.0698 -0.3277 -0.3956
  251loPI   C2B 4014  11.909   9.995   9.286  0.1240  0.1189 -0.1691
  251loPI   C3B 4015  11.745   9.927   8.933 -0.2125 -0.1539 -0.0996
  251loPI   C4B 4016  11.606   9.999   8.615 -0.1866 -0.0918 -0.2686
  252loPI    C1 4017   1.252  10.997   9.648  0.0821 -0.2362  0.2538
  252loPI    C2 4018   1.266  10.691   9.390  0.4984  0.0258 -0.0465
  252loPI    C3 4019   1.488  10.683   9.723  0.1608 -0.1948  0.1806
  252loPI   PO4 4020   1.213  11.195   9.382  0.0259  0.0079 -0.0714
  252loPI   GL1 4021   1.070  11.173   8.971 -0.0494 -0.0526 -0.0304
  252loPI   GL2 4022   1.198  10.876   8.944 -0.6849  0.1350 -0.3223
  252loPI   C1A 4023   1.332  11.307   8.658 -0.1293 -0.0953 -0.1683
  252loPI   C2A 4024   1.371  11.295   8.211 -0.2849  0.3137  0.3078
  252loPI   C3A 4025   1.406  11.206   7.847 -0.1040  0.0400 -0.1667
  252loPI   C4A 4026   1.586  11.080   7.460  0.2881  0.0265 -0.1740
  252loPI   C5A 4027   1.859  11.007   7.107  0.0002 -0.0339 -0.0389
  252loPI   C6A 4028   2.125  10.838   6.840 -0.0443  0.0154 -0.0437
  252loPI   C1B 4029   1.060  10.938   8.468  0.0304 -0.2150 -0.1253
  252loPI   C2B 4030   0.995  10.978   8.036  0.1078  0.4368  0.0211
  252loPI   C3B 4031   0.892  10.848   7.639  0.1662  0.0635 -0.0704
  252loPI   C4B 4032   0.808  10.805   7.247  0.0549  0.1659 -0.1480
  253loPI    C1 4033  13.689   6.782  10.562  0.2083  0.0315  0.1748
  253loPI    C2 4034  13.552   7.145  10.465  0.1941  0.1012  0.4466
  253loPI    C3 4035  13.295   6.850  10.550  0.2028 -0.0136  0.0921
  253loPI   PO4 4036  13.832   6.746  10.422 -0.0196  0.0352  0.1162
  253loPI   GL1 4037  13.623   6.740  10.034 -0.1589 -0.0403  0.0569
  253loPI   GL2 4038  13.940   6.529  10.024 -0.1825  0.2038  0.1571
  253loPI   C1A 4039  13.576   6.582   9.647 -0.2192  0.1780  0.1161
  253loPI   C2A 4040  13.586   6.567   9.255  0.0012  0.1313 -0.1327
  253loPI   C3A 4041  13.502   6.574   8.811  0.1971  0.1374  0.1313
  253loPI   C4A 4042  13.463   6.316   8.466  0.0986  0.4277 -0.2870
  253loPI   C5A 4043  13.543   5.969   8.220  0.2051  0.3025  0.0774
  253loPI   C6A 4044  13.578   5.797   7.774 -0.0135  0.0503 -0.2094
  253loPI   C1B 4045  14.050   6.495   9.545 -0.0070  0.2081 -0.2417
  253loPI   C2B 4046  14.127   6.407   9.197 -0.3338  0.2144 -0.2249
  253loPI   C3B 4047  13.984   6.326   8.727 -0.1498 -0.1898  0.2266
  253loPI   C4B 4048  13.913   6.310   8.312 -0.1345  0.3212 -0.0897
  254loPI    C1 4049  15.324  11.473  10.640  0.0897  0.0262 -0.0959
  254loPI    C2 4050  15.645  11.588  10.849  0.0285 -0.0907  0.0638
  254loPI    C3 4051  15.601  11.204  10.744 -0.2074 -0.1330  0.3065
  254loPI   PO4 4052  15.343  11.703  10.353  0.0908  0.1100 -0.0395
  254loPI   GL1 4053  15.013  11.613  10.051 -0.0237  0.0971  0.0139
  254loPI   GL2 4054  14.694  11.708  10.149 -0.1209  0.1614  0.0206
  254loPI   C1A 4055  15.138  11.419   9.721 -0.0478 -0.1630  0.1829
  254loPI   C2A 4056  15.130  11.285   9.270  0.2269  0.0535 -0.2893
  254loPI   C3A 4057  15.111  11.160   8.944  0.0995  0.2313 -0.2061
  254loPI   C4A 4058  15.012  11.293   8.547  0.2227 -0.0557  0.3942
  254loPI   C5A 4059  14.940  11.397   8.049  0.0229 -0.2211  0.2657
  254loPI   C6A 4060  15.041  11.355   7.576  0.2425  0.0903  0.0217
  254loPI   C1B 4061  14.632  11.857   9.705 -0.1734 -0.0784 -0.0573
  254loPI   C2B 4062  14.602  11.967   9.336  0.1301 -0.1377  0.1831
  254loPI   C3B 4063  14.487  12.064   9.036  0.0175  0.1486  0.0935
  254loPI   C4B 4064  14.420  11.996   8.628  0.0354  0.0716  0.2640
  255loPI    C1 4065   5.682   3.859  10.454 -0.1610  0.1228  0.1496
  255loPI    C2 4066   5.849   4.218  10.400  0.0127  0.0175 -0.0252
  255loPI    C3 4067   6.032   3.945  10.628 -0.0803  0.0121  0.0433
  255loPI   PO4 4068   5.566   3.777  10.297 -0.0246  0.0411  0.0103
  255loPI   GL1 4069   5.688   3.491   9.927  0.0586  0.1508  0.2470
  255loPI   GL2 4070   5.881   3.622   9.829 -0.1861  0.2003 -0.0281
  255loPI   C1A 4071   5.308   3.361   9.562 -0.0139  0.2735  0.0989
  255loPI   C2A 4072   5.415   3.323   9.124  0.2325  0.0160 -0.2035
  255loPI   C3A 4073   5.406   3.351   8.840  0.3122 -0.1060 -0.0325
  255loPI   C4A 4074   5.417   3.303   8.442 -0.2750 -0.0239 -0.1840
  255loPI   C5A 4075   5.369   3.528   8.055  0.2000 -0.0619 -0.1159
  255loPI   C6A 4076   5.755   3.590   7.713  0.0113 -0.1823  0.0272
  255loPI   C1B 4077   5.692   3.624   9.424 -0.0129  0.0380 -0.1204
  255loPI   C2B 4078   5.797   3.728   8.969 -0.1656  0.2109 -0.0601
  255loPI   C3B 4079   5.844   3.530   8.544 -0.1254 -0.1042 -0.1874
  255loPI   C4B 4080   5.841   3.404   8.204  0.1876 -0.0261 -0.0295
  256loPI    C1 4081  16.270   3.072  10.312 -0.0940  0.0679 -0.2282
  256loPI    C2 4082  16.318   3.431  10.483  0.0355  0.0404 -0.2052
  256loPI    C3 4083  15.963   3.246  10.500  0.0590  0.0173  0.0746
  256loPI   PO4 4084  16.415   3.168  10.024 -0.0206  0.1268 -0.0556
  256loPI   GL1 4085  16.395   2.906   9.700  0.1260 -0.4313  0.2440
  256loPI   GL2 4086  16.133   2.665   9.643  0.0572 -0.0060 -0.1476
  256loPI   C1A 4087  16.324   2.938   9.293 -0.0608  0.0039 -0.1215
  256loPI   C2A 4088  16.278   2.904   8.935  0.0913  0.0875  0.1635
  256loPI   C3A 4089  16.327   2.955   8.459 -0.1121  0.1293 -0.5651
  256loPI   C4A 4090  16.369   3.096   8.020  0.3883  0.1414  0.3457
  256loPI   C5A 4091  16.318   3.536   7.914  0.0268  0.1153  0.5835
  256loPI   C6A 4092  16.503   3.711   7.510 -0.3273  0.1608 -0.2807
  256loPI   C1B 4093  16.025   2.579   9.170 -0.1910  0.2982 -0.1284
  256loPI   C2B 4094  15.957   2.494   8.724  0.2772 -0.2136 -0.0878
  256loPI   C3B 4095  15.754   2.398   8.373  0.0639  0.0358  0.2377
  256loPI   C4B 4096  15.491   2.058   8.106  0.0614  0.0423 -0.0202
  257loPI    C1 4097  12.152   0.374  10.778 -0.0602 -0.2506  0.0290
  257loPI    C2 4098  12.415   0.495  11.054  0.0259 -0.1623 -0.0901
  257loPI    C3 4099  12.242   0.136  11.086  0.2148 -0.2507 -0.0485
  257loPI   PO4 4100  12.122   0.593  10.675 -0.1683 -0.0062  0.1856
  257loPI   GL1 4101  12.248   0.556  10.242 -0.3221 -0.1138  0.0910
  257loPI   GL2 4102  12.418   0.686  10.028 -0.0837  0.2832 -0.1782
  257loPI   C1A 4103  12.051   0.375   9.936 -0.1404  0.1387 -0.2325
  257loPI   C2A 4104  11.994   0.343   9.472  0.1930  0.0708  0.1672
  257loPI   C3A 4105  11.816   0.405   9.081  0.0217  0.0897  0.2652
  257loPI   C4A 4106  11.781   0.474   8.688  0.0356  0.3026  0.0932
  257loPI   C5A 4107  11.855   0.780   8.415  0.4461  0.0930 -0.0926
  257loPI   C6A 4108  12.130   0.702   7.925 -0.0086  0.1485  0.0525
  257loPI   C1B 4109  12.305   0.699   9.641 -0.1537 -0.0552  0.0712
  257loPI   C2B 4110  12.212   0.655   9.174  0.1707  0.0600 -0.1513
  257loPI   C3B 4111  12.142   0.877   8.750 -0.1067  0.1494  0.0357
  257loPI   C4B 4112  12.320   0.878   8.334 -0.1461 -0.0932  0.2618
  258loPI    C1 4113   8.518   3.122  11.184  0.2532 -0.1769 -0.0204
  258loPI    C2 4114   8.499   2.832  11.459 -0.2445 -0.0598  0.0786
  258loPI    C3 4115   8.634   3.195  11.559 -0.1160 -0.1084  0.0840
  258loPI   PO4 4116   8.621   3.038  10.983 -0.1338  0.0025  0.4797
  258loPI   GL1 4117   8.788   2.869  10.518  0.3185 -0.0604 -0.2515
  258loPI   GL2 4118   8.810   2.717  10.206  0.3703 -0.2095  0.0161
  258loPI   C1A 4119   8.905   3.157  10.148 -0.0995  0.0781 -0.0525
  258loPI   C2A 4120   8.868   3.241   9.718 -0.0223  0.2166 -0.3267
  258loPI   C3A 4121   8.819   3.274   9.254  0.0567  0.2666 -0.2568
  258loPI   C4A 4122   8.817   3.144   8.906  0.2785  0.1838  0.0122
  258loPI   C5A 4123   8.776   3.217   8.614 -0.4580  0.1192  0.2771
  258loPI   C6A 4124   9.057   3.279   8.241  0.2820 -0.2352 -0.2887
  258loPI   C1B 4125   8.967   2.782   9.832  0.1459  0.1470 -0.0597
  258loPI   C2B 4126   8.978   2.756   9.335 -0.0974  0.1393  0.1363
  258loPI   C3B 4127   8.876   2.611   8.973 -0.0725 -0.2063  0.2266
  258loPI   C4B 4128   8.968   2.740   8.520 -0.2271  0.2964  0.2802
  259loPI    C1 4129   8.533  10.740  10.782  0.3177 -0.1366  0.0440
  259loPI    C2 4130   8.440  10.510  11.096  0.0158 -0.1182 -0.0290
  259loPI    C3 4131   8.464  10.908  11.138 -0.1277 -0.1068 -0.0511
  259loPI   PO4 4132   8.250  10.577  10.592 -0.0348  0.1837 -0.0410
  259loPI   GL1 4133   8.071  10.632  10.188  0.0369 -0.1947 -0.1092
  259loPI   GL2 4134   7.762  10.668  10.086  0.1065 -0.2541  0.1570
  259loPI   C1A 4135   8.155  10.865   9.832 -0.3047  0.2880 -0.0206
  259loPI   C2A 4136   8.274  11.038   9.467  0.4932 -0.4667  0.0743
  259loPI   C3A 4137   8.153  11.007   9.084  0.0411  0.0034 -0.1365
  259loPI   C4A 4138   8.080  10.870   8.650 -0.0137  0.1186  0.3108
  259loPI   C5A 4139   8.225  10.893   8.285  0.1170  0.0994 -0.0142
  259loPI   C6A 4140   8.731  10.769   8.186 -0.0202  0.2113 -0.2743
  259loPI   C1B 4141   7.894  10.538   9.651  0.0166  0.2823  0.1049
  259loPI   C2B 4142   7.783  10.565   9.149  0.0149 -0.0392 -0.3015
  259loPI   C3B 4143   7.825  10.458   8.725 -0.2241 -0.1412 -0.2702
  259loPI   C4B 4144   7.705  10.522   8.272 -0.0276  0.0517 -0.0569
  260loPI    C1 4145   8.027   0.941  11.008  0.0927 -0.1158 -0.1367
  260loPI    C2 4146   8.292   1.204  11.153 -0.0169 -0.0053 -0.1349
  260loPI    C3 4147   8.418   0.853  11.006  0.1257  0.0268 -0.0914
  260loPI   PO4 4148   7.933   1.061  10.695 -0.0248 -0.1263 -0.1191
  260loPI   GL1 4149   8.024   1.095  10.322 -0.0735  0.2296 -0.1991
  260loPI   GL2 4150   8.216   1.425  10.117 -0.0943 -0.2667 -0.0475
  260loPI   C1A 4151   7.926   1.119   9.864 -0.2476  0.3483 -0.0320
  260loPI   C2A 4152   7.861   1.111   9.474  0.0741  0.1037 -0.3140
  260loPI   C3A 4153   7.839   1.091   9.035 -0.1964 -0.1265  0.1236
  260loPI   C4A 4154   7.859   1.019   8.549 -0.0045  0.1553 -0.0658
  260loPI   C5A 4155   8.145   0.953   8.245  0.2050 -0.0199  0.0971
  260loPI   C6A 4156   8.404   1.095   7.928  0.0133 -0.1987  0.0643
  260loPI   C1B 4157   8.248   1.454   9.654 -0.0171  0.0032 -0.0747
  260loPI   C2B 4158   8.273   1.364   9.343  0.1726 -0.2539  0.0479
  260loPI   C3B 4159   8.207   1.473   9.092 -0.0646 -0.2009  0.0732
  260loPI   C4B 4160   8.225   1.515   8.679 -0.2494 -0.0929 -0.2524
  261loPI    C1 4161  11.223   3.517  11.185  0.0955 -0.0154  0.0241
  261loPI    C2 4162  11.290   3.217  10.929 -0.1064 -0.1111  0.0808
  261loPI    C3 4163  11.335   3.158  11.322  0.1941  0.0330  0.0712
  261loPI   PO4 4164  11.149   3.683  11.011  0.0798 -0.0136  0.1528
  261loPI   GL1 4165  11.207   3.685  10.539 -0.0251  0.0249 -0.0275
  261loPI   GL2 4166  11.559   3.493  10.575  0.1175 -0.1696  0.0080
  261loPI   C1A 4167  11.085   3.556  10.135 -0.1796 -0.0190 -0.0188
  261loPI   C2A 4168  11.101   3.544   9.649 -0.2412  0.2166  0.1697
  261loPI   C3A 4169  11.229   3.484   9.241 -0.0614 -0.0882 -0.0779
  261loPI   C4A 4170  11.012   3.501   8.872  0.0091  0.2710 -0.4117
  261loPI   C5A 4171  10.774   3.312   8.572 -0.1008 -0.0761 -0.1091
  261loPI   C6A 4172  10.577   3.001   8.435  0.1355 -0.0376 -0.1743
  261loPI   C1B 4173  11.610   3.512  10.183 -0.0488 -0.2596 -0.1023
  261loPI   C2B 4174  11.630   3.325   9.767  0.0408 -0.4438 -0.3015
  261loPI   C3B 4175  11.661   3.325   9.337  0.0001 -0.0519  0.0625
  261loPI   C4B 4176  11.524   3.393   8.793  0.0445 -0.0187 -0.1709
  262loPI    C1 4177  15.414   7.605  10.463 -0.0903  0.2458  0.0887
  262loPI    C2 4178  15.080   7.685  10.667 -0.0840  0.0270  0.1876
  262loPI    C3 4179  15.435   7.790  10.817 -0.0890 -0.0064  0.2233
  262loPI   PO4 4180  15.366   7.704  10.214 -0.0139  0.0050 -0.2407
  262loPI   GL1 4181  15.098   7.894  10.028 -0.0435 -0.0030  0.1076
  262loPI   GL2 4182  14.879   7.556   9.930  0.4210 -0.0569 -0.4948
  262loPI   C1A 4183  15.391   8.038   9.687  0.4305 -0.1596  0.0855
  262loPI   C2A 4184  15.234   8.123   9.246 -0.0714 -0.1151 -0.1625
  262loPI   C3A 4185  15.067   8.080   8.841  0.0005  0.4023  0.0612
  262loPI   C4A 4186  15.050   8.108   8.378  0.2771 -0.2105  0.2640
  262loPI   C5A 4187  15.108   8.267   7.886 -0.1548  0.0212  0.2592
  262loPI   C6A 4188  15.055   8.087   7.454 -0.0104 -0.0083 -0.2138
  262loPI   C1B 4189  14.957   7.780   9.483  0.3773  0.0930  0.1359
  262loPI   C2B 4190  14.797   7.759   9.081 -0.2847 -0.1480  0.4464
  262loPI   C3B 4191  14.661   7.823   8.682  0.2345 -0.1268  0.1422
  262loPI   C4B 4192  14.696   7.736   8.258 -0.3754  0.3697  0.0820
  263loPI    C1 4193   4.297  10.377  10.164  0.1072  0.0725  0.0446
  263loPI    C2 4194   4.225  10.006  10.297  0.3217  0.0918  0.2195
  263loPI    C3 4195   4.265  10.308  10.557 -0.3117  0.3283  0.0612
  263loPI   PO4 4196   4.430  10.365   9.974 -0.3769  0.0395  0.1592
  263loPI   GL1 4197   4.748  10.219   9.716 -0.3981 -0.0748 -0.0738
  263loPI   GL2 4198   4.737   9.974   9.502  0.0167 -0.0023 -0.0673
  263loPI   C1A 4199   4.908  10.442   9.317  0.0673  0.1507  0.0574
  263loPI   C2A 4200   4.887  10.464   8.906 -0.3877  0.0844  0.2613
  263loPI   C3A 4201   5.034  10.537   8.477  0.0089 -0.0387  0.1502
  263loPI   C4A 4202   5.169  10.506   8.068 -0.0791  0.0500  0.2571
  263loPI   C5A 4203   4.998  10.437   7.648  0.0617  0.2821 -0.0726
  263loPI   C6A 4204   5.020  10.129   7.333 -0.1628 -0.1644 -0.3625
  263loPI   C1B 4205   4.660  10.063   9.062  0.2326  0.2398 -0.1410
  263loPI   C2B 4206   4.629  10.101   8.638  0.1555 -0.0650 -0.0144
  263loPI   C3B 4207   4.666  10.218   8.268 -0.0404  0.0848  0.1044
  263loPI   C4B 4208   4.630  10.107   7.912  0.0041 -0.0272  0.0218
  264loPI    C1 4209   0.190  13.684  10.048 -0.0925  0.1645 -0.0151
  264loPI    C2 4210   0.423  13.724  10.371 -0.1119 -0.2447  0.0554
  264loPI    C3 4211   0.084  13.934  10.342 -0.0387 -0.0991  0.2333
  264loPI   PO4 4212   0.378  13.724   9.717  0.0517  0.3654 -0.3212
  264loPI   GL1 4213   0.264  13.472   9.336 -0.0101  0.3792  0.0976
  264loPI   GL2 4214   0.070  13.141   9.319 -0.1222  0.2321  0.1087
  264loPI   C1A 4215   0.277  13.371   8.860 -0.3502 -0.3182 -0.3164
  264loPI   C2A 4216   0.222  13.374   8.470  0.2451 -0.2318  0.0096
  264loPI   C3A 4217   0.444  13.352   8.110 -0.0132  0.1305  0.2299
  264loPI   C4A 4218   0.668  13.146   7.807 -0.0155  0.3460  0.3407
  264loPI   C5A 4219   1.077  13.040   7.468 -0.0400  0.1878  0.1374
  264loPI   C6A 4220   1.239  12.855   7.047  0.2305 -0.6788 -0.2046
  264loPI   C1B 4221  -0.129  13.063   8.934 -0.2628  0.0892  0.4210
  264loPI   C2B 4222  -0.392  12.952   8.577 -0.1992 -0.2328 -0.3506
  264loPI   C3B 4223  -0.526  12.908   8.145 -0.1630 -0.1563 -0.0626
  264loPI   C4B 4224  -0.892  13.044   7.747 -0.1226 -0.3362  0.0740
  265loPI    C1 4225  14.423   9.617  11.181  0.0012  0.0921 -0.2609
  265loPI    C2 4226  14.040   9.668  11.077 -0.0825 -0.0651 -0.0381
  265loPI    C3 4227  14.253   9.977  11.214 -0.2005 -0.0287  0.0646
  265loPI   PO4 4228  14.486   9.406  10.927 -0.1326 -0.1888  0.2759
  265loPI   GL1 4229  14.256   9.485  10.556 -0.0548 -0.3141 -0.2382
  265loPI   GL2 4230  13.948   9.297  10.418 -0.3295  0.0108 -0.2172
  265loPI   C1A 4231  14.241   9.622  10.086 -0.0507 -0.0133 -0.1226
  265loPI   C2A 4232  14.224   9.679   9.584 -0.4195  0.0918 -0.1462
  265loPI   C3A 4233  14.145   9.665   9.138 -0.0905  0.1841 -0.1636
  265loPI   C4A 4234  14.057   9.695   8.747  0.1970 -0.0939 -0.0179
  265loPI   C5A 4235  14.167   9.423   8.433 -0.1158  0.0642  0.1384
  265loPI   C6A 4236  14.238   9.022   8.307  0.0013 -0.2725 -0.0113
  265loPI   C1B 4237  13.892   9.419   9.884 -0.1490  0.0587  0.2248
  265loPI   C2B 4238  13.804   9.348   9.527  0.3532  0.2577  0.1940
  265loPI   C3B 4239  13.795   9.315   9.098 -0.0494  0.0938 -0.3458
  265loPI   C4B 4240  13.701   9.295   8.700 -0.2365  0.1764 -0.0280
  266loPI    C1 4241   7.668  13.118  10.713 -0.1658  0.2359  0.0138
  266loPI    C2 4242   7.327  12.984  10.874 -0.1247 -0.0753 -0.1504
  266loPI    C3 4243   7.669  12.785  10.935  0.0151  0.1892 -0.0559
  266loPI   PO4 4244   7.630  13.086  10.416  0.0044 -0.1742 -0.1460
  266loPI   GL1 4245   7.732  13.162   9.990 -0.1150  0.0499 -0.5418
  266loPI   GL2 4246   7.692  13.004   9.789  0.2245 -0.2789  0.0462
  266loPI   C1A 4247   7.993  13.412   9.636 -0.0741  0.1909  0.1544
  266loPI   C2A 4248   8.145  13.393   9.222 -0.2664 -0.0283 -0.1660
  266loPI   C3A 4249   8.100  13.363   8.736 -0.4235  0.0349  0.1754
  266loPI   C4A 4250   7.950  13.359   8.241  0.0616 -0.2544  0.0356
  266loPI   C5A 4251   7.701  13.594   8.017  0.0729 -0.1597  0.4456
  266loPI   C6A 4252   7.609  13.746   7.582 -0.0961  0.0478 -0.1719
  266loPI   C1B 4253   7.732  13.117   9.371 -0.0160  0.3736  0.0230
  266loPI   C2B 4254   7.740  13.003   8.921  0.0333  0.1302 -0.0316
  266loPI   C3B 4255   7.758  12.954   8.562 -0.3036 -0.1250  0.2015
  266loPI   C4B 4256   7.600  13.008   8.124  0.1492 -0.2554 -0.2142
  267loPI    C1 4257   5.074  10.023  10.062  0.2606 -0.0005  0.0828
  267loPI    C2 4258   4.737  10.112  10.258  0.0417 -0.0071 -0.2811
  267loPI    C3 4259   5.091  10.155  10.439 -0.1486  0.0612  0.0840
  267loPI   PO4 4260   5.078   9.885   9.907 -0.1369  0.3220 -0.1347
  267loPI   GL1 4261   5.234   9.936   9.485 -0.0864  0.1044  0.1609
  267loPI   GL2 4262   5.253  10.201   9.617 -0.0709  0.0738 -0.1909
  267loPI   C1A 4263   5.154  10.035   9.067  0.0166  0.0434  0.1758
  267loPI   C2A 4264   5.196  10.099   8.655 -0.1140 -0.0818  0.0645
  267loPI   C3A 4265   5.133   9.865   8.267  0.0011 -0.1309 -0.2073
  267loPI   C4A 4266   5.148   9.899   7.805 -0.0076 -0.2093 -0.0576
  267loPI   C5A 4267   5.119   9.578   7.473  0.0995  0.2785 -0.1036
  267loPI   C6A 4268   4.989   9.675   7.148 -0.0064 -0.0947 -0.1717
  267loPI   C1B 4269   5.444  10.439   9.315 -0.0482  0.0754  0.2893
  267loPI   C2B 4270   5.538  10.392   8.883 -0.3810 -0.1164 -0.0086
  267loPI   C3B 4271   5.549  10.369   8.486 -0.2514 -0.1900 -0.0169
  267loPI   C4B 4272   5.591  10.208   8.029  0.2625 -0.1201  0.2051
  268loPI    C1 4273  10.849   7.238  10.758  0.4924 -0.3535 -0.0348
  268loPI    C2 4274  10.635   7.327  11.084  0.2956  0.0543 -0.2676
  268loPI    C3 4275  10.955   7.090  11.114  0.0221 -0.2775  0.1447
  268loPI   PO4 4276  10.859   7.500  10.620 -0.2242  0.2200  0.1832
  268loPI   GL1 4277  10.996   7.706  10.322 -0.0533 -0.2188 -0.0207
  268loPI   GL2 4278  11.212   7.438  10.287  0.0497 -0.4030 -0.2399
  268loPI   C1A 4279  10.921   7.849   9.863 -0.0300 -0.0851  0.0131
  268loPI   C2A 4280  10.750   7.844   9.508 -0.0293  0.1606  0.1084
  268loPI   C3A 4281  10.823   7.817   9.047 -0.1376 -0.0068 -0.1692
  268loPI   C4A 4282  10.979   7.772   8.616 -0.0268 -0.0092 -0.0684
  268loPI   C5A 4283  11.246   7.630   8.311 -0.0862 -0.0707  0.0820
  268loPI   C6A 4284  11.388   7.562   7.883  0.1430  0.0378  0.3113
  268loPI   C1B 4285  11.092   7.358   9.788 -0.0102  0.1671  0.0689
  268loPI   C2B 4286  10.968   7.348   9.365 -0.0750  0.2823 -0.2413
  268loPI   C3B 4287  11.031   7.286   8.899 -0.3497 -0.1257  0.1998
  268loPI   C4B 4288  10.957   7.287   8.473  0.1831  0.0828 -0.3653
  269loPI    C1 4289   8.998   0.451  10.980 -0.1613 -0.0205  0.0031
  269loPI    C2 4290   8.817   0.641  11.282  0.0003  0.0405  0.0621
  269loPI    C3 4291   8.994   0.287  11.345 -0.0453  0.0098  0.0181
  269loPI   PO4 4292   8.731   0.465  10.766  0.4759 -0.2404  0.2057
  269loPI   GL1 4293   8.614   0.071  10.536  0.2489 -0.0861  0.0641
  269loPI   GL2 4294   8.731  -0.236  10.388 -0.1677 -0.0590  0.0999
  269loPI   C1A 4295   8.320   0.120  10.164  0.2963  0.1519  0.0974
  269loPI   C2A 4296   8.192  -0.024   9.729 -0.1174 -0.2285 -0.1888
  269loPI   C3A 4297   8.172  -0.044   9.335 -0.3864 -0.0286  0.2719
  269loPI   C4A 4298   8.189   0.069   8.895  0.4372 -0.0186 -0.2791
  269loPI   C5A 4299   8.070   0.015   8.477 -0.0043  0.2924 -0.2603
  269loPI   C6A 4300   7.623   0.185   8.345 -0.0602 -0.0084  0.3145
  269loPI   C1B 4301   8.656  -0.088   9.927  0.0774  0.2758  0.0334
  269loPI   C2B 4302   8.674  -0.132   9.513 -0.1150 -0.0515 -0.0136
  269loPI   C3B 4303   8.700  -0.061   8.981  0.0096 -0.1749  0.0703
  269loPI   C4B 4304   8.571  -0.075   8.535  0.3918 -0.2167 -0.2210
  270loPI    C1 4305  15.800   8.639  10.569 -0.0643 -0.0892 -0.2565
  270loPI    C2 4306  15.705   8.270  10.689 -0.0805 -0.0501 -0.1483
  270loPI    C3 4307  15.761   8.560  10.959 -0.0064  0.0121 -0.2298
  270loPI   PO4 4308  15.650   8.571  10.305 -0.3050 -0.2414  0.1862
  270loPI   GL1 4309  15.749   8.420   9.923  0.3904  0.2333 -0.0468
  270loPI   GL2 4310  16.139   8.398   9.739  0.0732 -0.3650 -0.1937
  270loPI   C1A 4311  15.663   8.432   9.440  0.1822 -0.0928  0.1235
  270loPI   C2A 4312  15.540   8.409   8.985 -0.3270 -0.0784  0.0953
  270loPI   C3A 4313  15.405   8.444   8.550  0.1807  0.0428 -0.3511
  270loPI   C4A 4314  15.378   8.631   8.120  0.1655 -0.2127 -0.2055
  270loPI   C5A 4315  15.327   8.827   7.709  0.0183  0.1326 -0.2322
  270loPI   C6A 4316  15.326   9.058   7.375 -0.0434  0.1385  0.0364
  270loPI   C1B 4317  16.131   8.728   9.446  0.0724  0.4583 -0.2400
  270loPI   C2B 4318  16.033   8.667   9.118 -0.0512  0.0693  0.3042
  270loPI   C3B 4319  16.039   8.684   8.751  0.3168 -0.0938  0.2217
  270loPI   C4B 4320  15.778   8.794   8.379 -0.2384 -0.0608 -0.3673
  271loPI    C1 4321   5.313  16.163  10.811  0.0470 -0.0194 -0.2014
  271loPI    C2 4322   5.608  16.373  10.979  0.0015  0.0275 -0.1798
  271loPI    C3 4323   5.498  16.023  11.136 -0.0931  0.1079 -0.0651
  271loPI   PO4 4324   5.297  16.121  10.575 -0.1541 -0.0408  0.0327
  271loPI   GL1 4325   5.433  16.309  10.125 -0.1537 -0.2913  0.5283
  271loPI   GL2 4326   5.622  15.987  10.171  0.0622 -0.0955 -0.2889
  271loPI   C1A 4327   5.558  16.475   9.802 -0.1170 -0.0951 -0.1488
  271loPI   C2A 4328   5.745  16.457   9.497 -0.2565  0.1223  0.0640
  271loPI   C3A 4329   5.949  16.452   9.081 -0.0711 -0.4336  0.1104
  271loPI   C4A 4330   6.006  16.299   8.620 -0.2231 -0.0643  0.2595
  271loPI   C5A 4331   6.031  15.969   8.332  0.0232  0.0782  0.1679
  271loPI   C6A 4332   5.780  16.099   7.875  0.0703  0.0724  0.0106
  271loPI   C1B 4333   5.864  15.989   9.821  0.0187  0.0695 -0.1533
  271loPI   C2B 4334   6.056  16.048   9.396  0.2878 -0.1807  0.1655
  271loPI   C3B 4335   6.117  15.911   8.944  0.0578 -0.0523 -0.1284
  271loPI   C4B 4336   5.804  15.639   8.696 -0.0607 -0.0984 -0.2470
  272loPI    C1 4337  16.841   2.348  10.408 -0.0435  0.0662  0.0166
  272loPI    C2 4338  17.001   2.341  10.775  0.4492  0.0157 -0.1921
  272loPI    C3 4339  16.833   2.011  10.623 -0.0215  0.1149  0.0942
  272loPI   PO4 4340  16.893   2.384  10.227  0.1002 -0.0718  0.2293
  272loPI   GL1 4341  16.797   2.549   9.793 -0.1128  0.2469  0.0350
  272loPI   GL2 4342  17.083   2.394   9.546  0.1274 -0.2826  0.1698
  272loPI   C1A 4343  16.561   2.495   9.404  0.0300  0.3212  0.1563
  272loPI   C2A 4344  16.450   2.372   9.007  0.0107 -0.1410 -0.0399
  272loPI   C3A 4345  16.438   2.363   8.627 -0.1666 -0.0476 -0.3312
  272loPI   C4A 4346  16.421   2.349   8.261  0.3381  0.2497  0.1821
  272loPI   C5A 4347  16.362   2.626   7.971  0.0312 -0.0267  0.1914
  272loPI   C6A 4348  16.589   2.759   7.667 -0.1020 -0.1266 -0.0894
  272loPI   C1B 4349  16.954   2.344   9.132  0.3008  0.3033  0.2514
  272loPI   C2B 4350  17.103   2.373   8.785 -0.3060  0.0697  0.2171
  272loPI   C3B 4351  16.978   2.085   8.439 -0.2266  0.1123 -0.2192
  272loPI   C4B 4352  16.957   1.714   8.330  0.2833 -0.1171 -0.2516
  273loPI    C1 4353   0.325  17.395   9.905 -0.1509  0.1328  0.1238
  273loPI    C2 4354   0.031  17.666   9.904 -0.0749  0.2203 -0.3083
  273loPI    C3 4355   0.407  17.779   9.983 -0.0708  0.2090 -0.3118
  273loPI   PO4 4356   0.319  17.290   9.649 -0.0377  0.1579 -0.3069
  273loPI   GL1 4357   0.516  17.466   9.297  0.3014  0.1685  0.0117
  273loPI   GL2 4358   0.668  17.634   9.552 -0.1285  0.1511 -0.0690
  273loPI   C1A 4359   0.485  17.778   9.072  0.1762  0.1958  0.3700
  273loPI   C2A 4360   0.238  17.948   8.766 -0.2049  0.0215  0.1874
  273loPI   C3A 4361   0.335  18.100   8.390  0.1141  0.0167 -0.4427
  273loPI   C4A 4362   0.453  17.928   7.999  0.0030  0.1301  0.1581
  273loPI   C5A 4363   0.848  17.946   7.757  0.0170 -0.0325  0.2121
  273loPI   C6A 4364   1.176  18.113   7.380  0.1730  0.0086  0.0167
  273loPI   C1B 4365   1.004  17.670   9.245 -0.2470 -0.0297  0.0439
  273loPI   C2B 4366   0.964  17.800   8.744  0.0694 -0.2524 -0.4222
  273loPI   C3B 4367   0.843  18.090   8.428 -0.0373  0.1966 -0.2353
  273loPI   C4B 4368   1.001  18.322   8.079 -0.1357  0.2688 -0.0188
  274loPI    C1 4369  17.994   2.143  10.149  0.0634 -0.0841 -0.3113
  274loPI    C2 4370  18.172   2.491  10.237 -0.1730 -0.0221 -0.0643
  274loPI    C3 4371  18.292   2.154  10.416 -0.1909 -0.0074 -0.0245
  274loPI   PO4 4372  17.996   2.128   9.913 -0.2187 -0.0952  0.4188
  274loPI   GL1 4373  18.099   1.893   9.570 -0.0501  0.0397  0.3810
  274loPI   GL2 4374  18.271   2.167   9.516 -0.1428  0.1049  0.1309
  274loPI   C1A 4375  18.203   1.712   9.071 -0.0818 -0.0668  0.0845
  274loPI   C2A 4376  18.323   1.661   8.634  0.3595  0.0310 -0.0811
  274loPI   C3A 4377  18.420   1.770   8.311  0.3175 -0.3204 -0.0440
  274loPI   C4A 4378  18.448   1.936   7.908  0.0872  0.2153 -0.0135
  274loPI   C5A 4379  18.436   2.222   7.659 -0.1773  0.0157  0.0423
  274loPI   C6A 4380  18.227   2.657   7.629 -0.1960 -0.3561 -0.1554
  274loPI   C1B 4381  18.095   2.161   9.197 -0.0083 -0.1364 -0.3289
  274loPI   C2B 4382  18.110   2.219   8.875  0.1715  0.0346  0.0515
  274loPI   C3B 4383  18.161   2.173   8.426 -0.2025 -0.1365 -0.0025
  274loPI   C4B 4384  18.259   2.447   8.126 -0.2230  0.0485 -0.1883
  275loPI    C1 4385  10.529   6.630  11.091  0.0465 -0.3241 -0.0390
  275loPI    C2 4386  10.549   6.906  11.379 -0.0826 -0.1872 -0.1599
  275loPI    C3 4387  10.282   6.609  11.405  0.2002 -0.4270  0.0767
  275loPI   PO4 4388  10.602   6.773  10.887  0.2347 -0.0755 -0.0581
  275loPI   GL1 4389  10.606   6.725  10.516  0.0175 -0.0273  0.0027
  275loPI   GL2 4390  10.290   6.695  10.507 -0.3373  0.1443 -0.1862
  275loPI   C1A 4391  10.689   6.498  10.189 -0.2897  0.0292 -0.3345
  275loPI   C2A 4392  10.766   6.490   9.757  0.0891 -0.0052  0.0088
  275loPI   C3A 4393  10.791   6.420   9.341  0.0621 -0.0387  0.1866
  275loPI   C4A 4394  10.721   6.534   9.054 -0.1297  0.0810  0.2415
  275loPI   C5A 4395  10.657   6.476   8.596  0.1692  0.0768 -0.2145
  275loPI   C6A 4396  10.750   6.172   8.279  0.0665  0.0127  0.1963
  275loPI   C1B 4397  10.235   6.528  10.078  0.3329 -0.2371 -0.0555
  275loPI   C2B 4398  10.250   6.411   9.693 -0.0154 -0.2469  0.0069
  275loPI   C3B 4399  10.327   6.553   9.305 -0.0160  0.0593 -0.1991
  275loPI   C4B 4400  10.257   6.684   8.936 -0.0526 -0.2134  0.1823
  276loPI    C1 4401  18.122  15.751  10.094  0.0046  0.2999  0.1171
  276loPI    C2 4402  17.855  15.931  10.331  0.0130  0.0984  0.2830
  276loPI    C3 4403  18.063  15.618  10.467 -0.0951 -0.1196 -0.0435
  276loPI   PO4 4404  17.950  15.818   9.840 -0.2743  0.1234  0.0775
  276loPI   GL1 4405  17.757  15.952   9.466  0.1040  0.0535 -0.1506
  276loPI   GL2 4406  17.618  16.142   9.207  0.0485  0.0957 -0.0474
  276loPI   C1A 4407  17.767  15.683   9.061 -0.1195 -0.2442  0.1030
  276loPI   C2A 4408  17.825  15.728   8.525 -0.0477  0.2776  0.0093
  276loPI   C3A 4409  17.974  15.795   8.189 -0.2616 -0.1984 -0.1561
  276loPI   C4A 4410  18.115  15.718   7.811 -0.2288  0.1791  0.2588
  276loPI   C5A 4411  18.198  16.115   7.683 -0.0602 -0.0494  0.2390
  276loPI   C6A 4412  18.282  16.590   7.650 -0.0676  0.0346  0.0564
  276loPI   C1B 4413  17.618  16.127   8.785 -0.0899  0.3718  0.1423
  276loPI   C2B 4414  17.606  16.099   8.336  0.2021  0.0037  0.2569
  276loPI   C3B 4415  17.638  16.016   7.840  0.1155  0.3250 -0.0618
  276loPI   C4B 4416  17.690  16.259   7.386 -0.2251  0.1981 -0.1878
  277loPI    C1 4417  11.478  14.862  11.105 -0.0910 -0.1158 -0.0252
  277loPI    C2 4418  11.198  15.060  11.311  0.1237  0.0632  0.0986
  277loPI    C3 4419  11.400  14.760  11.484 -0.1133 -0.1858 -0.0483
  277loPI   PO4 4420  11.585  15.182  11.034 -0.0163 -0.1543  0.0548
  277loPI   GL1 4421  11.507  15.289  10.581 -0.0238 -0.1180 -0.2128
  277loPI   GL2 4422  11.395  15.522  10.501  0.1604 -0.1889 -0.1057
  277loPI   C1A 4423  11.448  15.195  10.061  0.0362  0.1548 -0.0205
  277loPI   C2A 4424  11.446  15.387   9.719  0.0461  0.0163 -0.0427
  277loPI   C3A 4425  11.285  15.241   9.343 -0.1120  0.0531  0.0985
  277loPI   C4A 4426  11.259  15.229   8.851  0.0858 -0.3323 -0.0778
  277loPI   C5A 4427  11.161  15.487   8.505 -0.0164  0.0820 -0.0258
  277loPI   C6A 4428  11.053  15.909   8.457  0.0134  0.0982  0.1429
  277loPI   C1B 4429  11.415  15.753  10.110  0.1546 -0.2427 -0.0638
  277loPI   C2B 4430  11.442  15.869   9.749  0.2478  0.0293  0.1304
  277loPI   C3B 4431  11.214  15.768   9.327  0.0212  0.1150  0.1812
  277loPI   C4B 4432  11.232  15.782   8.924  0.2026  0.1766 -0.6332
  278loPI    C1 4433  13.071  17.097  10.636 -0.2509 -0.2485  0.2550
  278loPI    C2 4434  13.312  16.835  10.819 -0.0013 -0.2429 -0.0572
  278loPI    C3 4435  13.353  17.227  10.889 -0.1151 -0.2604  0.1116
  278loPI   PO4 4436  13.005  16.981  10.415 -0.0941 -0.2833 -0.1008
  278loPI   GL1 4437  13.167  16.978  10.011 -0.0769  0.1229 -0.1378
  278loPI   GL2 4438  13.017  17.265   9.983  0.1502 -0.0733  0.0692
  278loPI   C1A 4439  12.960  16.767   9.697  0.0836  0.0512  0.0598
  278loPI   C2A 4440  12.921  16.778   9.344 -0.2863 -0.2117 -0.0843
  278loPI   C3A 4441  12.836  16.693   8.937 -0.0818  0.0508  0.3856
  278loPI   C4A 4442  12.689  16.722   8.405  0.1593 -0.0644 -0.0734
  278loPI   C5A 4443  12.648  16.601   8.047  0.1082  0.1574 -0.3569
  278loPI   C6A 4444  12.245  16.339   7.915  0.0093 -0.3328  0.2163
  278loPI   C1B 4445  12.774  17.238   9.571 -0.0900 -0.0890 -0.1700
  278loPI   C2B 4446  12.723  17.232   9.146 -0.0123 -0.1476 -0.1586
  278loPI   C3B 4447  12.759  17.171   8.636  0.2078 -0.2565 -0.0604
  278loPI   C4B 4448  12.591  17.245   8.255 -0.2745  0.0261 -0.0905
  279loPI    C1 4449  16.931  10.003  10.015  0.1431  0.2041  0.0787
  279loPI    C2 4450  16.873   9.670  10.230 -0.2462  0.3465  0.2019
  279loPI    C3 4451  17.009  10.002  10.408  0.1532  0.2552  0.0768
  279loPI   PO4 4452  17.009   9.898   9.797  0.2195 -0.2677  0.1403
  279loPI   GL1 4453  16.903   9.709   9.402  0.0677  0.0837  0.1266
  279loPI   GL2 4454  17.172   9.907   9.281 -0.4522 -0.3308 -0.0227
  279loPI   C1A 4455  16.755   9.616   8.988 -0.0954 -0.1007 -0.3328
  279loPI   C2A 4456  16.597   9.410   8.651  0.2899 -0.0261  0.0608
  279loPI   C3A 4457  16.544   9.403   8.228 -0.0987  0.2218  0.1414
  279loPI   C4A 4458  16.377   9.645   7.918  0.2248 -0.1405 -0.0300
  279loPI   C5A 4459  16.216   9.538   7.549 -0.0162 -0.1990 -0.2060
  279loPI   C6A 4460  16.362   9.265   7.273  0.0332 -0.0602 -0.0698
  279loPI   C1B 4461  17.339   9.659   8.986  0.0856 -0.1594 -0.0249
  279loPI   C2B 4462  17.145   9.476   8.660 -0.0412  0.2948 -0.3505
  279loPI   C3B 4463  17.045   9.282   8.293  0.2797  0.1774  0.0305
  279loPI   C4B 4464  17.086   9.353   7.861 -0.1833  0.0275  0.0653
  280loPI    C1 4465   1.115   6.438   9.364  0.1284 -0.0800 -0.0271
  280loPI    C2 4466   0.827   6.633   9.166  0.1814  0.0939  0.0658
  280loPI    C3 4467   0.749   6.471   9.523  0.2341  0.2616  0.1549
  280loPI   PO4 4468   1.292   6.551   9.369 -0.2889  0.2041  0.0648
  280loPI   GL1 4469   1.493   6.566   8.997 -0.0025  0.0429  0.0289
  280loPI   GL2 4470   1.247   6.688   8.889 -0.2422 -0.1801  0.0941
  280loPI   C1A 4471   1.540   6.475   8.511 -0.0889  0.0914 -0.1507
  280loPI   C2A 4472   1.771   6.617   8.032 -0.1639  0.2593 -0.0322
  280loPI   C3A 4473   1.744   6.837   7.639  0.3881 -0.3356  0.5104
  280loPI   C4A 4474   1.445   6.939   7.296  0.1907  0.5426  0.1393
  280loPI   C5A 4475   1.321   7.174   6.968  0.0481  0.0679  0.3345
  280loPI   C6A 4476   1.089   7.331   6.543  0.1387 -0.1016  0.1988
  280loPI   C1B 4477   0.930   6.527   8.703  0.1656  0.1159 -0.2617
  280loPI   C2B 4478   0.767   6.610   8.269  0.0920 -0.0206 -0.0632
  280loPI   C3B 4479   0.808   6.649   7.877  0.0794  0.1254 -0.4178
  280loPI   C4B 4480   0.650   6.724   7.464  0.1919  0.2321 -0.1184
  281loPI    C1 4481   2.993   0.184  10.482  0.1241 -0.0107 -0.2550
  281loPI    C2 4482   3.027   0.093  10.870  0.0145  0.0790 -0.2238
  281loPI    C3 4483   2.787  -0.123  10.635  0.0643  0.0380 -0.2372
  281loPI   PO4 4484   3.131   0.277  10.323  0.0816  0.1203  0.1233
  281loPI   GL1 4485   3.390   0.210  10.139  0.3612 -0.2703 -0.1668
  281loPI   GL2 4486   3.611   0.040  10.168 -0.1393  0.0163 -0.1084
  281loPI   C1A 4487   3.340   0.287   9.764  0.0569  0.2340 -0.0916
  281loPI   C2A 4488   3.448   0.076   9.417  0.0016  0.1475  0.3284
  281loPI   C3A 4489   3.508   0.030   9.013 -0.0797 -0.2554  0.1265
  281loPI   C4A 4490   3.497  -0.016   8.595  0.1143 -0.0002  0.0235
  281loPI   C5A 4491   3.585   0.105   8.094  0.2080 -0.2983 -0.1105
  281loPI   C6A 4492   3.864   0.246   7.803  0.2595  0.1680  0.0061
  281loPI   C1B 4493   3.761  -0.116   9.750 -0.0281 -0.0068  0.2483
  281loPI   C2B 4494   3.928  -0.213   9.400  0.2893 -0.2302  0.0140
  281loPI   C3B 4495   3.985  -0.098   9.001  0.0682 -0.0406 -0.2160
  281loPI   C4B 4496   3.987  -0.050   8.617 -0.2674  0.1600 -0.4620
  282loPI    C1 4497  15.504   0.138  10.860 -0.2715  0.0499 -0.0035
  282loPI    C2 4498  15.489  -0.237  10.722 -0.1106  0.1103 -0.1899
  282loPI    C3 4499  15.319  -0.146  11.073 -0.0073 -0.1715 -0.0635
  282loPI   PO4 4500  15.519   0.239  10.598 -0.0107  0.0293 -0.4433
  282loPI   GL1 4501  15.530   0.023  10.186  0.3948  0.4857  0.0660
  282loPI   GL2 4502  15.504   0.353   9.983 -0.0175 -0.3733  0.1435
  282loPI   C1A 4503  15.386  -0.093   9.724  0.0173  0.0962  0.0803
  282loPI   C2A 4504  15.320  -0.090   9.310 -0.0985 -0.0519 -0.1965
  282loPI   C3A 4505  15.230  -0.030   8.819 -0.2620  0.1258  0.2995
  282loPI   C4A 4506  14.982  -0.049   8.483 -0.6433  0.2146  0.4036
  282loPI   C5A 4507  15.065  -0.128   8.092  0.0291 -0.2040 -0.1309
  282loPI   C6A 4508  15.095  -0.103   7.613 -0.1168 -0.1591 -0.0220
  282loPI   C1B 4509  15.310   0.392   9.534 -0.0546  0.2122  0.0939
  282loPI   C2B 4510  15.119   0.374   9.114 -0.1250 -0.0420  0.0527
  282loPI   C3B 4511  15.014   0.442   8.687  0.1140 -0.3234  0.1898
  282loPI   C4B 4512  14.993   0.466   8.232  0.0408  0.1399  0.0365
  283loPI    C1 4513  16.799   0.717  10.275  0.0246  0.0918 -0.0717
  283loPI    C2 4514  16.801   1.067  10.469  0.3484  0.0942 -0.0743
  283loPI    C3 4515  16.980   0.747  10.630  0.2162 -0.0233 -0.1578
  283loPI   PO4 4516  16.840   0.790   9.982 -0.1253 -0.4139  0.1944
  283loPI   GL1 4517  17.120   0.801   9.645  0.1952  0.2920  0.0460
  283loPI   GL2 4518  17.205   0.511   9.445 -0.1000 -0.2286  0.1283
  283loPI   C1A 4519  17.036   0.960   9.187  0.0388 -0.2294  0.0508
  283loPI   C2A 4520  16.858   0.930   8.772  0.4931  0.1737  0.2619
  283loPI   C3A 4521  16.865   0.845   8.342 -0.0463  0.2910  0.2818
  283loPI   C4A 4522  16.697   0.773   7.944  0.3321  0.1109 -0.0558
  283loPI   C5A 4523  16.606   0.747   7.557 -0.1224 -0.2250  0.2061
  283loPI   C6A 4524  16.591   0.642   7.131  0.1282 -0.1790  0.0245
  283loPI   C1B 4525  17.119   0.361   9.030 -0.1796  0.0929  0.1093
  283loPI   C2B 4526  16.930   0.341   8.568 -0.0323  0.1393  0.0782
  283loPI   C3B 4527  16.813   0.363   8.153  0.1960 -0.0626 -0.1673
  283loPI   C4B 4528  16.870   0.096   7.721 -0.0590 -0.0391 -0.0582
  284loPI    C1 4529  16.483   8.298  10.293  0.0699  0.0617  0.0549
  284loPI    C2 4530  16.153   8.518  10.243 -0.1670 -0.2583  0.1727
  284loPI    C3 4531  16.141   8.189  10.470  0.2197 -0.3088  0.1265
  284loPI   PO4 4532  16.572   8.305  10.051 -0.0197  0.2355  0.3446
  284loPI   GL1 4533  16.564   8.310   9.635  0.0740  0.2002 -0.0872
  284loPI   GL2 4534  16.878   8.480   9.661 -0.0324 -0.0409  0.1637
  284loPI   C1A 4535  16.202   8.216   9.246  0.0090 -0.2112 -0.1814
  284loPI   C2A 4536  15.977   8.186   8.820  0.0915  0.2736  0.2194
  284loPI   C3A 4537  15.941   8.262   8.389  0.1132 -0.1774  0.0554
  284loPI   C4A 4538  15.798   8.439   7.977  0.0416 -0.1430  0.2386
  284loPI   C5A 4539  15.796   8.743   7.672 -0.1479  0.3260  0.3489
  284loPI   C6A 4540  16.150   8.830   7.521  0.0036  0.2837  0.1108
  284loPI   C1B 4541  16.602   8.679   9.332  0.1647  0.0941  0.1642
  284loPI   C2B 4542  16.537   8.626   8.878  0.2980  0.0274  0.1166
  284loPI   C3B 4543  16.378   8.497   8.413  0.1283  0.0652 -0.1831
  284loPI   C4B 4544  16.127   8.766   8.060 -0.1447  0.1420 -0.1062
  285loPI    C1 4545   8.984   4.749  10.927  0.1040 -0.0033  0.0522
  285loPI    C2 4546   9.059   4.855  11.306 -0.0272 -0.0762  0.0993
  285loPI    C3 4547   8.815   4.547  11.229 -0.0592 -0.0152 -0.0461
  285loPI   PO4 4548   8.856   4.981  10.747 -0.0364 -0.0503 -0.2579
  285loPI   GL1 4549   8.729   4.755  10.403 -0.1245 -0.0914 -0.2920
  285loPI   GL2 4550   8.583   4.433  10.370 -0.1277  0.3836 -0.0835
  285loPI   C1A 4551   9.000   4.642  10.058 -0.2036  0.1719  0.0612
  285loPI   C2A 4552   8.929   4.547   9.609 -0.0823 -0.2889  0.0331
  285loPI   C3A 4553   8.958   4.690   9.184 -0.5670 -0.0217  0.0756
  285loPI   C4A 4554   8.921   4.651   8.858  0.0466  0.0390  0.1171
  285loPI   C5A 4555   8.894   4.823   8.443 -0.1770  0.0159  0.0494
  285loPI   C6A 4556   8.606   5.157   8.373 -0.2700 -0.1462  0.0679
  285loPI   C1B 4557   8.537   4.407   9.948 -0.1844 -0.0182 -0.3343
  285loPI   C2B 4558   8.485   4.211   9.549  0.1578  0.0483  0.0980
  285loPI   C3B 4559   8.582   4.242   9.119  0.0899 -0.2033  0.1603
  285loPI   C4B 4560   8.640   4.230   8.685 -0.0113  0.2558 -0.0819
  286loPI    C1 4561   2.533   3.248  10.241  0.0073 -0.1121 -0.1690
  286loPI    C2 4562   2.508   3.160  10.630 -0.3128  0.0192 -0.1566
  286loPI    C3 4563   2.426   2.880  10.356 -0.1099 -0.0668 -0.1312
  286loPI   PO4 4564   2.851   3.375  10.246  0.1328 -0.1785  0.2827
  286loPI   GL1 4565   3.022   3.418   9.880  0.1473 -0.1878 -0.0331
  286loPI   GL2 4566   2.647   3.382   9.726 -0.0613 -0.2671  0.0517
  286loPI   C1A 4567   3.205   3.290   9.539 -0.2735 -0.3796  0.2260
  286loPI   C2A 4568   3.148   3.200   9.074  0.5030 -0.3004  0.1236
  286loPI   C3A 4569   3.082   3.021   8.693  0.0399 -0.1568  0.2938
  286loPI   C4A 4570   3.195   2.920   8.281  0.1827 -0.0684 -0.0794
  286loPI   C5A 4571   3.158   2.757   7.877 -0.0449  0.0771 -0.0396
  286loPI   C6A 4572   3.346   2.937   7.548 -0.0190  0.1125  0.3491
  286loPI   C1B 4573   2.777   3.412   9.234  0.1629 -0.0340 -0.0594
  286loPI   C2B 4574   2.890   3.494   8.765 -0.0151  0.0145 -0.0742
  286loPI   C3B 4575   3.059   3.459   8.320 -0.1891  0.0908  0.2222
  286loPI   C4B 4576   3.209   3.242   7.880  0.0210  0.0636  0.0741
  287loPI    C1 4577   9.835  18.437  11.135 -0.0206 -0.0050  0.2580
  287loPI    C2 4578   9.981  18.805  11.191  0.0500 -0.0140  0.1366
  287loPI    C3 4579  10.026  18.527  11.474  0.2494 -0.0101  0.1104
  287loPI   PO4 4580   9.764  18.436  10.898  0.2844 -0.0859  0.3316
  287loPI   GL1 4581   9.790  18.515  10.513 -0.2139 -0.2140 -0.0996
  287loPI   GL2 4582   9.849  18.845  10.675 -0.0939 -0.2685 -0.0152
  287loPI   C1A 4583   9.545  18.524  10.081 -0.1325 -0.2335 -0.1616
  287loPI   C2A 4584   9.554  18.520   9.578  0.2059  0.1213  0.1439
  287loPI   C3A 4585   9.615  18.510   9.147 -0.0627  0.1518  0.4537
  287loPI   C4A 4586   9.476  18.784   8.840 -0.2188  0.1301  0.0332
  287loPI   C5A 4587   9.364  19.086   8.578 -0.0014 -0.1026  0.2375
  287loPI   C6A 4588   9.369  19.024   8.148  0.0246  0.0395 -0.0865
  287loPI   C1B 4589  10.046  18.833  10.236 -0.0176 -0.0547  0.0972
  287loPI   C2B 4590   9.981  18.819   9.663 -0.0323 -0.1331  0.0466
  287loPI   C3B 4591   9.796  18.995   9.297  0.0395 -0.3344  0.1592
  287loPI   C4B 4592   9.868  19.130   8.917 -0.1151 -0.1793  0.0373
  288loPI    C1 4593   9.987   1.559  11.194 -0.1852 -0.1153  0.2177
  288loPI    C2 4594   9.589   1.580  11.235 -0.1717 -0.0659  0.3273
  288loPI    C3 4595   9.790   1.268  11.385 -0.2001 -0.2343  0.0244
  288loPI   PO4 4596  10.029   1.622  10.883  0.1652  0.1654 -0.0330
  288loPI   GL1 4597   9.983   1.500  10.523 -0.1268  0.1635 -0.3367
  288loPI   GL2 4598   9.823   1.368  10.406 -0.0537  0.2372  0.0732
  288loPI   C1A 4599  10.164   1.776  10.088  0.0030  0.1221 -0.2701
  288loPI   C2A 4600  10.185   1.940   9.694 -0.0741  0.2212 -0.0208
  288loPI   C3A 4601   9.968   1.900   9.355 -0.2966 -0.1981  0.1725
  288loPI   C4A 4602  10.002   1.878   8.918  0.1267 -0.0650  0.0542
  288loPI   C5A 4603   9.946   1.904   8.389  0.0645 -0.2342  0.0881
  288loPI   C6A 4604   9.959   2.111   7.922  0.2638 -0.2835 -0.0186
  288loPI   C1B 4605   9.734   1.513  10.010 -0.0173  0.0243  0.2295
  288loPI   C2B 4606   9.657   1.541   9.549 -0.1903 -0.0318 -0.1084
  288loPI   C3B 4607   9.634   1.586   9.071 -0.1235  0.3166  0.1166
  288loPI   C4B 4608   9.700   1.566   8.650 -0.0434 -0.2114  0.1560
  289loPI    C1 4609   4.206  12.535   9.873  0.1838  0.1206 -0.1942
  289loPI    C2 4610   3.936  12.785  10.030  0.2072  0.1099 -0.1365
  289loPI    C3 4611   4.047  12.458  10.232  0.2635  0.1145 -0.1599
  289loPI   PO4 4612   4.098  12.558   9.546  0.0473  0.1106 -0.0210
  289loPI   GL1 4613   3.839  12.405   9.230  0.1535  0.1664 -0.0485
  289loPI   GL2 4614   3.562  12.567   9.143 -0.2643  0.0622 -0.3291
  289loPI   C1A 4615   4.182  12.277   8.928  0.1105  0.1024  0.5553
  289loPI   C2A 4616   4.278  12.136   8.522 -0.1741  0.2571 -0.2139
  289loPI   C3A 4617   4.220  12.172   8.154 -0.0813 -0.2810  0.0099
  289loPI   C4A 4618   4.243  12.050   7.785 -0.0768 -0.2449  0.1690
  289loPI   C5A 4619   4.247  11.997   7.350 -0.0330  0.0142  0.0602
  289loPI   C6A 4620   4.171  11.658   7.237  0.0556  0.1843 -0.1831
  289loPI   C1B 4621   3.638  12.355   8.735 -0.0875 -0.1608  0.1636
  289loPI   C2B 4622   3.695  12.210   8.311 -0.1558  0.0300  0.3083
  289loPI   C3B 4623   3.757  12.103   7.921  0.0154  0.2526  0.3541
  289loPI   C4B 4624   3.860  11.769   7.601  0.0612 -0.0536 -0.0861
  290loPI    C1 4625   1.697   5.752   9.678  0.3675  0.0171 -0.0369
  290loPI    C2 4626   2.032   5.948   9.777  0.2526 -0.0031  0.4114
  290loPI    C3 4627   1.705   5.982  10.005 -0.1469  0.2426 -0.1739
  290loPI   PO4 4628   1.753   5.523   9.594  0.1386 -0.2489  0.1337
  290loPI   GL1 4629   1.641   5.468   9.203  0.2873  0.0149 -0.0372
  290loPI   GL2 4630   1.419   5.390   9.085 -0.0288  0.1802  0.0280
  290loPI   C1A 4631   1.893   5.511   8.806 -0.1373 -0.2619  0.1878
  290loPI   C2A 4632   1.861   5.414   8.423 -0.0329  0.0525  0.0420
  290loPI   C3A 4633   1.623   5.152   8.079 -0.2820 -0.4977  0.0501
  290loPI   C4A 4634   1.929   4.921   7.801 -0.3290  0.0620  0.1706
  290loPI   C5A 4635   2.358   5.099   7.658 -0.2570  0.2876  0.1398
  290loPI   C6A 4636   2.562   4.996   7.380 -0.4339 -0.2121 -0.1176
  290loPI   C1B 4637   1.407   5.247   8.736  0.0068  0.0679  0.0539
  290loPI   C2B 4638   1.229   5.006   8.372  0.2182  0.3608  0.2932
  290loPI   C3B 4639   1.222   4.674   7.988 -0.3349 -0.0478  0.0031
  290loPI   C4B 4640   1.272   4.746   7.471  0.1047 -0.1799 -0.2073
  291loPI    C1 4641   9.788   8.329  10.482  0.1208  0.0101 -0.0586
  291loPI    C2 4642  10.173   8.324  10.375  0.1895  0.1974  0.1725
  291loPI    C3 4643   9.977   7.980  10.432  0.2559  0.0986 -0.1731
  291loPI   PO4 4644   9.622   8.509  10.267 -0.1979  0.2927  0.4959
  291loPI   GL1 4645   9.874   8.669   9.933  0.1483  0.0581  0.2060
  291loPI   GL2 4646   9.918   8.228   9.932 -0.2513 -0.1607  0.5309
  291loPI   C1A 4647   9.755   8.601   9.493 -0.0889  0.0502  0.0351
  291loPI   C2A 4648   9.670   8.544   9.146 -0.0729 -0.3674  0.1267
  291loPI   C3A 4649   9.580   8.679   8.655 -0.1764 -0.0481  0.1237
  291loPI   C4A 4650   9.651   8.858   8.178  0.0676  0.2095 -0.0644
  291loPI   C5A 4651   9.921   8.975   7.754 -0.1075  0.1826  0.0861
  291loPI   C6A 4652  10.130   9.379   7.596  0.0308 -0.1206  0.2343
  291loPI   C1B 4653   9.777   8.105   9.416 -0.0428  0.4225  0.2299
  291loPI   C2B 4654   9.773   8.121   8.973 -0.0525 -0.1257 -0.0769
  291loPI   C3B 4655   9.684   8.093   8.560 -0.0169 -0.1084  0.0924
  291loPI   C4B 4656   9.880   8.393   8.178  0.1511  0.1775  0.0294
  292loPI    C1 4657   3.347  14.804  10.142  0.0831  0.0249  0.0036
  292loPI    C2 4658   3.149  15.083  10.350  0.1128  0.0456  0.0041
  292loPI    C3 4659   3.472  14.908  10.507  0.0406 -0.0553  0.0414
  292loPI   PO4 4660   3.386  14.987   9.897  0.3670 -0.1547 -0.0738
  292loPI   GL1 4661   3.242  15.108   9.534  0.0101 -0.0348 -0.0097
  292loPI   GL2 4662   3.428  15.421   9.599  0.3050  0.0494 -0.4410
  292loPI   C1A 4663   3.113  15.225   9.160 -0.0856 -0.4004  0.0980
  292loPI   C2A 4664   2.914  15.000   8.876 -0.1377 -0.0832 -0.1909
  292loPI   C3A 4665   2.860  14.803   8.438 -0.1640 -0.0989 -0.0019
  292loPI   C4A 4666   3.158  14.602   8.261 -0.1455 -0.1086  0.0652
  292loPI   C5A 4667   3.220  14.483   7.862 -0.0839 -0.0682 -0.2674
  292loPI   C6A 4668   3.566  14.504   7.688  0.1550 -0.1859 -0.0418
  292loPI   C1B 4669   3.560  15.439   9.198 -0.0724 -0.2134 -0.0655
  292loPI   C2B 4670   3.583  15.573   8.643  0.2027 -0.3015 -0.2371
  292loPI   C3B 4671   3.412  15.622   8.241 -0.0393  0.0130  0.0527
  292loPI   C4B 4672   3.311  15.426   7.839  0.0120  0.3599  0.2301
  293loPI    C1 4673   8.558   9.121  10.831  0.1916 -0.0734  0.2752
  293loPI    C2 4674   8.210   9.297  10.921  0.2410  0.1347  0.0691
  293loPI    C3 4675   8.493   9.258  11.201  0.1213  0.1268  0.1900
  293loPI   PO4 4676   8.554   9.127  10.577 -0.1817 -0.1488  0.1636
  293loPI   GL1 4677   8.747   9.201  10.255 -0.0484 -0.0917 -0.1331
  293loPI   GL2 4678   8.736   9.372  10.165  0.3348  0.1335  0.0149
  293loPI   C1A 4679   8.676   8.905   9.935  0.0588 -0.3019  0.0524
  293loPI   C2A 4680   8.728   8.896   9.509 -0.1126 -0.2796  0.0957
  293loPI   C3A 4681   8.658   8.951   8.993 -0.1471 -0.0222 -0.3015
  293loPI   C4A 4682   8.586   9.023   8.614 -0.0049 -0.0656  0.1531
  293loPI   C5A 4683   8.700   9.210   8.265 -0.1703  0.1325 -0.0111
  293loPI   C6A 4684   9.045   9.277   7.889 -0.0143  0.3245 -0.2874
  293loPI   C1B 4685   8.614   9.377   9.710 -0.2798  0.0026  0.2899
  293loPI   C2B 4686   8.501   9.337   9.265 -0.1281 -0.2009 -0.2504
  293loPI   C3B 4687   8.460   9.478   8.836  0.0665 -0.2403 -0.4259
  293loPI   C4B 4688   8.494   9.638   8.460 -0.1887  0.1082  0.1674
  294loPI    C1 4689   2.029   4.935   9.939  0.1223  0.2088 -0.0937
  294loPI    C2 4690   1.891   5.027  10.303 -0.2160 -0.4120 -0.0509
  294loPI    C3 4691   1.715   5.180   9.978 -0.0092  0.0222  0.0332
  294loPI   PO4 4692   2.262   5.043   9.883  0.1193  0.1746 -0.0272
  294loPI   GL1 4693   2.479   5.025   9.518 -0.0703 -0.0711 -0.0752
  294loPI   GL2 4694   2.339   4.745   9.513 -0.1191  0.1350  0.1810
  294loPI   C1A 4695   2.358   5.242   9.173  0.0507 -0.0965 -0.3091
  294loPI   C2A 4696   2.315   5.289   8.665  0.0196  0.1206  0.0720
  294loPI   C3A 4697   2.352   5.605   8.357 -0.2775 -0.1031  0.0120
  294loPI   C4A 4698   2.192   5.602   7.878  0.2488 -0.1372  0.1895
  294loPI   C5A 4699   2.397   5.807   7.563  0.0691  0.0027  0.1069
  294loPI   C6A 4700   2.433   5.962   7.150  0.0990 -0.0699 -0.0149
  294loPI   C1B 4701   2.359   4.692   9.048 -0.0448  0.5059  0.0911
  294loPI   C2B 4702   2.454   4.660   8.592  0.1338  0.2633 -0.3147
  294loPI   C3B 4703   2.516   4.694   8.191 -0.5446  0.1415 -0.0762
  294loPI   C4B 4704   2.764   4.828   7.827  0.1027  0.0193 -0.1301
  295loPI    C1 4705  13.436  16.239  10.526  0.3465 -0.0572 -0.0173
  295loPI    C2 4706  13.431  16.001  10.848  0.1328  0.0208  0.0386
  295loPI    C3 4707  13.544  16.383  10.883 -0.0908  0.0861  0.0628
  295loPI   PO4 4708  13.197  16.058  10.401 -0.4395  0.2292  0.2362
  295loPI   GL1 4709  13.074  15.814  10.058 -0.1141 -0.1079 -0.1207
  295loPI   GL2 4710  12.753  15.907  10.040  0.1161 -0.2775  0.0104
  295loPI   C1A 4711  13.157  15.679   9.612 -0.0918  0.0795  0.0633
  295loPI   C2A 4712  13.151  15.706   9.103  0.2665 -0.0425  0.1074
  295loPI   C3A 4713  12.992  15.737   8.693 -0.0865 -0.0348  0.1864
  295loPI   C4A 4714  12.903  15.641   8.240 -0.1097  0.1298 -0.0839
  295loPI   C5A 4715  12.728  15.445   7.995 -0.1321  0.1912 -0.1257
  295loPI   C6A 4716  12.915  15.100   7.667  0.1839  0.3934  0.2899
  295loPI   C1B 4717  12.668  15.764   9.515 -0.1229  0.2178  0.2827
  295loPI   C2B 4718  12.644  15.814   9.105 -0.0045  0.1689  0.0090
  295loPI   C3B 4719  12.501  15.822   8.630 -0.2641 -0.1820 -0.0942
  295loPI   C4B 4720  12.390  15.916   8.312  0.1392  0.2729  0.1675
  296loPI    C1 4721   0.760  16.258  10.002  0.0231 -0.1702  0.1240
  296loPI    C2 4722   0.442  16.190  10.234  0.0350  0.0083  0.1945
  296loPI    C3 4723   0.730  16.438  10.358  0.1576 -0.0810  0.0912
  296loPI   PO4 4724   0.718  16.011   9.804 -0.0312  0.2293 -0.1987
  296loPI   GL1 4725   1.091  16.098   9.590  0.0127  0.2669  0.2610
  296loPI   GL2 4726   1.335  15.967   9.589  0.0064  0.2341 -0.1190
  296loPI   C1A 4727   0.952  16.091   9.156  0.0913 -0.0403 -0.1867
  296loPI   C2A 4728   0.814  16.228   8.747 -0.2195 -0.0314  0.0906
  296loPI   C3A 4729   0.694  16.490   8.499  0.2518  0.2919  0.0868
  296loPI   C4A 4730   0.395  16.459   8.161 -0.0777 -0.4618  0.0025
  296loPI   C5A 4731   0.168  16.255   7.705 -0.2329 -0.3001  0.0139
  296loPI   C6A 4732   0.116  16.395   7.281  0.0395 -0.4355  0.1527
  296loPI   C1B 4733   1.411  15.951   9.054  0.0817  0.2113  0.1985
  296loPI   C2B 4734   1.331  16.075   8.648  0.2830  0.0727 -0.0929
  296loPI   C3B 4735   1.263  16.308   8.274 -0.1020 -0.2485 -0.0531
  296loPI   C4B 4736   1.085  16.195   7.792 -0.0563  0.0818  0.1763
  297loPI    C1 4737   9.840  12.028  10.711 -0.4558 -0.1022  0.0996
  297loPI    C2 4738  10.022  12.236  11.000 -0.1102 -0.0335 -0.1611
  297loPI    C3 4739  10.026  11.836  11.009  0.0965 -0.0333 -0.1878
  297loPI   PO4 4740   9.692  12.176  10.623 -0.0078  0.2231 -0.0516
  297loPI   GL1 4741   9.776  12.368  10.221 -0.2201  0.1886  0.0223
  297loPI   GL2 4742   9.927  12.613  10.375 -0.0810  0.1237 -0.1421
  297loPI   C1A 4743   9.691  12.443   9.761 -0.0486 -0.2451 -0.0287
  297loPI   C2A 4744   9.686  12.468   9.321 -0.0472  0.0828  0.1056
  297loPI   C3A 4745   9.729  12.460   8.903  0.0442  0.4405 -0.2499
  297loPI   C4A 4746   9.686  12.313   8.511 -0.1942  0.2351 -0.0578
  297loPI   C5A 4747  10.130  12.201   8.516  0.0695 -0.0879 -0.1427
  297loPI   C6A 4748  10.579  12.155   8.420 -0.3941 -0.1235 -0.2343
  297loPI   C1B 4749  10.044  12.737   9.924 -0.1068 -0.0439 -0.0079
  297loPI   C2B 4750  10.168  12.744   9.449 -0.0463  0.1945 -0.0606
  297loPI   C3B 4751  10.125  12.733   8.989  0.1767 -0.0055 -0.2833
  297loPI   C4B 4752  10.054  12.719   8.560  0.2074  0.1672  0.0503
  298loPI    C1 4753  10.132   7.781  10.949 -0.1325 -0.1769  0.1729
  298loPI    C2 4754  10.066   8.175  10.939 -0.0655 -0.1708 -0.2197
  298loPI    C3 4755  10.255   8.011  11.251  0.1584  0.1487 -0.1836
  298loPI   PO4 4756  10.369   7.710  10.794  0.0259 -0.2058 -0.0017
  298loPI   GL1 4757  10.517   7.937  10.337  0.0802 -0.1251 -0.4189
  298loPI   GL2 4758  10.400   7.565  10.327 -0.1071 -0.0982  0.3223
  298loPI   C1A 4759  10.421   7.981   9.858  0.0693  0.0301  0.2003
  298loPI   C2A 4760  10.257   8.030   9.551  0.5397 -0.0667  0.2980
  298loPI   C3A 4761  10.253   7.967   9.170  0.0422  0.0249 -0.1570
  298loPI   C4A 4762  10.299   7.947   8.799 -0.0674  0.0395  0.0106
  298loPI   C5A 4763  10.178   8.013   8.383 -0.3453 -0.2520  0.0757
  298loPI   C6A 4764  10.155   7.777   8.053 -0.3569  0.0660  0.0440
  298loPI   C1B 4765  10.518   7.510   9.927  0.2407  0.1768  0.0682
  298loPI   C2B 4766  10.448   7.501   9.430 -0.0813 -0.0164 -0.0668
  298loPI   C3B 4767  10.377   7.478   8.984  0.2391 -0.0534  0.1322
  298loPI   C4B 4768  10.426   7.533   8.508  0.2098  0.3174  0.0380
  299loPI    C1 4769  13.188  18.039  10.901  0.1381  0.0623 -0.0727
  299loPI    C2 4770  13.417  17.716  10.842 -0.0662 -0.1064  0.0410
  299loPI    C3 4771  13.446  17.922  11.184  0.0654 -0.0017 -0.0324
  299loPI   PO4 4772  12.907  17.919  10.761  0.1862  0.2288 -0.0223
  299loPI   GL1 4773  12.749  17.900  10.310  0.1137 -0.0460 -0.1786
  299loPI   GL2 4774  12.596  18.211  10.192  0.3232  0.1733  0.1918
  299loPI   C1A 4775  12.754  17.700   9.994 -0.0729 -0.0453  0.2652
  299loPI   C2A 4776  12.669  17.745   9.575 -0.2348 -0.0528  0.1795
  299loPI   C3A 4777  12.570  17.752   9.223 -0.1243  0.1399 -0.0753
  299loPI   C4A 4778  12.616  17.828   8.779  0.1357 -0.2486  0.0034
  299loPI   C5A 4779  12.406  17.811   8.347  0.0175 -0.1616  0.1450
  299loPI   C6A 4780  12.385  18.196   8.044 -0.1325  0.0492 -0.0132
  299loPI   C1B 4781  12.544  18.212   9.717  0.0775 -0.1733  0.1431
  299loPI   C2B 4782  12.507  18.212   9.314 -0.0707 -0.3230  0.1005
  299loPI   C3B 4783  12.446  18.258   8.950 -0.0232  0.0370  0.0285
  299loPI   C4B 4784  12.372  18.324   8.496  0.0000  0.0114  0.0925
  300loPI    C1 4785   1.761   1.300  10.460  0.1001 -0.0296  0.0962
  300loPI    C2 4786   1.500   1.549  10.631  0.2020  0.0375  0.1549
  300loPI    C3 4787   1.460   1.154  10.680 -0.1417  0.0231 -0.1928
  300loPI   PO4 4788   1.748   1.303  10.183  0.4717 -0.2498 -0.2907
  300loPI   GL1 4789   1.973   1.450   9.826  0.2365 -0.2076 -0.2919
  300loPI   GL2 4790   2.298   1.616   9.674 -0.3391  0.1702 -0.1826
  300loPI   C1A 4791   1.982   1.299   9.368  0.0871  0.2598  0.3545
  300loPI   C2A 4792   2.084   1.304   8.923 -0.0212 -0.0113  0.0331
  300loPI   C3A 4793   2.167   1.306   8.498  0.1111  0.0471 -0.1839
  300loPI   C4A 4794   2.189   1.114   8.022  0.2682  0.0126  0.0219
  300loPI   C5A 4795   2.157   0.644   7.855  0.2131  0.0951  0.4376
  300loPI   C6A 4796   2.534   0.290   7.676 -0.0623  0.0332 -0.3723
  300loPI   C1B 4797   2.424   1.646   9.229  0.1564  0.1996 -0.1555
  300loPI   C2B 4798   2.427   1.661   8.774  0.1672  0.0586  0.0066
  300loPI   C3B 4799   2.428   1.734   8.321  0.2075 -0.0486  0.3468
  300loPI   C4B 4800   2.131   1.641   8.069  0.0637 -0.0882  0.2889
  301loPI    C1 4801  16.185   9.481  10.439  0.1037  0.1313 -0.1731
  301loPI    C2 4802  16.080   9.680  10.770  0.0744 -0.0679 -0.0612
  301loPI    C3 4803  16.456   9.700  10.635  0.0343  0.1892 -0.1408
  301loPI   PO4 4804  16.018   9.506  10.233 -0.1481  0.1561 -0.1672
  301loPI   GL1 4805  15.892   9.257   9.884 -0.0976  0.1336 -0.2466
  301loPI   GL2 4806  16.003   8.894   9.907 -0.1578 -0.1693 -0.0812
  301loPI   C1A 4807  15.473   9.341   9.615 -0.0155  0.0144  0.1795
  301loPI   C2A 4808  15.368   9.368   9.350  0.3473 -0.1926  0.0535
  301loPI   C3A 4809  15.164   9.349   8.940  0.0870 -0.0136  0.1727
  301loPI   C4A 4810  15.105   9.480   8.479  0.1058 -0.0166  0.0984
  301loPI   C5A 4811  15.097   9.384   8.137 -0.4298  0.0813 -0.0498
  301loPI   C6A 4812  14.969   9.016   7.955  0.0525 -0.1132 -0.4657
  301loPI   C1B 4813  15.717   8.929   9.612 -0.2185  0.1241 -0.0898
  301loPI   C2B 4814  15.530   8.891   9.314 -0.1058 -0.3382  0.1027
  301loPI   C3B 4815  15.405   8.915   8.863  0.0377  0.0700 -0.0881
  301loPI   C4B 4816  15.291   8.982   8.428 -0.0668 -0.1383 -0.4146
  302loPI    C1 4817   9.444   8.110  10.969  0.0138 -0.4197 -0.1909
  302loPI    C2 4818   9.313   7.847  11.241  0.0528 -0.0123  0.2330
  302loPI    C3 4819   9.469   8.197  11.358 -0.5093  0.4508 -0.3247
  302loPI   PO4 4820   9.590   7.982  10.804 -0.0844 -0.1672  0.0831
  302loPI   GL1 4821   9.537   7.687  10.421  0.0391 -0.0402 -0.1202
  302loPI   GL2 4822   9.466   7.803  10.045  0.4847 -0.2278 -0.0652
  302loPI   C1A 4823   9.878   7.491  10.180 -0.0939 -0.1590  0.2034
  302loPI   C2A 4824   9.846   7.677   9.791 -0.0782 -0.0242 -0.0178
  302loPI   C3A 4825   9.954   7.649   9.366 -0.0778  0.0152 -0.4160
  302loPI   C4A 4826   9.841   7.533   9.006 -0.2645  0.0136  0.2715
  302loPI   C5A 4827   9.906   7.564   8.538  0.1476 -0.3880  0.1560
  302loPI   C6A 4828   9.835   7.428   8.185 -0.2122 -0.2481  0.1305
  302loPI   C1B 4829   9.416   7.789   9.551  0.1095 -0.2311 -0.0111
  302loPI   C2B 4830   9.327   7.787   9.143  0.0556  0.0146  0.2935
  302loPI   C3B 4831   9.398   7.770   8.741  0.2301 -0.0040 -0.4127
  302loPI   C4B 4832   9.420   7.525   8.396 -0.0112 -0.0230  0.2198
  303loPI    C1 4833  11.270  14.530  10.796  0.0958 -0.1245  0.1882
  303loPI    C2 4834  11.232  14.873  10.594  0.4202 -0.1613  0.0592
  303loPI    C3 4835  10.913  14.640  10.652  0.1522  0.2580  0.3278
  303loPI   PO4 4836  11.577  14.425  10.744 -0.1167  0.1930 -0.0790
  303loPI   GL1 4837  11.808  14.800  10.572 -0.2549  0.1092 -0.1974
  303loPI   GL2 4838  11.884  15.127  10.290  0.1346  0.1747 -0.2289
  303loPI   C1A 4839  11.615  14.754  10.200 -0.2896  0.0182  0.1157
  303loPI   C2A 4840  11.523  14.758   9.818  0.0503  0.2171 -0.1561
  303loPI   C3A 4841  11.421  14.729   9.456 -0.2075 -0.2510 -0.1206
  303loPI   C4A 4842  11.395  14.725   9.033  0.0320  0.0732  0.3387
  303loPI   C5A 4843  11.297  14.806   8.610  0.1650  0.2893 -0.0892
  303loPI   C6A 4844  11.276  14.990   8.248 -0.0421  0.1464  0.1226
  303loPI   C1B 4845  11.932  15.159   9.845 -0.2405  0.1668 -0.3252
  303loPI   C2B 4846  11.776  15.211   9.421 -0.0731 -0.1292 -0.1811
  303loPI   C3B 4847  11.833  15.139   9.038 -0.1216  0.0256  0.0044
  303loPI   C4B 4848  11.743  15.171   8.603 -0.1547 -0.1967  0.2984
  304loPI    C1 4849  16.189  12.946  10.379  0.0187 -0.1110 -0.0024
  304loPI    C2 4850  16.427  12.628  10.428  0.1269 -0.0472 -0.1087
  304loPI    C3 4851  16.293  12.830  10.747  0.3644  0.0263 -0.0534
  304loPI   PO4 4852  15.948  12.841  10.115  0.1197 -0.1024 -0.0001
  304loPI   GL1 4853  15.916  12.973   9.723  0.1941 -0.0174  0.1271
  304loPI   GL2 4854  16.042  12.594   9.658  0.1343  0.0113 -0.2406
  304loPI   C1A 4855  15.721  12.947   9.377  0.3906  0.1435 -0.2323
  304loPI   C2A 4856  15.779  13.038   9.004  0.0549  0.0565  0.0473
  304loPI   C3A 4857  15.667  13.012   8.588  0.0221  0.1960  0.3087
  304loPI   C4A 4858  15.702  13.151   8.226 -0.1159  0.0644 -0.0944
  304loPI   C5A 4859  15.703  13.079   7.811 -0.1408  0.1730 -0.0105
  304loPI   C6A 4860  15.416  12.885   7.568 -0.1201  0.1320  0.1415
  304loPI   C1B 4861  16.175  12.544   9.237 -0.3210 -0.0792 -0.0675
  304loPI   C2B 4862  16.411  12.401   8.839 -0.3767  0.1386 -0.0553
  304loPI   C3B 4863  16.370  12.095   8.594  0.1844  0.0230  0.0897
  304loPI   C4B 4864  16.215  11.986   8.115  0.0284  0.0165 -0.2109
  305loPI    C1 4865  16.275   6.403  10.352 -0.0554 -0.0352  0.0687
  305loPI    C2 4866  16.147   6.162  10.644  0.1305 -0.1566  0.0518
  305loPI    C3 4867  16.538   6.192  10.567  0.1302  0.3247  0.2033
  305loPI   PO4 4868  16.061   6.415  10.189  0.0347 -0.1686  0.1968
  305loPI   GL1 4869  16.007   6.643   9.816  0.2828  0.2019  0.2430
  305loPI   GL2 4870  16.227   6.313   9.743  0.3432 -0.0242 -0.0058
  305loPI   C1A 4871  16.089   6.816   9.427 -0.1069  0.1209 -0.0784
  305loPI   C2A 4872  15.985   6.812   8.995  0.1270 -0.2411 -0.1237
  305loPI   C3A 4873  15.801   6.814   8.681  0.0533 -0.0345  0.2682
  305loPI   C4A 4874  15.661   6.951   8.223  0.1551 -0.0223  0.2419
  305loPI   C5A 4875  15.356   7.033   7.991  0.1367 -0.0867 -0.3134
  305loPI   C6A 4876  15.162   7.261   7.700 -0.1097 -0.0390 -0.3439
  305loPI   C1B 4877  16.022   6.297   9.416 -0.3043 -0.1197  0.2141
  305loPI   C2B 4878  15.723   6.076   9.143  0.1843  0.2026 -0.2568
  305loPI   C3B 4879  15.574   5.982   8.720 -0.2921  0.2572 -0.3601
  305loPI   C4B 4880  15.622   5.882   8.276  0.1270 -0.5626 -0.0620
  306loPI    C1 4881  18.107  17.413  10.072  0.2219 -0.0836 -0.0123
  306loPI    C2 4882  18.112  17.569  10.441 -0.1630  0.1780 -0.1112
  306loPI    C3 4883  17.969  17.200  10.381  0.0716  0.0633  0.0237
  306loPI   PO4 4884  18.046  17.703   9.976 -0.3274 -0.2497  0.2839
  306loPI   GL1 4885  17.973  17.979   9.620 -0.3574 -0.2049 -0.0955
  306loPI   GL2 4886  18.287  17.921   9.481  0.1707 -0.0574 -0.1715
  306loPI   C1A 4887  17.962  17.780   9.133  0.1409 -0.3350 -0.1664
  306loPI   C2A 4888  17.846  17.824   8.653 -0.0125 -0.1461 -0.0023
  306loPI   C3A 4889  18.100  17.898   8.311 -0.2254 -0.0287 -0.3273
  306loPI   C4A 4890  18.505  18.050   8.048  0.1780 -0.1145 -0.0006
  306loPI   C5A 4891  18.460  18.404   7.890 -0.1980 -0.2787 -0.0023
  306loPI   C6A 4892  18.408  18.689   7.609 -0.0020  0.0934  0.2039
  306loPI   C1B 4893  18.374  18.134   9.140  0.1888  0.3662 -0.2847
  306loPI   C2B 4894  18.313  18.156   8.724  0.2501 -0.0250 -0.1435
  306loPI   C3B 4895  18.317  18.386   8.368  0.2088 -0.0391  0.0542
  306loPI   C4B 4896  18.294  18.810   8.129  0.1580 -0.2283  0.0250
  307loPI    C1 4897   8.347   6.990  10.949  0.1250 -0.0017 -0.0190
  307loPI    C2 4898   8.130   7.178  11.227 -0.0673 -0.2644  0.0126
  307loPI    C3 4899   8.522   7.123  11.283 -0.0164  0.0836  0.0221
  307loPI   PO4 4900   8.207   6.776  10.890 -0.3175  0.3463  0.1855
  307loPI   GL1 4901   8.004   6.530  10.491  0.0196  0.2647  0.1374
  307loPI   GL2 4902   7.937   6.778  10.276 -0.1300 -0.1293  0.0269
  307loPI   C1A 4903   7.905   6.421   9.985 -0.1067  0.1936  0.3092
  307loPI   C2A 4904   8.034   6.188   9.577 -0.1175 -0.2361 -0.2392
  307loPI   C3A 4905   8.004   6.297   9.122 -0.0504  0.0628  0.0142
  307loPI   C4A 4906   7.948   6.350   8.694 -0.1947 -0.0112 -0.0449
  307loPI   C5A 4907   7.954   6.345   8.275 -0.0915  0.0542  0.1500
  307loPI   C6A 4908   7.994   5.993   7.992 -0.1133  0.1234 -0.2261
  307loPI   C1B 4909   7.936   6.883   9.870  0.1281 -0.1186 -0.0904
  307loPI   C2B 4910   7.879   6.845   9.421 -0.2461 -0.1279  0.2746
  307loPI   C3B 4911   7.844   6.902   8.975  0.1229 -0.3017 -0.0098
  307loPI   C4B 4912   7.995   6.810   8.528  0.1511 -0.1826 -0.0983
  308loPI    C1 4913   9.379  13.175  11.137  0.2546 -0.1284  0.1687
  308loPI    C2 4914   9.430  12.867  11.388 -0.0603 -0.1901  0.1607
  308loPI    C3 4915   9.148  13.141  11.461 -0.1066 -0.1692 -0.0876
  308loPI   PO4 4916   9.418  13.026  10.822  0.3319  0.3794  0.1099
  308loPI   GL1 4917   9.676  13.050  10.455  0.1906 -0.2486  0.2101
  308loPI   GL2 4918   9.662  13.345  10.515 -0.2829  0.0230  0.0153
  308loPI   C1A 4919   9.607  12.945  10.000  0.1219 -0.3014  0.2043
  308loPI   C2A 4920   9.725  12.961   9.637 -0.1824 -0.2811 -0.1754
  308loPI   C3A 4921   9.593  13.046   9.285 -0.0557  0.1961 -0.2338
  308loPI   C4A 4922   9.553  12.950   8.846  0.1278 -0.0028  0.0193
  308loPI   C5A 4923   9.532  12.827   8.491 -0.1507 -0.2505  0.3096
  308loPI   C6A 4924   9.430  12.758   8.006 -0.2461  0.3103  0.0875
  308loPI   C1B 4925   9.462  13.375  10.128 -0.1662 -0.1257 -0.0985
  308loPI   C2B 4926   9.396  13.496   9.769  0.1307  0.2333 -0.1104
  308loPI   C3B 4927   9.403  13.561   9.316  0.0190  0.0223  0.3362
  308loPI   C4B 4928   9.437  13.507   8.857 -0.0674 -0.0067 -0.0402
  309loPI    C1 4929   7.879   6.157  10.731 -0.0178  0.0582  0.0323
  309loPI    C2 4930   7.857   5.968  11.083  0.0667  0.0574  0.0373
  309loPI    C3 4931   8.013   6.336  11.063  0.0837  0.0481 -0.0026
  309loPI   PO4 4932   7.975   6.041  10.588  0.1240  0.1267 -0.0343
  309loPI   GL1 4933   8.210   6.106  10.252  0.2785 -0.1460 -0.0728
  309loPI   GL2 4934   8.140   5.803  10.223  0.3409  0.1483  0.3920
  309loPI   C1A 4935   8.502   6.142   9.785  0.0101  0.0134  0.2031
  309loPI   C2A 4936   8.490   6.201   9.304  0.0393  0.0267  0.0131
  309loPI   C3A 4937   8.385   6.152   8.871  0.1455  0.1042 -0.1423
  309loPI   C4A 4938   8.351   6.140   8.447  0.0794 -0.1522 -0.2990
  309loPI   C5A 4939   8.442   6.123   8.011 -0.1372  0.3243  0.0481
  309loPI   C6A 4940   8.298   6.277   7.706  0.0929 -0.2896 -0.0693
  309loPI   C1B 4941   8.103   5.747   9.767 -0.4984 -0.0594  0.0188
  309loPI   C2B 4942   8.155   5.766   9.363  0.0781 -0.2193  0.3496
  309loPI   C3B 4943   8.125   5.738   8.910  0.0222 -0.2922 -0.0413
  309loPI   C4B 4944   7.999   5.811   8.513 -0.1394 -0.1104 -0.0685
  310loPI    C1 4945   1.067   8.797   9.811 -0.0120 -0.0141  0.0400
  310loPI    C2 4946   1.077   8.575  10.144  0.2228 -0.2164 -0.0989
  310loPI    C3 4947   0.952   8.954  10.161 -0.0022 -0.2991  0.1746
  310loPI   PO4 4948   1.323   8.725   9.688 -0.1481  0.1867 -0.1542
  310loPI   GL1 4949   1.274   8.421   9.375 -0.2713  0.1879 -0.1070
  310loPI   GL2 4950   1.425   8.216   9.120 -0.1045  0.1348 -0.3165
  310loPI   C1A 4951   1.066   8.517   8.867 -0.1196  0.2297 -0.2604
  310loPI   C2A 4952   0.996   8.452   8.423  0.2454 -0.2407  0.1765
  310loPI   C3A 4953   1.089   8.275   7.994 -0.1153 -0.3520  0.0581
  310loPI   C4A 4954   1.264   8.376   7.574  0.0610  0.0542 -0.1524
  310loPI   C5A 4955   1.473   8.669   7.340 -0.1455  0.0319  0.1060
  310loPI   C6A 4956   1.764   8.706   6.936 -0.3754  0.1225  0.0946
  310loPI   C1B 4957   1.270   8.041   8.795 -0.1025 -0.3035 -0.1700
  310loPI   C2B 4958   1.281   8.042   8.386 -0.1459  0.0637 -0.2799
  310loPI   C3B 4959   1.260   7.777   8.064  0.0766 -0.3352 -0.0616
  310loPI   C4B 4960   1.232   7.562   7.796  0.0113  0.0420  0.0277
  311loPI    C1 4961   4.585   1.031  10.747  0.2077  0.0815 -0.1046
  311loPI    C2 4962   4.464   1.411  10.714  0.1515  0.0750  0.0206
  311loPI    C3 4963   4.809   1.326  10.899  0.0169  0.0441  0.2612
  311loPI   PO4 4964   4.493   0.957  10.454 -0.0382 -0.0410  0.0242
  311loPI   GL1 4965   4.376   0.786  10.012  0.2056 -0.1916 -0.1239
  311loPI   GL2 4966   4.602   0.666   9.926 -0.1633  0.1411 -0.2343
  311loPI   C1A 4967   4.504   1.111   9.665 -0.1075 -0.0996  0.2258
  311loPI   C2A 4968   4.614   1.129   9.266  0.1197  0.2628 -0.2661
  311loPI   C3A 4969   4.570   1.112   8.876 -0.1333  0.5389 -0.2300
  311loPI   C4A 4970   4.578   1.208   8.482 -0.1114 -0.3172 -0.1103
  311loPI   C5A 4971   4.595   1.271   8.016 -0.2979 -0.0445  0.2580
  311loPI   C6A 4972   4.535   1.288   7.646  0.1112  0.0523 -0.1503
  311loPI   C1B 4973   4.638   0.681   9.502  0.0977  0.0423  0.0815
  311loPI   C2B 4974   4.627   0.612   9.036 -0.1089  0.0780  0.1079
  311loPI   C3B 4975   4.767   0.694   8.619  0.2032  0.4006  0.2295
  311loPI   C4B 4976   4.757   0.793   8.132 -0.1251 -0.5524  0.0145
  312loPI    C1 4977   9.228  16.223  11.252 -0.1055 -0.0836  0.1929
  312loPI    C2 4978   9.360  15.876  11.400  0.0518 -0.1550 -0.1056
  312loPI    C3 4979   9.399  16.213  11.613  0.1068 -0.2829  0.0894
  312loPI   PO4 4980   9.249  16.061  10.967  0.0528  0.2356  0.1184
  312loPI   GL1 4981   9.269  15.993  10.499 -0.1295 -0.0568 -0.0822
  312loPI   GL2 4982   9.243  16.284  10.464  0.1381  0.0253  0.0370
  312loPI   C1A 4983   9.332  15.882  10.047  0.2251 -0.0133 -0.0602
  312loPI   C2A 4984   9.280  15.929   9.693  0.2571 -0.1503  0.5943
  312loPI   C3A 4985   9.239  15.836   9.227 -0.0022  0.0121  0.2105
  312loPI   C4A 4986   9.328  15.717   8.769  0.0762  0.0606  0.1658
  312loPI   C5A 4987   9.348  15.373   8.535 -0.1131  0.0151 -0.3498
  312loPI   C6A 4988   9.408  15.014   8.368 -0.0970  0.1164  0.0619
  312loPI   C1B 4989   9.155  16.359  10.012  0.1576 -0.3200 -0.1846
  312loPI   C2B 4990   9.141  16.408   9.639 -0.1520 -0.0336 -0.1615
  312loPI   C3B 4991   9.049  16.468   9.202 -0.0623  0.1523 -0.5130
  312loPI   C4B 4992   9.242  16.249   8.855 -0.0524 -0.2251  0.1269
  313loPI    C1 4993   7.538  17.456  11.025 -0.1232 -0.1545 -0.2778
  313loPI    C2 4994   7.403  17.560  11.387  0.0609 -0.0993 -0.2241
  313loPI    C3 4995   7.597  17.214  11.338 -0.1779 -0.2219 -0.3194
  313loPI   PO4 4996   7.657  17.748  10.964 -0.2389  0.0853  0.2761
  313loPI   GL1 4997   7.740  17.819  10.513  0.0717  0.0159 -0.2014
  313loPI   GL2 4998   7.750  18.102  10.384 -0.1886 -0.1631 -0.0166
  313loPI   C1A 4999   7.816  17.606  10.153  0.1019 -0.2451 -0.1055
  313loPI   C2A 5000   7.982  17.607   9.711  0.2279 -0.1631 -0.0621
  313loPI   C3A 5001   7.909  17.572   9.280 -0.3983  0.0064 -0.0616
  313loPI   C4A 5002   8.050  17.652   8.873 -0.1193  0.0704  0.0500
  313loPI   C5A 5003   7.971  17.691   8.505 -0.2091 -0.0386 -0.2632
  313loPI   C6A 5004   7.594  17.745   8.101  0.0108  0.1530  0.2161
  313loPI   C1B 5005   7.826  18.285  10.058 -0.0629  0.0640  0.0868
  313loPI   C2B 5006   7.855  18.146   9.686  0.2548  0.5005 -0.4014
  313loPI   C3B 5007   7.789  18.127   9.201 -0.3468 -0.0103  0.1403
  313loPI   C4B 5008   7.785  18.244   8.809 -0.0040  0.1463  0.1652
  314loPI    C1 5009   2.702   8.369   9.882 -0.0592 -0.2340  0.2538
  314loPI    C2 5010   3.034   8.490  10.070  0.0087  0.0756 -0.0554
  314loPI    C3 5011   2.735   8.325  10.278  0.2838 -0.0489  0.2497
  314loPI   PO4 5012   2.776   8.312   9.658  0.1165 -0.0738 -0.0784
  314loPI   GL1 5013   2.886   7.952   9.470  0.0969 -0.2706  0.2615
  314loPI   GL2 5014   3.120   8.148   9.256  0.0704 -0.2193 -0.1169
  314loPI   C1A 5015   3.138   7.568   9.318  0.0042 -0.2345  0.1449
  314loPI   C2A 5016   3.329   7.549   8.926 -0.1509  0.1189  0.0525
  314loPI   C3A 5017   3.491   7.543   8.563 -0.1011 -0.3792 -0.0772
  314loPI   C4A 5018   3.406   7.770   8.131 -0.2378  0.1743 -0.0829
  314loPI   C5A 5019   3.157   7.760   7.714 -0.0252  0.0743 -0.2620
  314loPI   C6A 5020   3.054   7.894   7.433  0.0101 -0.0619  0.1771
  314loPI   C1B 5021   3.102   8.005   8.849 -0.0552  0.0932  0.1702
  314loPI   C2B 5022   3.224   8.088   8.427 -0.0023 -0.3022  0.0951
  314loPI   C3B 5023   3.155   8.191   8.043  0.1399 -0.2317 -0.2231
  314loPI   C4B 5024   3.178   8.356   7.636 -0.0609  0.3906 -0.0271
  315loPI    C1 5025  12.170   3.547  11.402 -0.0147  0.0032  0.2367
  315loPI    C2 5026  12.076   3.165  11.326 -0.2446  0.0888  0.0827
  315loPI    C3 5027  12.435   3.256  11.478 -0.1561 -0.1801  0.0396
  315loPI   PO4 5028  12.152   3.653  11.141  0.0779  0.0755  0.1467
  315loPI   GL1 5029  11.963   3.794  10.645  0.3097 -0.1083  0.1138
  315loPI   GL2 5030  12.097   3.624  10.411  0.1018  0.2244  0.0036
  315loPI   C1A 5031  12.022   4.126  10.301  0.0374  0.1344 -0.3996
  315loPI   C2A 5032  11.946   4.162   9.843 -0.0895 -0.1886 -0.2510
  315loPI   C3A 5033  11.883   4.228   9.525 -0.0252  0.0149 -0.0277
  315loPI   C4A 5034  11.780   4.231   9.034 -0.1811 -0.1037 -0.1776
  315loPI   C5A 5035  11.599   4.129   8.538  0.1644  0.1179 -0.1493
  315loPI   C6A 5036  11.160   4.118   8.461 -0.2787 -0.0774  0.1469
  315loPI   C1B 5037  12.078   3.693   9.993  0.2606 -0.0367  0.1177
  315loPI   C2B 5038  11.962   3.716   9.565 -0.1827 -0.0706 -0.0935
  315loPI   C3B 5039  11.859   3.713   9.129  0.4195 -0.3664 -0.0726
  315loPI   C4B 5040  11.923   3.800   8.799  0.2462  0.1557 -0.0034
  316loPI    C1 5041  17.475   3.841   9.893  0.1773  0.1122  0.0185
  316loPI    C2 5042  17.389   4.016  10.243  0.1521  0.0440  0.0466
  316loPI    C3 5043  17.234   3.658  10.155  0.2557  0.0059  0.0168
  316loPI   PO4 5044  17.448   4.041   9.674 -0.1261 -0.3191 -0.1467
  316loPI   GL1 5045  17.248   4.041   9.380  0.4028 -0.2930  0.2090
  316loPI   GL2 5046  16.968   3.952   9.338  0.0080  0.1048  0.1463
  316loPI   C1A 5047  17.254   4.207   8.975 -0.0114 -0.2820  0.1520
  316loPI   C2A 5048  17.042   4.234   8.597  0.2741  0.1929  0.0115
  316loPI   C3A 5049  16.971   4.179   8.139  0.0941  0.1929  0.1116
  316loPI   C4A 5050  16.771   4.095   7.743  0.1927 -0.1967  0.1830
  316loPI   C5A 5051  17.055   4.209   7.530 -0.2669 -0.0313  0.0259
  316loPI   C6A 5052  17.463   4.528   7.309 -0.0160  0.0989  0.2146
  316loPI   C1B 5053  16.736   4.181   9.093 -0.2596  0.0663 -0.0174
  316loPI   C2B 5054  16.531   4.306   8.765  0.4728 -0.0782 -0.0606
  316loPI   C3B 5055  16.615   4.469   8.355 -0.0423 -0.2031  0.1387
  316loPI   C4B 5056  16.692   4.561   7.915 -0.2284 -0.0251  0.1292
  317loPI    C1 5057   4.441  13.590   9.892  0.2066  0.2574  0.0043
  317loPI    C2 5058   4.509  13.582  10.287 -0.1750  0.1460  0.0719
  317loPI    C3 5059   4.183  13.764  10.144 -0.2913 -0.2271 -0.1523
  317loPI   PO4 5060   4.698  13.659   9.791 -0.1102  0.0634 -0.1831
  317loPI   GL1 5061   4.820  14.046   9.542 -0.1917  0.1077  0.2673
  317loPI   GL2 5062   5.132  14.111   9.619 -0.3730 -0.0378 -0.0566
  317loPI   C1A 5063   4.922  14.276   9.082 -0.1733 -0.1565 -0.1653
  317loPI   C2A 5064   5.013  14.347   8.731  0.1843 -0.3931  0.0483
  317loPI   C3A 5065   4.868  14.373   8.266 -0.0777  0.1180  0.4915
  317loPI   C4A 5066   4.995  14.269   7.965  0.3054 -0.3182 -0.0711
  317loPI   C5A 5067   5.299  14.162   7.696  0.2792 -0.0072  0.1005
  317loPI   C6A 5068   5.710  14.191   7.532 -0.0554  0.1101 -0.2358
  317loPI   C1B 5069   5.536  14.203   9.337 -0.4139 -0.1501  0.2375
  317loPI   C2B 5070   5.561  14.172   8.908  0.0631 -0.1687  0.1314
  317loPI   C3B 5071   5.601  14.316   8.436 -0.1439  0.0938 -0.2654
  317loPI   C4B 5072   5.645  14.173   8.037 -0.0935 -0.0764  0.1208
  318loPI    C1 5073   8.464   7.519  10.961 -0.2321  0.1075 -0.1794
  318loPI    C2 5074   8.269   7.851  11.069 -0.2262  0.0677 -0.0444
  318loPI    C3 5075   8.435   7.617  11.348 -0.1759 -0.0155 -0.1435
  318loPI   PO4 5076   8.625   7.631  10.805 -0.2816  0.3707 -0.0744
  318loPI   GL1 5077   8.653   7.644  10.400  0.3026  0.1751 -0.1767
  318loPI   GL2 5078   8.896   7.812  10.297  0.0179  0.2147  0.1553
  318loPI   C1A 5079   8.572   7.581   9.965 -0.4250 -0.0262  0.3109
  318loPI   C2A 5080   8.624   7.534   9.564  0.2677  0.0567 -0.1208
  318loPI   C3A 5081   8.551   7.609   9.173  0.0049 -0.3718  0.1531
  318loPI   C4A 5082   8.510   7.508   8.679  0.2073 -0.2875  0.2459
  318loPI   C5A 5083   8.764   7.573   8.301 -0.1234 -0.0040 -0.0922
  318loPI   C6A 5084   9.067   7.640   8.046 -0.3181 -0.1881  0.0901
  318loPI   C1B 5085   8.973   7.946   9.812 -0.0783 -0.0961  0.1805
  318loPI   C2B 5086   8.867   7.936   9.342  0.1871  0.2104 -0.0289
  318loPI   C3B 5087   8.909   7.953   8.901 -0.2785  0.2599 -0.2178
  318loPI   C4B 5088   9.097   7.988   8.451  0.0564 -0.0791 -0.0472
  319loPI    C1 5089   9.374   2.194  11.128  0.1662 -0.2331  0.2720
  319loPI    C2 5090   9.031   2.227  11.332 -0.0118 -0.1352 -0.0355
  319loPI    C3 5091   9.295   2.528  11.334 -0.0106 -0.1365  0.0528
  319loPI   PO4 5092   9.304   2.113  10.851  0.3850  0.2702 -0.1333
  319loPI   GL1 5093   9.429   2.175  10.510  0.2113  0.1124 -0.1463
  319loPI   GL2 5094   9.432   2.421  10.347  0.1874 -0.1853  0.0153
  319loPI   C1A 5095   9.596   2.070  10.083 -0.0679 -0.0052 -0.1536
  319loPI   C2A 5096   9.635   2.086   9.664 -0.0669 -0.1463 -0.0346
  319loPI   C3A 5097   9.531   2.132   9.273  0.2101  0.1692 -0.1413
  319loPI   C4A 5098   9.553   2.115   8.819  0.1455 -0.1534 -0.1051
  319loPI   C5A 5099   9.405   1.969   8.409 -0.1807 -0.4895 -0.0079
  319loPI   C6A 5100   9.192   1.802   7.976  0.0748 -0.1450 -0.1737
  319loPI   C1B 5101   9.478   2.529   9.993  0.0823  0.1258 -0.1437
  319loPI   C2B 5102   9.474   2.601   9.458  0.0238  0.0715  0.4262
  319loPI   C3B 5103   9.398   2.573   9.008  0.1252  0.3058 -0.0942
  319loPI   C4B 5104   9.474   2.574   8.664 -0.1181 -0.0782  0.0118
  320loPI    C1 5105  10.332   3.432  11.083  0.2062  0.2345 -0.1520
  320loPI    C2 5106  10.148   3.787  11.064  0.2476  0.2741  0.1502
  320loPI    C3 5107  10.326   3.671  11.403 -0.0820 -0.1932  0.1725
  320loPI   PO4 5108  10.323   3.420  10.708 -0.0000  0.2956  0.4556
  320loPI   GL1 5109  10.200   3.772  10.571  0.0733  0.0166 -0.1223
  320loPI   GL2 5110   9.984   3.700  10.304 -0.1898  0.2974 -0.2206
  320loPI   C1A 5111  10.359   4.085  10.200  0.0618 -0.0833 -0.0727
  320loPI   C2A 5112  10.444   4.182   9.769  0.2579  0.1687 -0.1368
  320loPI   C3A 5113  10.401   4.188   9.336 -0.2173  0.0545 -0.2807
  320loPI   C4A 5114  10.432   4.304   8.934 -0.3747  0.1812 -0.2857
  320loPI   C5A 5115  10.535   4.164   8.546  0.1247  0.0092 -0.1550
  320loPI   C6A 5116  10.808   4.293   8.203  0.1800  0.1899  0.0947
  320loPI   C1B 5117  10.077   3.822   9.907 -0.1921  0.2292  0.0932
  320loPI   C2B 5118  10.065   3.826   9.448 -0.1456  0.0405  0.0605
  320loPI   C3B 5119  10.090   3.927   9.030 -0.3459 -0.0881  0.2615
  320loPI   C4B 5120   9.941   3.815   8.674 -0.1340  0.5429  0.2965
  321loPI    C1 5121   7.580  16.816  11.088  0.0281  0.1547 -0.0158
  321loPI    C2 5122   7.567  16.453  11.257  0.3000  0.1301 -0.0435
  321loPI    C3 5123   7.229  16.629  11.134  0.1456 -0.0305  0.1443
  321loPI   PO4 5124   7.839  16.768  10.952  0.4386 -0.2007 -0.0681
  321loPI   GL1 5125   8.122  16.793  10.573 -0.2566 -0.0105 -0.0038
  321loPI   GL2 5126   7.989  16.654  10.289  0.0892 -0.1242  0.1174
  321loPI   C1A 5127   8.432  16.953  10.189  0.1301  0.3429 -0.0895
  321loPI   C2A 5128   8.480  17.093   9.909  0.2072 -0.1542  0.1325
  321loPI   C3A 5129   8.601  17.108   9.569  0.1127  0.1266 -0.0153
  321loPI   C4A 5130   8.574  17.053   9.113 -0.2174 -0.1063  0.1268
  321loPI   C5A 5131   8.741  17.064   8.660  0.2025 -0.0792  0.0704
  321loPI   C6A 5132   8.804  17.013   8.226  0.0271 -0.2122  0.1130
  321loPI   C1B 5133   8.149  16.619   9.766  0.0237 -0.0937 -0.2845
  321loPI   C2B 5134   8.133  16.617   9.353 -0.1812 -0.1812  0.1181
  321loPI   C3B 5135   8.163  16.674   8.865  0.3892  0.0280  0.0479
  321loPI   C4B 5136   8.353  16.687   8.492  0.0518  0.2750  0.3294
  322loPI    C1 5137  12.088  12.055  10.660  0.0815  0.1785 -0.0346
  322loPI    C2 5138  12.015  12.215  11.019 -0.1373  0.0813 -0.0337
  322loPI    C3 5139  12.339  12.326  10.812 -0.0089  0.1365  0.1932
  322loPI   PO4 5140  11.840  12.134  10.555 -0.0406  0.1908 -0.2223
  322loPI   GL1 5141  11.671  12.258  10.172  0.1815  0.2473 -0.2182
  322loPI   GL2 5142  11.531  12.542  10.307 -0.1951  0.2310 -0.0201
  322loPI   C1A 5143  11.620  12.407   9.741  0.0844 -0.0378 -0.1962
  322loPI   C2A 5144  11.616  12.360   9.353 -0.0540  0.0485 -0.1508
  322loPI   C3A 5145  11.620  12.386   8.868  0.0374 -0.1896 -0.0686
  322loPI   C4A 5146  11.412  12.471   8.378 -0.0144  0.2264  0.0958
  322loPI   C5A 5147  11.562  12.633   7.982  0.1087  0.1866 -0.1518
  322loPI   C6A 5148  11.782  12.370   7.665  0.1156  0.1716  0.0729
  322loPI   C1B 5149  11.459  12.874   9.908 -0.0966  0.0799 -0.0082
  322loPI   C2B 5150  11.519  12.848   9.514 -0.4085  0.1962  0.3253
  322loPI   C3B 5151  11.447  12.886   8.975  0.1655  0.1036  0.0996
  322loPI   C4B 5152  11.380  12.989   8.578  0.0850 -0.0693  0.1519
  323loPI    C1 5153  10.979  18.083  10.788 -0.0822 -0.0204  0.2574
  323loPI    C2 5154  11.141  17.867  11.083  0.1823 -0.0874  0.0667
  323loPI    C3 5155  11.200  18.263  11.068  0.1175 -0.0750  0.1369
  323loPI   PO4 5156  11.061  17.948  10.527  0.3424 -0.0590  0.1335
  323loPI   GL1 5157  11.367  17.887  10.285  0.1218  0.2049  0.2020
  323loPI   GL2 5158  11.396  17.587  10.069 -0.1620 -0.0308  0.1449
  323loPI   C1A 5159  10.992  17.749   9.859  0.0596 -0.0945  0.0909
  323loPI   C2A 5160  10.858  17.814   9.477  0.0567  0.1760  0.1661
  323loPI   C3A 5161  10.771  17.802   9.034 -0.1210  0.1859  0.2724
  323loPI   C4A 5162  10.689  17.926   8.545 -0.2827  0.0864  0.1391
  323loPI   C5A 5163  10.763  18.267   8.183  0.0974  0.2859  0.1047
  323loPI   C6A 5164  10.506  18.441   7.792  0.5598  0.1651 -0.0269
  323loPI   C1B 5165  11.374  17.629   9.535 -0.1699  0.0730  0.0977
  323loPI   C2B 5166  11.356  17.682   9.082  0.0409  0.0584 -0.3457
  323loPI   C3B 5167  11.143  17.770   8.671 -0.1276 -0.0480  0.2274
  323loPI   C4B 5168  10.934  17.609   8.282 -0.3328 -0.1683 -0.1703
  324loPI    C1 5169   4.989  12.538   9.887  0.0093  0.0993  0.0799
  324loPI    C2 5170   4.970  12.433  10.273  0.0208  0.0553  0.0685
  324loPI    C3 5171   4.635  12.519  10.072 -0.0284 -0.3374 -0.0266
  324loPI   PO4 5172   5.178  12.784   9.825 -0.0374  0.2679 -0.3013
  324loPI   GL1 5173   5.150  12.807   9.402  0.1128  0.0147  0.1230
  324loPI   GL2 5174   5.054  12.537   9.312 -0.2410  0.1181 -0.0852
  324loPI   C1A 5175   5.486  12.751   9.091 -0.1139 -0.1906  0.2624
  324loPI   C2A 5176   5.508  12.732   8.672 -0.0317 -0.1627 -0.0376
  324loPI   C3A 5177   5.468  12.737   8.248 -0.5766  0.0667 -0.4881
  324loPI   C4A 5178   5.513  12.655   7.843 -0.0180 -0.0373  0.1212
  324loPI   C5A 5179   5.779  12.662   7.597 -0.1108 -0.2285  0.0213
  324loPI   C6A 5180   6.089  12.817   7.252  0.0924  0.1959  0.0231
  324loPI   C1B 5181   5.068  12.549   8.908  0.1333  0.1065 -0.0559
  324loPI   C2B 5182   5.092  12.451   8.420  0.1010  0.0181  0.0214
  324loPI   C3B 5183   5.063  12.420   7.946  0.1365  0.0400  0.0561
  324loPI   C4B 5184   5.207  12.357   7.531 -0.1417  0.1573 -0.2990
  325loPI    C1 5185   0.183   3.956   9.998  0.0657  0.0206 -0.1566
  325loPI    C2 5186  -0.089   3.741   9.798  0.1274 -0.1234 -0.0867
  325loPI    C3 5187   0.005   3.644  10.175  0.3152 -0.1086 -0.1285
  325loPI   PO4 5188   0.358   4.090   9.757 -0.0974 -0.0561  0.3307
  325loPI   GL1 5189   0.398   3.918   9.323  0.2458 -0.1910 -0.0689
  325loPI   GL2 5190   0.556   3.691   9.164  0.1916  0.0430  0.1557
  325loPI   C1A 5191   0.363   4.189   9.034 -0.0235 -0.1419  0.0347
  325loPI   C2A 5192   0.370   4.244   8.577 -0.0608  0.3408  0.1027
  325loPI   C3A 5193   0.454   4.238   8.086  0.1583  0.1371 -0.1292
  325loPI   C4A 5194   0.366   4.510   7.742  0.0528  0.1839  0.1172
  325loPI   C5A 5195   0.281   4.408   7.328  0.3957 -0.0888  0.0471
  325loPI   C6A 5196   0.260   4.412   6.832 -0.2273 -0.0524  0.0256
  325loPI   C1B 5197   0.441   3.767   8.753 -0.0245 -0.5164  0.0459
  325loPI   C2B 5198   0.445   3.779   8.295 -0.0432  0.2208  0.3290
  325loPI   C3B 5199   0.318   3.690   7.915 -0.0520 -0.0856 -0.1305
  325loPI   C4B 5200   0.153   3.640   7.553  0.0519 -0.0536 -0.4644
  326loPI    C1 5201   6.455   8.562  10.521  0.0024 -0.0250  0.1969
  326loPI    C2 5202   6.560   8.176  10.540  0.1444  0.0132  0.1981
  326loPI    C3 5203   6.420   8.362  10.866 -0.0832 -0.0808  0.1563
  326loPI   PO4 5204   6.368   8.596  10.304  0.3018  0.1811  0.0642
  326loPI   GL1 5205   6.320   8.344   9.983 -0.0953 -0.2981  0.3794
  326loPI   GL2 5206   6.363   8.580   9.815 -0.0174 -0.0959  0.0567
  326loPI   C1A 5207   6.587   8.052   9.727  0.0206 -0.0883  0.4091
  326loPI   C2A 5208   6.556   8.067   9.273  0.1093 -0.2260 -0.3266
  326loPI   C3A 5209   6.539   8.072   8.887 -0.2032 -0.1139  0.2324
  326loPI   C4A 5210   6.507   8.159   8.437  0.1307  0.2579  0.1683
  326loPI   C5A 5211   6.547   8.229   8.019 -0.0057 -0.1550 -0.1768
  326loPI   C6A 5212   6.699   8.167   7.535 -0.1955 -0.0360  0.2928
  326loPI   C1B 5213   6.438   8.632   9.414  0.0573  0.0142 -0.0709
  326loPI   C2B 5214   6.457   8.659   9.016 -0.2266  0.1350  0.1225
  326loPI   C3B 5215   6.376   8.692   8.579 -0.2293  0.0776 -0.0582
  326loPI   C4B 5216   6.426   8.681   8.248 -0.1353  0.3754 -0.4819
  327loPI    C1 5217   3.833   6.139  10.374  0.0025  0.3336 -0.2374
  327loPI    C2 5218   3.869   6.484  10.572 -0.1181  0.1824  0.0526
  327loPI    C3 5219   4.035   6.151  10.719 -0.0655  0.1013 -0.1876
  327loPI   PO4 5220   3.912   6.313  10.097  0.0123 -0.0985  0.1269
  327loPI   GL1 5221   3.878   6.348   9.725 -0.3076 -0.3447  0.2573
  327loPI   GL2 5222   4.105   6.621   9.674 -0.2868  0.1483  0.1002
  327loPI   C1A 5223   4.017   6.311   9.303 -0.2026 -0.0894 -0.1122
  327loPI   C2A 5224   3.955   6.424   8.935  0.1103  0.3730  0.1122
  327loPI   C3A 5225   4.155   6.273   8.530  0.0245  0.2430  0.2354
  327loPI   C4A 5226   4.236   6.069   8.212 -0.0450  0.0870  0.0459
  327loPI   C5A 5227   4.376   5.953   7.763  0.0697 -0.2563 -0.1440
  327loPI   C6A 5228   4.307   5.556   7.532 -0.0138  0.0764 -0.1244
  327loPI   C1B 5229   3.876   6.811   9.403  0.0702 -0.0510  0.1328
  327loPI   C2B 5230   3.892   6.934   9.047 -0.0639  0.0137 -0.0151
  327loPI   C3B 5231   3.927   6.880   8.648 -0.1375 -0.0186 -0.1958
  327loPI   C4B 5232   4.139   6.880   8.217 -0.2857 -0.0093 -0.2769
  328loPI    C1 5233  13.016   3.734  10.762 -0.0904 -0.3035  0.0281
  328loPI    C2 5234  13.399   3.624  10.791 -0.0247 -0.0326  0.2218
  328loPI    C3 5235  13.122   3.444  11.016 -0.0307 -0.3061  0.0004
  328loPI   PO4 5236  12.922   3.788  10.552  0.1097 -0.1649  0.0003
  328loPI   GL1 5237  13.007   4.018  10.139 -0.1572 -0.3320 -0.0343
  328loPI   GL2 5238  13.126   4.338  10.223  0.2198 -0.4007  0.2452
  328loPI   C1A 5239  12.940   4.009   9.665 -0.2042  0.0987 -0.2348
  328loPI   C2A 5240  12.828   3.944   9.196 -0.0124  0.0453  0.0700
  328loPI   C3A 5241  12.805   3.873   8.690 -0.1588  0.4015 -0.1645
  328loPI   C4A 5242  12.590   3.737   8.297  0.1695 -0.2647  0.0113
  328loPI   C5A 5243  12.139   3.757   8.298 -0.1135  0.1314  0.1239
  328loPI   C6A 5244  11.717   3.615   8.352  0.1616  0.1093  0.4046
  328loPI   C1B 5245  13.309   4.321   9.898  0.1588 -0.1938 -0.0189
  328loPI   C2B 5246  13.249   4.323   9.375 -0.1004  0.3673  0.0355
  328loPI   C3B 5247  13.200   4.183   8.991  0.0549 -0.0114 -0.0208
  328loPI   C4B 5248  13.259   4.357   8.664  0.1333 -0.1688  0.2807
  329loPI    C1 5249  10.027  11.158  10.522  0.0644 -0.0596 -0.0418
  329loPI    C2 5250  10.205  10.994  10.840 -0.1046 -0.2968 -0.0670
  329loPI    C3 5251  10.012  11.342  10.876 -0.0110 -0.2573  0.0596
  329loPI   PO4 5252  10.150  11.228  10.344 -0.0854 -0.2508 -0.0710
  329loPI   GL1 5253   9.971  11.477  10.126  0.0970 -0.4037  0.1068
  329loPI   GL2 5254   9.659  11.227  10.219  0.1726  0.1491  0.4365
  329loPI   C1A 5255   9.996  11.328   9.731 -0.2689  0.0308  0.2789
  329loPI   C2A 5256  10.044  11.308   9.360 -0.1573 -0.2700  0.1606
  329loPI   C3A 5257  10.021  11.429   9.072  0.1937 -0.0685 -0.4387
  329loPI   C4A 5258   9.946  11.344   8.648  0.0266 -0.3827  0.4828
  329loPI   C5A 5259   9.850  11.407   8.159 -0.0747 -0.2292  0.1220
  329loPI   C6A 5260   9.503  11.222   7.999  0.0076  0.1608 -0.4090
  329loPI   C1B 5261   9.560  11.102   9.861  0.2163  0.3547 -0.1176
  329loPI   C2B 5262   9.653  11.024   9.381 -0.0224 -0.2979  0.0555
  329loPI   C3B 5263   9.603  11.025   8.953 -0.0398 -0.3417 -0.1170
  329loPI   C4B 5264   9.596  11.041   8.485  0.1399  0.0043  0.3257
  330loPI    C1 5265  17.812   2.860  10.156  0.1407  0.1932  0.1449
  330loPI    C2 5266  17.594   2.849  10.492  0.0991  0.1232  0.1161
  330loPI    C3 5267  17.986   2.928  10.510  0.1191  0.0095  0.1919
  330loPI   PO4 5268  17.733   2.561  10.030  0.0685  0.0032  0.0393
  330loPI   GL1 5269  17.853   2.437   9.559 -0.1263 -0.2093 -0.1332
  330loPI   GL2 5270  17.571   2.586   9.573 -0.0571 -0.0901 -0.1841
  330loPI   C1A 5271  17.571   2.257   9.220  0.0369 -0.3200 -0.2770
  330loPI   C2A 5272  17.571   2.279   8.820  0.0865 -0.3029  0.2595
  330loPI   C3A 5273  17.610   2.224   8.388 -0.1225  0.0129 -0.0539
  330loPI   C4A 5274  17.331   2.205   7.986 -0.4881  0.2483 -0.2263
  330loPI   C5A 5275  16.948   2.120   7.854 -0.0923  0.4066  0.1795
  330loPI   C6A 5276  16.432   2.188   7.786 -0.1121  0.0290 -0.1387
  330loPI   C1B 5277  17.365   2.714   9.161 -0.0772  0.0407 -0.2540
  330loPI   C2B 5278  17.376   2.823   8.752  0.1782 -0.2183  0.0852
  330loPI   C3B 5279  17.357   2.639   8.397  0.3793 -0.1837 -0.0818
  330loPI   C4B 5280  17.314   2.801   8.087  0.0241  0.1697  0.0706
  331loPI    C1 5281   1.106   6.151   9.777  0.2834 -0.0998  0.0746
  331loPI    C2 5282   1.290   6.270  10.111 -0.0944  0.1345  0.2062
  331loPI    C3 5283   1.141   6.541   9.858 -0.0445 -0.0473 -0.0210
  331loPI   PO4 5284   1.262   6.009   9.587  0.0050 -0.4195 -0.0944
  331loPI   GL1 5285   1.232   5.886   9.159 -0.0055 -0.1277 -0.3981
  331loPI   GL2 5286   1.381   6.097   8.877  0.0683  0.0127  0.1366
  331loPI   C1A 5287   0.974   5.654   8.988 -0.1823 -0.1730 -0.0020
  331loPI   C2A 5288   0.552   5.544   8.878 -0.2030  0.2792  0.2086
  331loPI   C3A 5289   0.370   5.441   8.591  0.0153 -0.0189 -0.0690
  331loPI   C4A 5290   0.242   5.480   8.209 -0.1507 -0.0261  0.0013
  331loPI   C5A 5291   0.263   5.564   7.810 -0.0295  0.1451 -0.1424
  331loPI   C6A 5292   0.311   5.409   7.431  0.1608 -0.0551 -0.4585
  331loPI   C1B 5293   1.393   5.719   8.647  0.2909  0.0532 -0.2161
  331loPI   C2B 5294   1.233   5.570   8.122 -0.2733  0.0416  0.1061
  331loPI   C3B 5295   1.135   5.738   7.795 -0.0250 -0.2776 -0.3354
  331loPI   C4B 5296   0.767   5.668   7.610  0.0311  0.0922 -0.3989
  332loPI    C1 5297  12.380   8.303  10.920 -0.0527 -0.0922 -0.0293
  332loPI    C2 5298  12.731   8.172  11.059  0.0134  0.1984  0.0862
  332loPI    C3 5299  12.457   8.317  11.312 -0.0962  0.1938 -0.0288
  332loPI   PO4 5300  12.396   8.535  10.712 -0.0543  0.0375  0.1433
  332loPI   GL1 5301  12.515   8.702  10.397 -0.3511 -0.0355 -0.0734
  332loPI   GL2 5302  12.773   8.760  10.451  0.1353  0.1243  0.1073
  332loPI   C1A 5303  12.443   8.459   9.979 -0.1079 -0.1895 -0.1892
  332loPI   C2A 5304  12.309   8.478   9.509 -0.0636 -0.0492  0.1485
  332loPI   C3A 5305  12.242   8.465   9.118 -0.1284 -0.0649  0.0797
  332loPI   C4A 5306  12.147   8.304   8.730  0.2410  0.0444  0.0930
  332loPI   C5A 5307  11.993   8.327   8.300 -0.1118  0.3840 -0.1207
  332loPI   C6A 5308  11.914   8.356   7.761 -0.3054 -0.1098 -0.1030
  332loPI   C1B 5309  12.790   8.838  10.003 -0.1586 -0.2101  0.0259
  332loPI   C2B 5310  12.656   8.824   9.681 -0.0345 -0.3743 -0.0826
  332loPI   C3B 5311  12.604   8.796   9.235 -0.1099  0.1528 -0.0937
  332loPI   C4B 5312  12.498   8.732   8.793  0.0850  0.0037 -0.0099
  333loPI    C1 5313   3.842   1.617  10.680 -0.0682 -0.2654 -0.1174
  333loPI    C2 5314   3.963   1.260  10.814 -0.0252 -0.2095 -0.0062
  333loPI    C3 5315   3.724   1.488  11.040  0.0625 -0.1066 -0.0162
  333loPI   PO4 5316   3.713   1.606  10.483 -0.1892  0.0255  0.3111
  333loPI   GL1 5317   3.651   1.492  10.036  0.5512  0.2254 -0.2056
  333loPI   GL2 5318   3.650   1.868  10.051  0.0825 -0.0121  0.1769
  333loPI   C1A 5319   3.491   1.582   9.617  0.1278  0.0595 -0.0819
  333loPI   C2A 5320   3.412   1.506   9.193 -0.0521 -0.1185  0.1758
  333loPI   C3A 5321   3.417   1.566   8.821  0.2383 -0.2426  0.1435
  333loPI   C4A 5322   3.550   1.408   8.432  0.0098  0.0901 -0.0522
  333loPI   C5A 5323   3.589   1.622   8.008 -0.1353  0.0153  0.1761
  333loPI   C6A 5324   3.478   1.787   7.674 -0.0915 -0.1877 -0.1840
  333loPI   C1B 5325   3.470   2.049   9.688  0.0436 -0.3884 -0.2880
  333loPI   C2B 5326   3.356   2.024   9.271 -0.1056 -0.0600 -0.2316
  333loPI   C3B 5327   3.294   2.051   8.859 -0.0936 -0.1142 -0.2745
  333loPI   C4B 5328   3.380   1.901   8.437 -0.2998 -0.0418 -0.1392
  334loPI    C1 5329   2.086   6.642  10.130 -0.1865  0.1507  0.2357
  334loPI    C2 5330   2.476   6.734  10.128 -0.1970  0.1990 -0.0251
  334loPI    C3 5331   2.303   6.601  10.463  0.0982 -0.0582  0.0304
  334loPI   PO4 5332   2.047   6.427   9.884 -0.0770 -0.0595  0.4352
  334loPI   GL1 5333   2.162   6.317   9.421 -0.1897  0.1623 -0.0179
  334loPI   GL2 5334   2.000   6.598   9.189  0.0658 -0.0604 -0.0923
  334loPI   C1A 5335   2.221   6.134   9.118  0.1268 -0.1054 -0.1583
  334loPI   C2A 5336   1.930   6.048   8.807 -0.2562 -0.3138 -0.0143
  334loPI   C3A 5337   1.679   6.025   8.432 -0.2587 -0.0235  0.2720
  334loPI   C4A 5338   1.704   5.750   8.065  0.0351 -0.0263 -0.1546
  334loPI   C5A 5339   1.570   5.547   7.699 -0.0260  0.1364 -0.0144
  334loPI   C6A 5340   1.575   5.132   7.446  0.2465 -0.0931  0.3085
  334loPI   C1B 5341   2.074   6.506   8.739 -0.0083 -0.2458 -0.0003
  334loPI   C2B 5342   2.255   6.713   8.377  0.2930  0.0340  0.1145
  334loPI   C3B 5343   2.251   6.530   8.034  0.1297  0.0388  0.0907
  334loPI   C4B 5344   2.340   6.344   7.689  0.0806  0.1979 -0.0662
  335loPI    C1 5345  11.897   5.252  10.921  0.0308  0.0952  0.2367
  335loPI    C2 5346  12.147   5.039  11.151  0.0981  0.1288  0.1947
  335loPI    C3 5347  11.760   4.942  11.134  0.1113  0.0665  0.2475
  335loPI   PO4 5348  11.949   5.222  10.689  0.0675 -0.1469  0.0154
  335loPI   GL1 5349  11.990   4.760  10.726  0.0071  0.2949  0.1152
  335loPI   GL2 5350  12.268   4.563  10.504  0.1021 -0.1601  0.1238
  335loPI   C1A 5351  11.773   4.696  10.290  0.3376  0.0840  0.0420
  335loPI   C2A 5352  11.731   4.772   9.890  0.0071  0.0752 -0.0307
  335loPI   C3A 5353  11.738   4.721   9.448 -0.0396 -0.2452 -0.2000
  335loPI   C4A 5354  11.698   4.782   9.046 -0.0937  0.2092  0.0147
  335loPI   C5A 5355  11.747   4.902   8.626 -0.0219 -0.1148  0.1192
  335loPI   C6A 5356  12.156   4.805   8.346  0.5763 -0.3899  0.0800
  335loPI   C1B 5357  12.216   4.592  10.028 -0.1143 -0.1785  0.4187
  335loPI   C2B 5358  12.229   4.631   9.593 -0.4189 -0.0792  0.0278
  335loPI   C3B 5359  12.195   4.476   9.131 -0.0205 -0.0943  0.3098
  335loPI   C4B 5360  12.000   4.445   8.678  0.1080 -0.1933 -0.0827
  336loPI    C1 5361   2.413   3.981  10.490  0.3537 -0.1346 -0.2728
  336loPI    C2 5362   2.251   3.617  10.518 -0.1762  0.1344  0.5266
  336loPI    C3 5363   2.623   3.680  10.649  0.0977 -0.2007 -0.0510
  336loPI   PO4 5364   2.220   4.078  10.265 -0.0569  0.0718  0.3860
  336loPI   GL1 5365   2.176   3.885   9.717  0.0165 -0.0355  0.2320
  336loPI   GL2 5366   2.391   4.160   9.781  0.0436  0.0074 -0.0674
  336loPI   C1A 5367   2.247   3.667   9.294  0.2086  0.3196 -0.0922
  336loPI   C2A 5368   2.393   3.519   8.856  0.2769  0.0472  0.4526
  336loPI   C3A 5369   2.597   3.458   8.306 -0.2102 -0.1501 -0.3198
  336loPI   C4A 5370   2.643   3.460   7.870 -0.2864 -0.0615  0.1262
  336loPI   C5A 5371   2.671   3.772   7.527 -0.0097  0.3082 -0.0854
  336loPI   C6A 5372   2.801   4.070   7.159 -0.0953 -0.4979  0.1776
  336loPI   C1B 5373   2.351   4.132   9.279  0.1370 -0.1115 -0.2104
  336loPI   C2B 5374   2.360   4.158   8.804  0.0689  0.1624  0.0170
  336loPI   C3B 5375   2.442   4.196   8.422 -0.2864  0.0048  0.1116
  336loPI   C4B 5376   2.617   4.229   7.894  0.0678  0.3210 -0.0056
  337loPI    C1 5377  14.377   2.846  10.871  0.3616  0.0498 -0.0377
  337loPI    C2 5378  14.433   3.205  11.038  0.1615  0.0261  0.0838
  337loPI    C3 5379  14.486   2.873  11.254  0.0520 -0.0090  0.0575
  337loPI   PO4 5380  14.306   2.958  10.574 -0.1282  0.2082 -0.0196
  337loPI   GL1 5381  14.458   2.969  10.174  0.0803  0.0441  0.0393
  337loPI   GL2 5382  14.718   2.995   9.985 -0.2802 -0.1265 -0.1375
  337loPI   C1A 5383  14.212   3.129   9.859  0.1761 -0.1460  0.1261
  337loPI   C2A 5384  14.036   3.132   9.397  0.0678 -0.2695 -0.1970
  337loPI   C3A 5385  13.820   3.073   9.032  0.3239  0.1197 -0.1690
  337loPI   C4A 5386  13.840   3.066   8.656  0.1008 -0.0493  0.0417
  337loPI   C5A 5387  13.911   3.235   8.248 -0.2474 -0.1026  0.0095
  337loPI   C6A 5388  13.853   3.580   7.996  0.1009  0.2634  0.1670
  337loPI   C1B 5389  14.530   3.083   9.486  0.3440 -0.0848  0.1069
  337loPI   C2B 5390  14.387   2.971   9.065 -0.0264  0.0154 -0.2388
  337loPI   C3B 5391  14.405   2.812   8.635 -0.0833 -0.0061  0.0084
  337loPI   C4B 5392  14.120   2.767   8.248  0.1258  0.1649  0.3299
  338loPI    C1 5393   0.038   2.447   9.918  0.0822 -0.0055 -0.3574
  338loPI    C2 5394   0.381   2.246   9.954 -0.0473 -0.1772 -0.0477
  338loPI    C3 5395   0.035   2.047   9.931 -0.1807  0.0064  0.3028
  338loPI   PO4 5396   0.062   2.604   9.706  0.5440  0.2298 -0.2287
  338loPI   GL1 5397  -0.074   2.569   9.354 -0.3108  0.2749 -0.2316
  338loPI   GL2 5398  -0.169   2.946   9.312 -0.1108  0.4045  0.2540
  338loPI   C1A 5399  -0.095   2.619   8.885  0.0503  0.1976 -0.1681
  338loPI   C2A 5400  -0.113   2.751   8.484  0.3759 -0.2910  0.0598
  338loPI   C3A 5401  -0.133   2.985   8.114 -0.0067 -0.0163 -0.0162
  338loPI   C4A 5402  -0.101   3.152   7.722  0.3190 -0.0363  0.2080
  338loPI   C5A 5403  -0.256   3.079   7.344 -0.0916 -0.1707  0.1224
  338loPI   C6A 5404  -0.364   3.377   6.976  0.4765 -0.0715 -0.0838
  338loPI   C1B 5405  -0.352   3.035   8.853  0.1843 -0.1687  0.2554
  338loPI   C2B 5406  -0.460   3.122   8.469  0.3168  0.1844 -0.2682
  338loPI   C3B 5407  -0.547   3.261   8.116 -0.0067 -0.1425 -0.0184
  338loPI   C4B 5408  -0.630   3.111   7.691 -0.1200 -0.2338  0.2271
  339loPI    C1 5409  17.870   9.764   9.836 -0.1623 -0.0689  0.0508
  339loPI    C2 5410  17.506   9.752  10.003 -0.1017 -0.1717  0.1776
  339loPI    C3 5411  17.833   9.727  10.232 -0.0096  0.1481  0.0867
  339loPI   PO4 5412  17.918   9.968   9.669  0.2782  0.0205  0.0907
  339loPI   GL1 5413  17.828  10.175   9.281  0.2062 -0.0592  0.2586
  339loPI   GL2 5414  18.153  10.109   9.227 -0.0443  0.1577 -0.0820
  339loPI   C1A 5415  17.585  10.086   8.928  0.0953 -0.2103 -0.0960
  339loPI   C2A 5416  17.494   9.852   8.565  0.1790 -0.1014  0.0754
  339loPI   C3A 5417  17.377   9.839   8.111  0.3302 -0.0907  0.3298
  339loPI   C4A 5418  17.283   9.801   7.746 -0.0603  0.2325 -0.2444
  339loPI   C5A 5419  16.969   9.968   7.547 -0.0342  0.1681 -0.0809
  339loPI   C6A 5420  16.581   9.946   7.508  0.1064  0.1762  0.3553
  339loPI   C1B 5421  18.115  10.249   8.828 -0.1159 -0.0066  0.0425
  339loPI   C2B 5422  17.836  10.233   8.455  0.1640 -0.2326 -0.0067
  339loPI   C3B 5423  17.769  10.126   7.936  0.0356 -0.0168 -0.0115
  339loPI   C4B 5424  17.847   9.901   7.604 -0.1522 -0.1357 -0.0549
  340loPI    C1 5425   1.727  15.530  10.079  0.2894  0.0772  0.0732
  340loPI    C2 5426   1.893  15.754   9.793 -0.0118  0.0695 -0.1109
  340loPI    C3 5427   1.662  15.925  10.072  0.2810  0.0769  0.1314
  340loPI   PO4 5428   1.514  15.334   9.893 -0.2541  0.2287  0.0242
  340loPI   GL1 5429   1.349  15.362   9.563  0.0322 -0.2653  0.0694
  340loPI   GL2 5430   1.631  15.106   9.484  0.2807  0.3028 -0.1419
  340loPI   C1A 5431   1.303  15.391   9.113  0.4145  0.0447 -0.1073
  340loPI   C2A 5432   1.202  15.258   8.773  0.4254  0.1005  0.1505
  340loPI   C3A 5433   1.098  15.288   8.378  0.2647 -0.0340  0.1915
  340loPI   C4A 5434   1.133  15.176   8.122 -0.2096 -0.0138 -0.0067
  340loPI   C5A 5435   1.072  15.223   7.709  0.0038  0.0024 -0.1314
  340loPI   C6A 5436   0.612  15.186   7.474  0.1963 -0.1412 -0.0759
  340loPI   C1B 5437   1.523  14.948   9.092 -0.1560 -0.0703 -0.1769
  340loPI   C2B 5438   1.562  14.819   8.674  0.2412 -0.1088  0.1078
  340loPI   C3B 5439   1.610  15.091   8.411 -0.1416 -0.0994 -0.2355
  340loPI   C4B 5440   1.612  15.348   7.980  0.1928  0.3226 -0.0472
  341loPI    C1 5441  18.344   5.288   9.996 -0.1488  0.0233  0.0457
  341loPI    C2 5442  18.077   5.276  10.294 -0.0439  0.3352  0.1563
  341loPI    C3 5443  18.400   5.510  10.324  0.2513 -0.0441  0.0280
  341loPI   PO4 5444  18.459   5.101   9.870  0.1147 -0.0184 -0.2070
  341loPI   GL1 5445  18.416   4.901   9.481 -0.2217  0.3422  0.4065
  341loPI   GL2 5446  18.239   5.178   9.445 -0.0496  0.1288 -0.2189
  341loPI   C1A 5447  18.620   4.695   9.071 -0.0070 -0.2377  0.3449
  341loPI   C2A 5448  18.543   4.551   8.768  0.3308 -0.1517  0.1416
  341loPI   C3A 5449  18.583   4.520   8.301  0.0557  0.2069  0.1569
  341loPI   C4A 5450  18.300   4.563   7.867  0.2138 -0.1405 -0.2357
  341loPI   C5A 5451  18.146   4.399   7.506  0.1087 -0.2022 -0.0912
  341loPI   C6A 5452  17.917   4.616   7.208 -0.2165  0.0534  0.2095
  341loPI   C1B 5453  18.073   4.968   9.027  0.2915  0.1369 -0.5428
  341loPI   C2B 5454  18.063   4.932   8.664 -0.0987 -0.1281  0.4179
  341loPI   C3B 5455  18.018   4.893   8.240  0.0105  0.1603  0.2316
  341loPI   C4B 5456  17.987   5.241   8.018  0.0867  0.0730  0.2241
  342loPI    C1 5457   1.231   2.011  10.417 -0.1095 -0.0860  0.0533
  342loPI    C2 5458   1.247   2.321  10.669 -0.0109 -0.1185  0.0872
  342loPI    C3 5459   1.540   2.049  10.668 -0.0153 -0.1231 -0.0566
  342loPI   PO4 5460   1.086   1.941  10.112 -0.0420  0.1345  0.0177
  342loPI   GL1 5461   0.840   2.231   9.786  0.0003 -0.0859 -0.3318
  342loPI   GL2 5462   1.111   2.509   9.658  0.0304  0.1111 -0.0379
  342loPI   C1A 5463   0.807   2.300   9.350 -0.0005  0.2768  0.0161
  342loPI   C2A 5464   0.738   2.311   8.953 -0.1047  0.1817 -0.0053
  342loPI   C3A 5465   0.758   2.257   8.500 -0.0533 -0.2342 -0.0934
  342loPI   C4A 5466   0.810   2.336   8.147  0.0944  0.2439 -0.2804
  342loPI   C5A 5467   0.918   2.437   7.752  0.2881 -0.0840  0.0474
  342loPI   C6A 5468   1.105   2.549   7.409 -0.0439  0.1393  0.0313
  342loPI   C1B 5469   1.269   2.539   9.257 -0.2216 -0.1344  0.2820
  342loPI   C2B 5470   1.178   2.485   8.853 -0.1825 -0.0928  0.0253
  342loPI   C3B 5471   1.266   2.559   8.453  0.3021 -0.1257  0.1799
  342loPI   C4B 5472   1.280   2.784   8.066  0.3270  0.1417  0.1910
  343loPI    C1 5473  14.237  12.119  10.800  0.2965  0.1620  0.2513
  343loPI    C2 5474  14.016  11.928  11.073  0.0887  0.0461  0.0060
  343loPI    C3 5475  14.409  11.858  11.048  0.0141 -0.3642 -0.0880
  343loPI   PO4 5476  14.079  12.160  10.625  0.0124 -0.0844 -0.0341
  343loPI   GL1 5477  14.004  12.061  10.280  0.1467 -0.0635 -0.0037
  343loPI   GL2 5478  13.942  12.271  10.038  0.4441 -0.0756  0.1200
  343loPI   C1A 5479  13.804  11.698  10.099 -0.0132 -0.0513 -0.2677
  343loPI   C2A 5480  13.659  11.719   9.682  0.2208  0.1407  0.0274
  343loPI   C3A 5481  13.660  11.735   9.249  0.1142  0.0434 -0.3853
  343loPI   C4A 5482  13.704  11.733   8.776 -0.2263 -0.3198 -0.0980
  343loPI   C5A 5483  13.590  11.709   8.367  0.0773 -0.0531  0.1614
  343loPI   C6A 5484  13.573  11.387   8.071  0.0304  0.1360 -0.2297
  343loPI   C1B 5485  14.060  12.026   9.776  0.0543  0.2836 -0.0827
  343loPI   C2B 5486  14.146  12.141   9.345  0.3036  0.1390 -0.0462
  343loPI   C3B 5487  14.008  12.103   8.896  0.0379 -0.2222 -0.1021
  343loPI   C4B 5488  13.876  12.119   8.461  0.0560 -0.0470 -0.3830
  344loPI    C1 5489  10.563  10.561  10.853  0.1630  0.1123  0.1116
  344loPI    C2 5490  10.656  10.192  10.976 -0.0594  0.0782  0.1803
  344loPI    C3 5491  10.465  10.443  11.222 -0.2066  0.1245  0.0213
  344loPI   PO4 5492  10.677  10.547  10.606  0.0225 -0.1091  0.0787
  344loPI   GL1 5493  10.676  10.500  10.184 -0.1680  0.0500 -0.2620
  344loPI   GL2 5494  10.573  10.155  10.106 -0.1405 -0.0937 -0.0809
  344loPI   C1A 5495  10.630  10.642   9.804  0.2118 -0.1825 -0.1733
  344loPI   C2A 5496  10.586  10.709   9.428 -0.1903  0.1123 -0.3841
  344loPI   C3A 5497  10.630  10.711   8.998 -0.0166  0.2488  0.1003
  344loPI   C4A 5498  10.630  10.761   8.633 -0.0158  0.1062  0.0184
  344loPI   C5A 5499  10.800  10.691   8.198  0.0914  0.2428  0.0209
  344loPI   C6A 5500  11.178  11.026   8.000 -0.2788  0.1387 -0.1533
  344loPI   C1B 5501  10.632  10.164   9.677  0.0481  0.0991 -0.0322
  344loPI   C2B 5502  10.616  10.268   9.292 -0.0553 -0.0911  0.2906
  344loPI   C3B 5503  10.694  10.198   8.914 -0.3334  0.1427  0.2066
  344loPI   C4B 5504  10.685  10.155   8.521 -0.1268 -0.1343  0.1803
  345loPI    C1 5505   3.524   8.463  10.100  0.2516  0.2098  0.0671
  345loPI    C2 5506   3.437   8.785  10.321 -0.3756  0.0733  0.0366
  345loPI    C3 5507   3.371   8.419  10.467 -0.1561 -0.0330 -0.1253
  345loPI   PO4 5508   3.567   8.475   9.853 -0.1369  0.0660  0.0295
  345loPI   GL1 5509   3.577   8.505   9.435 -0.0649 -0.0294 -0.2633
  345loPI   GL2 5510   3.880   8.281   9.479  0.1344  0.1181 -0.0911
  345loPI   C1A 5511   3.505   8.430   8.939 -0.2707 -0.0606  0.1834
  345loPI   C2A 5512   3.625   8.436   8.443  0.0144  0.0357 -0.1662
  345loPI   C3A 5513   3.602   8.451   7.982  0.1975  0.1952 -0.0436
  345loPI   C4A 5514   3.883   8.530   7.698  0.0731 -0.4976 -0.1822
  345loPI   C5A 5515   4.187   8.771   7.453  0.2272 -0.2354 -0.0837
  345loPI   C6A 5516   4.259   8.822   7.009  0.1017 -0.3900 -0.3028
  345loPI   C1B 5517   4.141   8.308   9.073 -0.0910  0.0559 -0.0336
  345loPI   C2B 5518   4.094   8.315   8.577  0.1652 -0.0931  0.0246
  345loPI   C3B 5519   4.232   8.321   8.106  0.1097 -0.0021 -0.4518
  345loPI   C4B 5520   4.279   8.271   7.689  0.2206 -0.0700  0.0120
  346loPI    C1 5521  17.410   5.271   9.859  0.1181  0.1391  0.2308
  346loPI    C2 5522  17.012   5.275   9.824  0.1451  0.2179 -0.1032
  346loPI    C3 5523  17.189   5.473  10.124 -0.0607  0.2642 -0.0101
  346loPI   PO4 5524  17.473   5.036   9.771 -0.0290 -0.0909  0.2381
  346loPI   GL1 5525  17.221   4.862   9.574  0.0179 -0.0625 -0.0016
  346loPI   GL2 5526  17.182   4.588   9.406  0.0779 -0.0574  0.1498
  346loPI   C1A 5527  17.141   5.100   9.147  0.1660 -0.0953  0.0078
  346loPI   C2A 5528  17.182   5.097   8.755  0.4618 -0.1252  0.1049
  346loPI   C3A 5529  17.127   5.181   8.353 -0.0171 -0.4293 -0.3974
  346loPI   C4A 5530  17.126   5.334   7.883  0.3460 -0.2033 -0.0964
  346loPI   C5A 5531  16.945   5.530   7.642 -0.0667 -0.1413  0.0576
  346loPI   C6A 5532  16.721   5.934   7.499 -0.2477 -0.0818  0.2793
  346loPI   C1B 5533  16.917   4.664   9.180 -0.0237 -0.2899 -0.1876
  346loPI   C2B 5534  16.864   4.673   8.722 -0.0213  0.0903 -0.0048
  346loPI   C3B 5535  17.049   4.695   8.241 -0.1748 -0.0531 -0.0696
  346loPI   C4B 5536  17.178   4.526   7.874 -0.1756 -0.0790 -0.1097
  347loPI    C1 5537   5.769  15.525  10.602 -0.0209 -0.2655  0.2047
  347loPI    C2 5538   5.437  15.668  10.772  0.0401  0.0337  0.0775
  347loPI    C3 5539   5.775  15.641  10.984  0.0859  0.2946  0.0423
  347loPI   PO4 5540   5.642  15.452  10.284  0.0520  0.1589 -0.2719
  347loPI   GL1 5541   5.536  15.516   9.886 -0.1535 -0.1306  0.1526
  347loPI   GL2 5542   5.337  15.483   9.633  0.2064  0.1958  0.0963
  347loPI   C1A 5543   5.918  15.557   9.565  0.0667 -0.3035  0.4873
  347loPI   C2A 5544   5.945  15.532   9.174  0.2869  0.2296  0.1559
  347loPI   C3A 5545   6.207  15.366   8.854 -0.0377  0.1796 -0.1326
  347loPI   C4A 5546   6.231  15.447   8.395  0.0044 -0.1906  0.3049
  347loPI   C5A 5547   6.120  15.474   7.998 -0.0155  0.2065  0.2130
  347loPI   C6A 5548   6.092  15.700   7.743  0.1008 -0.0231  0.0421
  347loPI   C1B 5549   5.481  15.438   9.321  0.0667  0.1017  0.1047
  347loPI   C2B 5550   5.442  15.338   8.931 -0.1381 -0.1117 -0.2471
  347loPI   C3B 5551   5.445  15.389   8.479  0.0334  0.1909 -0.3964
  347loPI   C4B 5552   5.690  15.591   8.155  0.0672  0.0255  0.0682
  348loPI    C1 5553   1.175  13.265   9.887  0.1120 -0.2033  0.1522
  348loPI    C2 5554   1.564  13.331   9.950  0.1447 -0.1888 -0.0570
  348loPI    C3 5555   1.398  12.987  10.069  0.1641 -0.0916  0.2604
  348loPI   PO4 5556   1.205  13.324   9.625  0.2814  0.4679  0.0498
  348loPI   GL1 5557   1.144  13.082   9.312 -0.0491  0.0280 -0.0657
  348loPI   GL2 5558   1.101  12.826   9.270 -0.1894  0.0911 -0.0508
  348loPI   C1A 5559   1.037  13.203   8.893 -0.0286 -0.1151 -0.2029
  348loPI   C2A 5560   1.038  13.125   8.465  0.0901 -0.2540  0.3811
  348loPI   C3A 5561   0.918  13.506   8.165  0.1662 -0.0067 -0.0741
  348loPI   C4A 5562   0.999  13.590   7.787  0.0456 -0.0414 -0.2105
  348loPI   C5A 5563   1.135  13.656   7.457  0.0159  0.1624 -0.3740
  348loPI   C6A 5564   1.007  13.853   7.132 -0.0898 -0.1953  0.0612
  348loPI   C1B 5565   1.237  12.762   8.772 -0.0465  0.1960  0.0097
  348loPI   C2B 5566   1.327  12.676   8.429 -0.0136  0.0429  0.0514
  348loPI   C3B 5567   1.465  12.631   7.940  0.4082  0.3259  0.1548
  348loPI   C4B 5568   1.573  12.525   7.462  0.2485  0.2709 -0.0958
  349loPI    C1 5569   7.649   1.772  10.715 -0.1182 -0.1214  0.0694
  349loPI    C2 5570   7.515   1.398  10.670 -0.0634 -0.1364  0.0294
  349loPI    C3 5571   7.360   1.633  10.954 -0.0400 -0.2169  0.1092
  349loPI   PO4 5572   7.695   1.839  10.471  0.0387 -0.1609 -0.0429
  349loPI   GL1 5573   7.700   1.473  10.226  0.0220  0.1815 -0.0809
  349loPI   GL2 5574   7.496   1.241  10.166 -0.0893  0.2080  0.0925
  349loPI   C1A 5575   7.754   1.686   9.873 -0.1332 -0.0159 -0.1618
  349loPI   C2A 5576   7.829   1.684   9.381 -0.6373 -0.1035 -0.0755
  349loPI   C3A 5577   7.677   1.582   8.898 -0.1258 -0.1528 -0.1732
  349loPI   C4A 5578   7.783   1.557   8.482  0.1473  0.2989  0.2205
  349loPI   C5A 5579   8.039   1.452   8.028  0.0689  0.1363  0.0469
  349loPI   C6A 5580   8.244   1.476   7.646  0.1690  0.0047 -0.0928
  349loPI   C1B 5581   7.469   1.314   9.727 -0.1929  0.1380  0.0488
  349loPI   C2B 5582   7.425   1.316   9.301  0.1119 -0.0566  0.3067
  349loPI   C3B 5583   7.325   1.174   8.861  0.1873  0.1141 -0.3156
  349loPI   C4B 5584   7.370   1.190   8.371 -0.1606 -0.1379 -0.2663
  350loPI    C1 5585  11.467   6.873  11.086  0.0777  0.1454 -0.0098
  350loPI    C2 5586  11.765   6.871  11.352 -0.0453  0.0722  0.1287
  350loPI    C3 5587  11.461   6.613  11.390 -0.1175  0.1341 -0.0216
  350loPI   PO4 5588  11.562   6.955  10.837  0.2750 -0.3126  0.1808
  350loPI   GL1 5589  11.520   7.060  10.461 -0.2619 -0.2974  0.0482
  350loPI   GL2 5590  11.673   7.253  10.358  0.0608  0.1291  0.2795
  350loPI   C1A 5591  11.213   6.950  10.125 -0.2116  0.0316 -0.1559
  350loPI   C2A 5592  11.167   6.820   9.720 -0.0947  0.1019 -0.1971
  350loPI   C3A 5593  11.120   6.860   9.267  0.0932  0.1039 -0.0544
  350loPI   C4A 5594  11.136   6.811   8.898  0.2656 -0.2073  0.1712
  350loPI   C5A 5595  11.106   6.764   8.508 -0.1491  0.3526  0.2337
  350loPI   C6A 5596  11.170   6.540   8.250  0.0017  0.0294 -0.1339
  350loPI   C1B 5597  11.612   7.223   9.940  0.3457  0.3463 -0.0061
  350loPI   C2B 5598  11.565   7.105   9.556 -0.1052 -0.0834 -0.5262
  350loPI   C3B 5599  11.482   7.192   9.086  0.1829 -0.1818 -0.0809
  350loPI   C4B 5600  11.416   7.183   8.621  0.0909 -0.0268 -0.0594
  351loPI    C1 5601  18.230   8.285   9.608  0.4361 -0.1797  0.2385
  351loPI    C2 5602  18.399   8.638   9.524  0.1669 -0.0775  0.1142
  351loPI    C3 5603  18.242   8.573   9.886 -0.2159  0.1103 -0.0127
  351loPI   PO4 5604  18.091   8.246   9.498  0.0989  0.0268 -0.2520
  351loPI   GL1 5605  18.032   8.485   9.082  0.0328  0.1217  0.0749
  351loPI   GL2 5606  18.315   8.339   9.053  0.2596  0.0380  0.2349
  351loPI   C1A 5607  17.810   8.683   8.798 -0.1624 -0.0830  0.2168
  351loPI   C2A 5608  17.944   8.836   8.381 -0.2342  0.3220 -0.0714
  351loPI   C3A 5609  18.271   8.751   8.095 -0.1844 -0.1053  0.1493
  351loPI   C4A 5610  18.246   8.739   7.668  0.2463  0.1290  0.2959
  351loPI   C5A 5611  18.605   8.664   7.340  0.0481 -0.0616 -0.3509
  351loPI   C6A 5612  18.984   8.859   7.178  0.0555  0.1539 -0.0699
  351loPI   C1B 5613  18.327   8.543   8.588  0.3498 -0.0942 -0.0175
  351loPI   C2B 5614  18.458   8.262   8.321 -0.1172  0.0851  0.2155
  351loPI   C3B 5615  18.448   8.212   7.940 -0.1877  0.3091 -0.1689
  351loPI   C4B 5616  18.245   8.209   7.518  0.1756  0.0436 -0.3034
  352loPI    C1 5617  16.864   1.690   9.902  0.0342  0.3939  0.0187
  352loPI    C2 5618  16.747   2.067   9.837 -0.1047  0.3964  0.2686
  352loPI    C3 5619  16.625   1.874  10.165 -0.1290  0.0931  0.0851
  352loPI   PO4 5620  17.116   1.712   9.784  0.1158 -0.1296 -0.2033
  352loPI   GL1 5621  17.168   1.912   9.364 -0.2288 -0.3776 -0.0356
  352loPI   GL2 5622  16.830   1.926   9.339 -0.2599  0.0904 -0.2224
  352loPI   C1A 5623  17.244   1.904   9.026  0.3341  0.2639  0.2018
  352loPI   C2A 5624  17.300   1.690   8.653 -0.1415  0.3519 -0.0220
  352loPI   C3A 5625  17.457   1.799   8.225 -0.2009 -0.2366 -0.1503
  352loPI   C4A 5626  17.489   1.579   7.882 -0.0216  0.2132 -0.2747
  352loPI   C5A 5627  17.497   1.379   7.520  0.1480  0.0545 -0.0814
  352loPI   C6A 5628  17.638   1.033   7.329  0.0408 -0.1526 -0.2606
  352loPI   C1B 5629  16.615   1.936   8.917  0.3177  0.1561 -0.2379
  352loPI   C2B 5630  16.472   1.860   8.549 -0.2599 -0.0217 -0.0212
  352loPI   C3B 5631  16.528   1.850   8.154  0.3473 -0.0324  0.0723
  352loPI   C4B 5632  16.540   1.644   7.733 -0.2480  0.3565  0.1055
  353loPI    C1 5633  10.584  17.294  10.748  0.1023 -0.0258 -0.1624
  353loPI    C2 5634  10.745  17.505  10.448 -0.0667  0.3341 -0.0055
  353loPI    C3 5635  10.840  17.591  10.827  0.1306 -0.1054  0.0511
  353loPI   PO4 5636  10.435  17.166  10.668 -0.1752  0.2371  0.0761
  353loPI   GL1 5637  10.233  17.182  10.265  0.1182  0.2278 -0.2603
  353loPI   GL2 5638   9.927  17.151  10.354  0.3117 -0.2195  0.0614
  353loPI   C1A 5639  10.153  17.076   9.818  0.0863  0.0771 -0.0464
  353loPI   C2A 5640   9.933  17.054   9.423 -0.2364  0.0106 -0.0878
  353loPI   C3A 5641   9.906  17.084   8.994 -0.1071  0.0250  0.0407
  353loPI   C4A 5642  10.062  17.163   8.564  0.0476 -0.0710  0.1146
  353loPI   C5A 5643  10.070  17.194   8.103  0.0195 -0.0577 -0.0411
  353loPI   C6A 5644  10.044  17.423   7.709 -0.3131 -0.0287 -0.1824
  353loPI   C1B 5645   9.842  17.425   9.988  0.0749 -0.3159  0.0514
  353loPI   C2B 5646   9.812  17.519   9.645  0.0053 -0.0100 -0.1192
  353loPI   C3B 5647   9.796  17.649   9.314  0.2077  0.1630  0.0568
  353loPI   C4B 5648   9.909  17.580   8.889  0.1558 -0.0804  0.1368
  354loPI    C1 5649   2.033  10.882   9.837  0.0709 -0.0262 -0.1215
  354loPI    C2 5650   2.167  10.700  10.167 -0.0377 -0.1334 -0.1359
  354loPI    C3 5651   1.786  10.821  10.146  0.0496  0.1557 -0.1012
  354loPI   PO4 5652   2.128  10.675   9.570  0.1400  0.2818  0.0995
  354loPI   GL1 5653   2.172  10.648   9.181  0.1831  0.1633  0.1289
  354loPI   GL2 5654   2.095  10.405   9.005 -0.1164  0.1968 -0.0088
  354loPI   C1A 5655   2.487  10.801   8.889 -0.0612 -0.2750  0.0331
  354loPI   C2A 5656   2.514  10.887   8.514  0.2602 -0.1716 -0.1089
  354loPI   C3A 5657   2.406  10.914   8.146 -0.1473 -0.0993 -0.0333
  354loPI   C4A 5658   2.551  10.951   7.736  0.0252 -0.2276 -0.0876
  354loPI   C5A 5659   2.391  10.805   7.309 -0.1813  0.1279 -0.0489
  354loPI   C6A 5660   2.187  10.326   7.195  0.0984 -0.1502  0.2161
  354loPI   C1B 5661   2.255  10.374   8.626 -0.0730  0.4718 -0.2611
  354loPI   C2B 5662   2.347  10.387   8.209  0.0170  0.6092 -0.1139
  354loPI   C3B 5663   2.337  10.475   7.748  0.0255 -0.4548  0.1255
  354loPI   C4B 5664   2.643  10.367   7.436 -0.1435 -0.2193 -0.0988
  355loPI    C1 5665   9.910   2.890  11.195 -0.0988  0.1908 -0.1239
  355loPI    C2 5666  10.073   3.069  11.514  0.0945 -0.1762 -0.0110
  355loPI    C3 5667   9.685   2.973  11.515  0.0516 -0.0051  0.0352
  355loPI   PO4 5668   9.990   3.034  10.874  0.0140 -0.0580 -0.1063
  355loPI   GL1 5669   9.974   3.081  10.438  0.1338 -0.0034  0.0003
  355loPI   GL2 5670  10.222   3.244  10.267  0.0521  0.4759 -0.3037
  355loPI   C1A 5671   9.855   2.880  10.099  0.2896  0.0465 -0.0765
  355loPI   C2A 5672   9.806   2.917   9.703 -0.2439 -0.1970 -0.0639
  355loPI   C3A 5673   9.727   2.923   9.199  0.2349 -0.1900 -0.2680
  355loPI   C4A 5674   9.739   2.866   8.901 -0.1268 -0.2010 -0.1281
  355loPI   C5A 5675   9.810   2.933   8.472 -0.4208 -0.1489  0.0576
  355loPI   C6A 5676   9.795   2.835   8.070  0.1047 -0.1054 -0.3245
  355loPI   C1B 5677  10.249   3.330   9.823 -0.0837  0.1178 -0.4382
  355loPI   C2B 5678  10.227   3.325   9.407 -0.1494  0.2209 -0.2320
  355loPI   C3B 5679  10.148   3.262   8.950 -0.0665  0.2074 -0.0259
  355loPI   C4B 5680  10.143   3.304   8.551 -0.1579 -0.1105 -0.0361
  356loPI    C1 5681  16.059   4.970  10.227 -0.1585  0.1240 -0.0282
  356loPI    C2 5682  16.448   5.027  10.150 -0.1872  0.2631 -0.0717
  356loPI    C3 5683  16.337   4.773  10.437 -0.0614  0.2810 -0.0067
  356loPI   PO4 5684  15.955   5.001   9.989  0.1648 -0.2676  0.0310
  356loPI   GL1 5685  15.751   5.366   9.831  0.1503 -0.0599  0.1671
  356loPI   GL2 5686  15.674   5.120   9.625  0.0703 -0.0924  0.0844
  356loPI   C1A 5687  15.753   5.533   9.431  0.0252  0.3248 -0.2614
  356loPI   C2A 5688  15.889   5.476   9.008  0.1439  0.1486 -0.1865
  356loPI   C3A 5689  15.751   5.476   8.625 -0.2178 -0.2223  0.1349
  356loPI   C4A 5690  15.587   5.330   8.227  0.0796 -0.0245  0.2076
  356loPI   C5A 5691  15.611   5.217   7.758 -0.3360  0.2893 -0.2170
  356loPI   C6A 5692  15.932   5.049   7.415 -0.0575 -0.1506  0.4272
  356loPI   C1B 5693  15.959   4.993   9.336 -0.1544 -0.1018 -0.2585
  356loPI   C2B 5694  15.883   5.005   8.873 -0.2632 -0.1527 -0.0699
  356loPI   C3B 5695  15.704   4.879   8.506 -0.3558 -0.0425 -0.1500
  356loPI   C4B 5696  15.782   4.827   8.034 -0.0385  0.0181 -0.1355
  357loPI    C1 5697   0.425   6.439   9.937 -0.0811 -0.0507  0.0559
  357loPI    C2 5698   0.601   6.084   9.885 -0.1190 -0.0422 -0.1391
  357loPI    C3 5699   0.345   6.139  10.188  0.2100 -0.0549  0.1463
  357loPI   PO4 5700   0.285   6.500   9.677 -0.4140 -0.1518  0.2306
  357loPI   GL1 5701   0.023   6.561   9.253  0.0807  0.0481  0.0437
  357loPI   GL2 5702   0.348   6.577   9.033 -0.4393  0.2408 -0.4681
  357loPI   C1A 5703  -0.109   6.438   8.824 -0.1017 -0.0477 -0.1151
  357loPI   C2A 5704  -0.116   6.620   8.472  0.1321  0.5417 -0.3488
  357loPI   C3A 5705  -0.107   6.851   8.028  0.2254 -0.1555 -0.2011
  357loPI   C4A 5706  -0.137   6.825   7.624 -0.0312 -0.1092 -0.1155
  357loPI   C5A 5707  -0.027   7.053   7.269  0.0412 -0.2488  0.1640
  357loPI   C6A 5708   0.372   7.024   7.074  0.0947 -0.0747 -0.1218
  357loPI   C1B 5709   0.450   6.473   8.740 -0.0905 -0.2906  0.0176
  357loPI   C2B 5710   0.305   6.465   8.283  0.1042  0.0501  0.0148
  357loPI   C3B 5711   0.258   6.516   7.776  0.2685  0.0631  0.1251
  357loPI   C4B 5712  -0.023   6.412   7.379 -0.1910  0.0204 -0.0560
  358loPI    C1 5713  16.341  13.944  10.245  0.0657  0.0533  0.0500
  358loPI    C2 5714  16.011  14.011  10.461  0.0152  0.0933 -0.0388
  358loPI    C3 5715  16.178  13.647  10.457 -0.0540  0.0612 -0.0300
  358loPI   PO4 5716  16.315  13.886  10.030  0.0210  0.1052  0.0759
  358loPI   GL1 5717  16.159  13.979   9.654  0.2045 -0.0861  0.2737
  358loPI   GL2 5718  15.781  14.096   9.650 -0.1697  0.1382  0.0322
  358loPI   C1A 5719  15.927  13.919   9.200 -0.0117 -0.2309 -0.1820
  358loPI   C2A 5720  15.923  13.855   8.781 -0.3641  0.3575 -0.3210
  358loPI   C3A 5721  15.842  14.097   8.308 -0.1303  0.3193  0.3837
  358loPI   C4A 5722  15.818  14.058   7.887  0.1103 -0.0983 -0.2736
  358loPI   C5A 5723  15.572  14.281   7.681 -0.0199  0.2511 -0.2584
  358loPI   C6A 5724  15.326  14.411   7.426  0.0553 -0.2612  0.3057
  358loPI   C1B 5725  15.885  14.420   9.392  0.2035  0.0513  0.1049
  358loPI   C2B 5726  15.807  14.537   8.952  0.0017  0.1393 -0.2350
  358loPI   C3B 5727  15.827  14.585   8.574 -0.1413 -0.3671  0.2506
  358loPI   C4B 5728  15.698  14.556   8.163  0.0741 -0.1059 -0.0097
  359loPI    C1 5729  15.307  14.787  10.431  0.3575 -0.1164  0.0650
  359loPI    C2 5730  15.174  14.409  10.433  0.0320 -0.0049  0.3176
  359loPI    C3 5731  15.460  14.523  10.689  0.2684 -0.1241  0.1103
  359loPI   PO4 5732  15.287  14.769  10.080 -0.1812  0.6964 -0.3255
  359loPI   GL1 5733  15.059  14.902   9.761 -0.2151 -0.0082 -0.1407
  359loPI   GL2 5734  14.914  14.680   9.727  0.0756  0.0455 -0.0042
  359loPI   C1A 5735  15.230  15.084   9.432 -0.0219 -0.0022  0.2458
  359loPI   C2A 5736  15.241  15.146   8.992  0.0949  0.1481 -0.0126
  359loPI   C3A 5737  15.038  15.193   8.605  0.1784  0.3561  0.1146
  359loPI   C4A 5738  15.105  15.309   8.185 -0.0450 -0.0526 -0.1292
  359loPI   C5A 5739  15.142  15.320   7.813  0.0520 -0.3631 -0.1319
  359loPI   C6A 5740  15.183  15.687   7.590 -0.0203  0.0485 -0.0512
  359loPI   C1B 5741  14.880  14.741   9.274 -0.0172  0.1721  0.1258
  359loPI   C2B 5742  14.815  14.691   8.845 -0.0226 -0.0488 -0.3634
  359loPI   C3B 5743  14.720  14.784   8.521  0.0525  0.0349  0.1955
  359loPI   C4B 5744  14.805  14.958   8.142 -0.1747  0.0858  0.0907
  360loPI    C1 5745  18.039   0.203  10.115 -0.2907 -0.4652 -0.2160
  360loPI    C2 5746  18.398   0.051  10.204 -0.0151  0.2167 -0.1056
  360loPI    C3 5747  18.103   0.039  10.475  0.0907  0.1431  0.0074
  360loPI   PO4 5748  18.101   0.238   9.886  0.1959  0.0930  0.0878
  360loPI   GL1 5749  18.089   0.137   9.573 -0.0404  0.0948  0.1099
  360loPI   GL2 5750  17.806  -0.073   9.667  0.0988 -0.0571 -0.0118
  360loPI   C1A 5751  18.151   0.166   9.175  0.1296 -0.0966  0.1755
  360loPI   C2A 5752  18.144   0.251   8.743  0.0858  0.1044 -0.0866
  360loPI   C3A 5753  17.913   0.321   8.431  0.1267 -0.1526  0.1177
  360loPI   C4A 5754  17.711   0.506   8.009 -0.0962 -0.2733 -0.0468
  360loPI   C5A 5755  18.005   0.592   7.656  0.1856 -0.1912  0.0563
  360loPI   C6A 5756  18.094   0.839   7.314  0.0441 -0.1608 -0.0407
  360loPI   C1B 5757  17.629   0.269   9.303 -0.2504 -0.2923 -0.0643
  360loPI   C2B 5758  17.598   0.214   8.988 -0.0753  0.0439 -0.1631
  360loPI   C3B 5759  17.451   0.269   8.648 -0.0417 -0.3431 -0.0405
  360loPI   C4B 5760  17.369   0.277   8.278  0.2180  0.0652 -0.0531
  361loPI    C1 5761  13.128  11.664  11.006  0.0006  0.2692  0.1051
  361loPI    C2 5762  13.385  11.853  11.247  0.1764  0.0118  0.1234
  361loPI    C3 5763  13.224  11.505  11.360 -0.1073  0.1225  0.0692
  361loPI   PO4 5764  13.333  11.597  10.738  0.1956 -0.0256  0.0263
  361loPI   GL1 5765  13.426  11.492  10.282 -0.1091  0.3292 -0.0395
  361loPI   GL2 5766  13.332  11.803  10.167  0.1090 -0.0074  0.0815
  361loPI   C1A 5767  13.281  11.352   9.869  0.1283  0.0469 -0.2115
  361loPI   C2A 5768  13.355  11.374   9.341  0.2271 -0.1126 -0.0321
  361loPI   C3A 5769  13.287  11.430   8.907  0.2096 -0.0519 -0.0594
  361loPI   C4A 5770  13.230  11.404   8.456 -0.0710 -0.0939  0.0158
  361loPI   C5A 5771  13.222  10.984   8.120 -0.0042  0.1988  0.3831
  361loPI   C6A 5772  12.815  10.744   8.059  0.1650 -0.0265 -0.0679
  361loPI   C1B 5773  13.133  11.878   9.770 -0.0419 -0.1468 -0.1150
  361loPI   C2B 5774  13.125  11.816   9.301 -0.1359 -0.0078  0.0816
  361loPI   C3B 5775  13.101  11.893   8.791 -0.1524  0.1943 -0.1164
  361loPI   C4B 5776  12.998  11.858   8.302 -0.1080  0.0992 -0.0938
  362loPI    C1 5777  14.714  10.066  11.049  0.0265 -0.0952  0.0218
  362loPI    C2 5778  14.972  10.348  10.934 -0.0893  0.0242  0.0525
  362loPI    C3 5779  14.775  10.387  11.280 -0.1611 -0.0579  0.0211
  362loPI   PO4 5780  14.582   9.938  10.789  0.1704  0.1699  0.1062
  362loPI   GL1 5781  14.484   9.983  10.309  0.3461  0.0038  0.1834
  362loPI   GL2 5782  14.767   9.763  10.266 -0.0552  0.4067  0.1447
  362loPI   C1A 5783  14.197  10.119   9.988 -0.2274 -0.0953  0.0890
  362loPI   C2A 5784  14.120  10.137   9.534 -0.0086 -0.4478 -0.0243
  362loPI   C3A 5785  14.004  10.229   9.081  0.0129  0.0712  0.0451
  362loPI   C4A 5786  14.012  10.196   8.647  0.1653  0.1772  0.1061
  362loPI   C5A 5787  13.801  10.185   8.204  0.0749 -0.0379 -0.2020
  362loPI   C6A 5788  13.489   9.999   8.000  0.1079 -0.5224  0.2737
  362loPI   C1B 5789  14.695   9.693   9.944 -0.1637  0.2184  0.3691
  362loPI   C2B 5790  14.751   9.562   9.527 -0.1914 -0.1430  0.0206
  362loPI   C3B 5791  14.666   9.567   9.050 -0.0712  0.1189  0.0661
  362loPI   C4B 5792  14.542   9.616   8.734  0.0382  0.0948  0.0428
  363loPI    C1 5793  17.346  11.358   9.804  0.0547 -0.1316  0.0118
  363loPI    C2 5794  17.213  11.192   9.465  0.0746 -0.0156 -0.0532
  363loPI    C3 5795  16.974  11.211   9.786  0.0178 -0.0257 -0.0947
  363loPI   PO4 5796  17.475  11.524   9.711  0.0044  0.0185  0.1335
  363loPI   GL1 5797  17.477  11.573   9.273  0.0282  0.4253 -0.0928
  363loPI   GL2 5798  17.791  11.599   9.240  0.4728  0.2232 -0.1366
  363loPI   C1A 5799  17.281  11.461   9.019  0.1447 -0.0926  0.1360
  363loPI   C2A 5800  17.121  11.432   8.699 -0.0267  0.0447  0.1783
  363loPI   C3A 5801  16.990  11.367   8.211  0.0171 -0.1235 -0.1677
  363loPI   C4A 5802  16.721  11.242   7.842 -0.1036 -0.1542  0.3045
  363loPI   C5A 5803  16.411  11.019   7.486  0.1685 -0.0276  0.1400
  363loPI   C6A 5804  16.091  10.617   7.279  0.2710  0.0500  0.1130
  363loPI   C1B 5805  17.668  11.708   8.770  0.1740 -0.0054 -0.2037
  363loPI   C2B 5806  17.835  11.873   8.434 -0.1851 -0.3286  0.2598
  363loPI   C3B 5807  17.880  11.936   7.992  0.1933 -0.2079  0.0451
  363loPI   C4B 5808  17.868  12.027   7.485  0.1176 -0.0497  0.2226
  364loPI    C1 5809  13.144   1.146  10.898  0.1378  0.2379  0.2559
  364loPI    C2 5810  13.234   0.830  11.127 -0.1649  0.1575  0.2679
  364loPI    C3 5811  13.063   1.154  11.289 -0.1714  0.1905  0.1956
  364loPI   PO4 5812  12.954   1.065  10.704  0.1032 -0.1614 -0.2653
  364loPI   GL1 5813  12.553   1.183  10.337 -0.3194 -0.1163 -0.0300
  364loPI   GL2 5814  12.356   1.288  10.148 -0.0902  0.3893 -0.0499
  364loPI   C1A 5815  12.722   1.113   9.880 -0.0393  0.2435 -0.0296
  364loPI   C2A 5816  12.669   1.091   9.348  0.1346  0.0152  0.2388
  364loPI   C3A 5817  12.617   1.153   8.922 -0.0063  0.2555 -0.0773
  364loPI   C4A 5818  12.514   1.257   8.626  0.2981  0.2605 -0.0092
  364loPI   C5A 5819  12.326   1.414   8.200 -0.0590  0.0605  0.0321
  364loPI   C6A 5820  12.469   1.877   8.108  0.2089 -0.0326 -0.0442
  364loPI   C1B 5821  12.238   1.259   9.641 -0.0560  0.1251  0.0435
  364loPI   C2B 5822  12.170   1.136   9.141 -0.0001  0.0454 -0.0773
  364loPI   C3B 5823  12.049   1.359   8.793  0.2055  0.1274  0.0030
  364loPI   C4B 5824  11.861   1.309   8.305 -0.0456  0.1393  0.2176
  365loPI    C1 5825   2.049   8.295   9.770 -0.0186 -0.1618  0.1595
  365loPI    C2 5826   2.192   8.515  10.073 -0.1490  0.2236 -0.0516
  365loPI    C3 5827   1.808   8.547   9.966 -0.1995 -0.1966 -0.0153
  365loPI   PO4 5828   2.263   8.384   9.560 -0.0294 -0.1845  0.1969
  365loPI   GL1 5829   2.332   8.654   9.248 -0.0051  0.1341 -0.3411
  365loPI   GL2 5830   2.035   8.866   9.194 -0.0144 -0.1497 -0.1742
  365loPI   C1A 5831   2.170   8.521   8.855 -0.0027 -0.1302 -0.2511
  365loPI   C2A 5832   2.065   8.406   8.543  0.3368  0.1105 -0.3598
  365loPI   C3A 5833   2.150   8.418   8.108 -0.4001  0.2064  0.5949
  365loPI   C4A 5834   2.113   8.149   7.768  0.0147  0.0863  0.1953
  365loPI   C5A 5835   2.112   7.940   7.450  0.1047 -0.2865  0.1857
  365loPI   C6A 5836   1.917   7.618   7.090  0.0466  0.0939  0.1543
  365loPI   C1B 5837   2.012   8.982   8.771  0.2822  0.0136 -0.2189
  365loPI   C2B 5838   2.140   8.922   8.361 -0.0947  0.1530  0.0551
  365loPI   C3B 5839   2.476   8.787   7.941  0.0208  0.3151 -0.1900
  365loPI   C4B 5840   2.511   8.559   7.607  0.3695  0.2116 -0.1569
  366loPI    C1 5841   6.143  11.611  10.395  0.0962  0.0126 -0.1709
  366loPI    C2 5842   6.267  11.599  10.775  0.0348 -0.2080 -0.1566
  366loPI    C3 5843   5.895  11.718  10.691  0.0140 -0.2595 -0.1383
  366loPI   PO4 5844   6.374  11.395  10.233  0.0448  0.0177 -0.0625
  366loPI   GL1 5845   6.400  11.044   9.904  0.1641 -0.0407 -0.1573
  366loPI   GL2 5846   6.620  11.267   9.848 -0.1786 -0.1198 -0.0638
  366loPI   C1A 5847   6.198  11.047   9.536 -0.1167  0.1182  0.0842
  366loPI   C2A 5848   6.322  11.006   9.115 -0.2133  0.2553 -0.1843
  366loPI   C3A 5849   6.300  10.916   8.715  0.0315  0.1745  0.3001
  366loPI   C4A 5850   6.312  11.040   8.328  0.2637  0.0297  0.3283
  366loPI   C5A 5851   6.263  11.046   7.882 -0.0576 -0.1984 -0.1028
  366loPI   C6A 5852   6.446  10.808   7.539  0.1135 -0.1813  0.1961
  366loPI   C1B 5853   6.636  11.372   9.403  0.0287 -0.1953 -0.0571
  366loPI   C2B 5854   6.610  11.454   9.005  0.1406 -0.2649  0.0331
  366loPI   C3B 5855   6.657  11.461   8.569  0.0068  0.0089  0.1082
  366loPI   C4B 5856   6.741  11.311   8.147  0.0597 -0.2362  0.0495
  367loPI    C1 5857   2.728  16.707  10.507 -0.0854 -0.1204 -0.0683
  367loPI    C2 5858   2.451  16.991  10.557 -0.2002 -0.2093 -0.1900
  367loPI    C3 5859   2.381  16.619  10.684  0.0270 -0.1428  0.1437
  367loPI   PO4 5860   2.783  16.711  10.269  0.1438 -0.2424 -0.1070
  367loPI   GL1 5861   2.723  16.674   9.780  0.0023 -0.0960  0.2723
  367loPI   GL2 5862   2.984  16.824   9.727  0.0123  0.5187 -0.2375
  367loPI   C1A 5863   2.785  16.730   9.274  0.0916 -0.2729  0.1440
  367loPI   C2A 5864   2.757  16.682   8.814 -0.0683 -0.1553 -0.2534
  367loPI   C3A 5865   2.638  16.637   8.489  0.0316  0.0876  0.0457
  367loPI   C4A 5866   2.725  16.560   8.023  0.1571 -0.3277 -0.0064
  367loPI   C5A 5867   2.656  16.870   7.732 -0.1029  0.2801 -0.5537
  367loPI   C6A 5868   2.288  17.017   7.583 -0.0680 -0.1647  0.1301
  367loPI   C1B 5869   3.259  16.790   9.380  0.0177 -0.1341 -0.0600
  367loPI   C2B 5870   3.365  16.794   8.920  0.3383 -0.1670 -0.0512
  367loPI   C3B 5871   3.515  16.855   8.471  0.0230  0.3217  0.1753
  367loPI   C4B 5872   3.819  16.855   8.161  0.0923 -0.0118 -0.0152
  368loPI    C1 5873   7.494  14.854  10.847  0.0939 -0.0036 -0.2732
  368loPI    C2 5874   7.119  14.799  10.975  0.2189 -0.1629  0.0353
  368loPI    C3 5875   7.315  14.500  10.795  0.1730 -0.0553 -0.1968
  368loPI   PO4 5876   7.505  15.033  10.699  0.0783 -0.0289  0.0799
  368loPI   GL1 5877   7.451  15.136  10.320  0.1652  0.0036  0.1509
  368loPI   GL2 5878   7.159  15.300  10.313  0.1460  0.1267  0.1835
  368loPI   C1A 5879   7.694  15.013  10.000  0.2179  0.1439 -0.2621
  368loPI   C2A 5880   7.750  14.906   9.573  0.1810 -0.1236 -0.0130
  368loPI   C3A 5881   7.720  14.848   9.115 -0.0077  0.0088 -0.1268
  368loPI   C4A 5882   7.670  14.949   8.744  0.0006 -0.1937  0.1085
  368loPI   C5A 5883   7.748  15.051   8.340  0.1457  0.1803 -0.3008
  368loPI   C6A 5884   7.727  15.006   7.928 -0.1394  0.1349  0.1536
  368loPI   C1B 5885   7.277  15.349   9.927  0.0591 -0.2288 -0.0301
  368loPI   C2B 5886   7.585  15.375   9.541 -0.1015 -0.1777 -0.3491
  368loPI   C3B 5887   7.579  15.434   9.030 -0.3127  0.0688  0.0934
  368loPI   C4B 5888   7.544  15.445   8.616  0.1261 -0.0657 -0.1152
  369loPI    C1 5889   6.061  15.066  10.619  0.0638  0.0300 -0.0914
  369loPI    C2 5890   5.783  14.979  10.345 -0.1954  0.2984  0.0803
  369loPI    C3 5891   5.830  14.743  10.664  0.0771  0.0099 -0.1675
  369loPI   PO4 5892   6.227  15.172  10.398 -0.2675  0.0032  0.5714
  369loPI   GL1 5893   6.371  15.223   9.998 -0.0676  0.0387  0.0524
  369loPI   GL2 5894   6.730  15.114   9.820 -0.0532  0.1294 -0.4907
  369loPI   C1A 5895   6.327  15.056   9.543  0.3695  0.1746 -0.1428
  369loPI   C2A 5896   6.339  14.940   9.140  0.0967  0.4540  0.1812
  369loPI   C3A 5897   6.308  14.895   8.675  0.1607 -0.1452 -0.1201
  369loPI   C4A 5898   6.317  14.911   8.218  0.2194  0.2529  0.0605
  369loPI   C5A 5899   6.767  14.972   7.995  0.5441  0.5519  0.1991
  369loPI   C6A 5900   7.085  15.115   7.897  0.1783  0.0354 -0.3338
  369loPI   C1B 5901   6.774  15.131   9.339 -0.0392 -0.1519 -0.1061
  369loPI   C2B 5902   6.699  15.228   8.841 -0.0805  0.2334  0.1227
  369loPI   C3B 5903   6.697  15.229   8.424 -0.1162 -0.3595 -0.1068
  369loPI   C4B 5904   6.645  15.429   8.058 -0.2835  0.0795 -0.2565
  370loPI    C1 5905  13.598  17.534  10.445  0.1307  0.2425 -0.0129
  370loPI    C2 5906  13.915  17.704  10.269  0.0661  0.3778 -0.0005
  370loPI    C3 5907  13.915  17.640  10.664  0.1739  0.1586 -0.0345
  370loPI   PO4 5908  13.498  17.277  10.330  0.0270 -0.1135  0.3195
  370loPI   GL1 5909  13.655  17.153   9.885  0.1489 -0.1632  0.2887
  370loPI   GL2 5910  13.814  17.388   9.801  0.1865  0.1622 -0.0755
  370loPI   C1A 5911  13.339  17.117   9.508 -0.0433 -0.1185 -0.1272
  370loPI   C2A 5912  13.202  17.080   9.104  0.0401 -0.2351  0.0576
  370loPI   C3A 5913  13.196  17.001   8.628  0.0331  0.0020 -0.1902
  370loPI   C4A 5914  13.036  17.075   8.161 -0.2094 -0.1357 -0.0411
  370loPI   C5A 5915  12.998  17.399   7.923 -0.3134 -0.1572  0.2595
  370loPI   C6A 5916  13.297  17.677   7.721 -0.2605  0.4149 -0.0546
  370loPI   C1B 5917  13.687  17.532   9.402 -0.1988 -0.0335  0.0642
  370loPI   C2B 5918  13.667  17.548   9.000  0.1177 -0.3084  0.2121
  370loPI   C3B 5919  13.512  17.444   8.626 -0.0612 -0.2779  0.1771
  370loPI   C4B 5920  13.505  17.472   8.182  0.3481 -0.2136 -0.1099
  371loPI    C1 5921  16.739   4.592  10.300 -0.2949  0.0951  0.7142
  371loPI    C2 5922  16.867   4.214  10.330  0.0917  0.1429 -0.0843
  371loPI    C3 5923  17.062   4.507  10.520  0.1305  0.0102  0.0827
  371loPI   PO4 5924  16.547   4.522  10.043  0.0650  0.1887 -0.2442
  371loPI   GL1 5925  16.380   4.827   9.704  0.0250 -0.0253  0.1589
  371loPI   GL2 5926  16.734   4.866   9.682 -0.0595 -0.0571 -0.3098
  371loPI   C1A 5927  16.458   4.749   9.269  0.1664 -0.2866  0.2984
  371loPI   C2A 5928  16.409   4.780   8.864 -0.0930 -0.1751 -0.2300
  371loPI   C3A 5929  16.298   4.796   8.555  0.2274  0.3575 -0.0161
  371loPI   C4A 5930  16.305   4.822   8.162 -0.1409  0.1656  0.2681
  371loPI   C5A 5931  16.275   4.891   7.683  0.0371 -0.3715 -0.3393
  371loPI   C6A 5932  16.541   4.606   7.435 -0.1447  0.3858  0.0775
  371loPI   C1B 5933  16.736   5.142   9.403  0.0721  0.2372 -0.0589
  371loPI   C2B 5934  16.746   5.143   8.910  0.1185 -0.0953  0.1736
  371loPI   C3B 5935  16.664   5.066   8.454 -0.2622 -0.1601 -0.2236
  371loPI   C4B 5936  16.576   5.284   8.049  0.3406  0.0516 -0.0162
  372loPI    C1 5937   2.011   2.589  10.378  0.1433  0.0008 -0.0157
  372loPI    C2 5938   1.719   2.541  10.647  0.1100  0.1051 -0.0329
  372loPI    C3 5939   1.989   2.252  10.591  0.0002  0.0013 -0.0290
  372loPI   PO4 5940   1.950   2.649  10.156  0.4064 -0.2666 -0.0314
  372loPI   GL1 5941   1.909   2.450   9.787 -0.1879 -0.0371 -0.2382
  372loPI   GL2 5942   1.636   2.401   9.789  0.3954 -0.0831  0.1070
  372loPI   C1A 5943   2.203   2.531   9.417 -0.0512 -0.1787 -0.0568
  372loPI   C2A 5944   2.206   2.575   8.992  0.1307  0.1399  0.0462
  372loPI   C3A 5945   2.190   2.749   8.558 -0.1615 -0.0630  0.2392
  372loPI   C4A 5946   2.132   2.728   8.115  0.0240  0.0440  0.1342
  372loPI   C5A 5947   1.850   2.818   7.784  0.2024 -0.2294 -0.4109
  372loPI   C6A 5948   1.454   2.967   7.605 -0.0602  0.2994  0.0753
  372loPI   C1B 5949   1.760   2.254   9.280  0.0477 -0.0188  0.0235
  372loPI   C2B 5950   1.745   2.280   8.869 -0.2165 -0.3942  0.1036
  372loPI   C3B 5951   1.793   2.373   8.454 -0.4985  0.2136  0.1980
  372loPI   C4B 5952   1.678   2.563   8.146  0.0759  0.2674 -0.2030
  373loPI    C1 5953  10.004   8.729  10.770 -0.1217  0.1951 -0.2821
  373loPI    C2 5954   9.717   8.945  10.946  0.0845  0.0326  0.2743
  373loPI    C3 5955   9.747   8.553  11.020  0.1860 -0.0397 -0.1242
  373loPI   PO4 5956  10.004   8.752  10.500 -0.1337  0.0682 -0.0553
  373loPI   GL1 5957  10.175   9.074  10.113  0.0300  0.5696  0.1787
  373loPI   GL2 5958   9.846   9.134  10.085  0.2416 -0.1087 -0.2762
  373loPI   C1A 5959  10.199   8.962   9.674  0.4369  0.2955  0.2165
  373loPI   C2A 5960  10.005   8.953   9.296 -0.0175 -0.2982 -0.1991
  373loPI   C3A 5961   9.890   9.051   8.878  0.2885 -0.0883 -0.2214
  373loPI   C4A 5962  10.054   8.964   8.507  0.2308 -0.0203  0.1360
  373loPI   C5A 5963  10.258   9.120   8.166 -0.0491  0.0903  0.0945
  373loPI   C6A 5964  10.473   8.896   7.901  0.1058 -0.0039 -0.0834
  373loPI   C1B 5965   9.675   9.064   9.668 -0.1204 -0.1942 -0.0723
  373loPI   C2B 5966   9.512   9.148   9.187 -0.0820  0.2029 -0.2536
  373loPI   C3B 5967   9.457   9.245   8.906  0.1717  0.1769  0.1484
  373loPI   C4B 5968   9.418   9.231   8.456  0.1648 -0.2212  0.0170
  374loPI    C1 5969  10.600   8.643  10.884 -0.3263 -0.0145 -0.1839
  374loPI    C2 5970  10.287   8.575  11.125 -0.0643 -0.1669  0.1213
  374loPI    C3 5971  10.614   8.756  11.268 -0.0565  0.1052 -0.2271
  374loPI   PO4 5972  10.484   8.688  10.609  0.3023 -0.0077  0.1470
  374loPI   GL1 5973  10.618   8.505  10.257 -0.3462 -0.2155 -0.2325
  374loPI   GL2 5974  10.735   8.289  10.071 -0.0723 -0.2306  0.2660
  374loPI   C1A 5975  10.312   8.480   9.936  0.0097  0.2540 -0.0929
  374loPI   C2A 5976  10.256   8.490   9.493 -0.0223  0.0367 -0.0926
  374loPI   C3A 5977  10.223   8.498   9.067  0.0636  0.0614  0.0474
  374loPI   C4A 5978  10.252   8.534   8.650 -0.2144 -0.0601  0.1122
  374loPI   C5A 5979  10.317   8.599   8.257 -0.3134  0.1906 -0.1280
  374loPI   C6A 5980  10.749   8.519   8.043 -0.0803  0.0610  0.3287
  374loPI   C1B 5981  10.755   8.328   9.622 -0.0979  0.2398 -0.1343
  374loPI   C2B 5982  10.686   8.314   9.262  0.2516  0.0140 -0.1097
  374loPI   C3B 5983  10.693   8.300   8.799  0.1405  0.0135  0.0650
  374loPI   C4B 5984  10.657   8.213   8.424 -0.0790 -0.1615  0.2943
  375loPI    C1 5985  10.633  16.455  11.145 -0.2220  0.3890  0.0626
  375loPI    C2 5986  10.675  16.298  11.510  0.0194 -0.0579 -0.1497
  375loPI    C3 5987  10.924  16.586  11.386 -0.1191  0.1578  0.0666
  375loPI   PO4 5988  10.551  16.206  10.871  0.4490 -0.1991  0.0380
  375loPI   GL1 5989  10.709  15.996  10.471  0.1407  0.1425 -0.2683
  375loPI   GL2 5990  10.926  15.670  10.347  0.2896  0.1645  0.0142
  375loPI   C1A 5991  10.830  15.937  10.004  0.1887  0.2181 -0.1061
  375loPI   C2A 5992  10.845  15.929   9.606 -0.0542 -0.0039 -0.0468
  375loPI   C3A 5993  10.733  15.956   9.184  0.0624 -0.1645 -0.0130
  375loPI   C4A 5994  10.733  15.842   8.853 -0.2144 -0.1629 -0.0415
  375loPI   C5A 5995  10.557  15.725   8.433  0.1858 -0.0606 -0.2469
  375loPI   C6A 5996  10.416  15.481   8.001 -0.2156  0.0982 -0.1188
  375loPI   C1B 5997  10.950  15.477   9.936  0.1938  0.2017 -0.2207
  375loPI   C2B 5998  10.865  15.385   9.508  0.3893  0.2287  0.1536
  375loPI   C3B 5999  10.858  15.426   9.130 -0.2648  0.3096  0.1119
  375loPI   C4B 6000  10.710  15.313   8.737  0.1261 -0.0640  0.1434
  376loPI    C1 6001  14.334  14.469  10.407 -0.0674  0.2927  0.0230
  376loPI    C2 6002  14.682  14.472  10.604 -0.1414  0.0110  0.1630
  376loPI    C3 6003  14.353  14.328  10.781 -0.3020  0.1532 -0.0155
  376loPI   PO4 6004  14.355  14.539  10.190  0.0451 -0.1600  0.1025
  376loPI   GL1 6005  13.984  14.591   9.853 -0.2713  0.1967 -0.2088
  376loPI   GL2 6006  13.694  14.519   9.974  0.2254  0.1704 -0.0966
  376loPI   C1A 6007  13.985  14.653   9.487 -0.5013  0.1486  0.0855
  376loPI   C2A 6008  13.965  14.559   9.005  0.0818  0.1203  0.1186
  376loPI   C3A 6009  13.814  14.565   8.674 -0.2484  0.1439  0.2174
  376loPI   C4A 6010  13.837  14.480   8.241  0.2356  0.1055 -0.0902
  376loPI   C5A 6011  14.066  14.274   7.945  0.0284  0.1144 -0.0248
  376loPI   C6A 6012  14.251  13.990   7.697 -0.0749  0.1937 -0.1838
  376loPI   C1B 6013  13.505  14.623   9.565  0.0457  0.0234  0.0211
  376loPI   C2B 6014  13.390  14.656   9.172  0.1487 -0.0176 -0.0221
  376loPI   C3B 6015  13.281  14.814   8.737  0.1280  0.0236 -0.1420
  376loPI   C4B 6016  13.355  14.846   8.303  0.0135  0.1785  0.0407
  377loPI    C1 6017  14.993  10.754  10.596  0.0196  0.2195 -0.0203
  377loPI    C2 6018  15.334  10.551  10.650 -0.2917 -0.2699  0.1799
  377loPI    C3 6019  15.236  10.848  10.900  0.1824  0.1694 -0.1337
  377loPI   PO4 6020  14.920  10.706  10.293 -0.0634 -0.1423  0.1185
  377loPI   GL1 6021  15.005  10.437   9.952  0.2895  0.0799  0.4063
  377loPI   GL2 6022  14.845  10.225   9.946  0.0660  0.2723  0.1796
  377loPI   C1A 6023  15.013  10.344   9.506  0.1213 -0.0549 -0.0841
  377loPI   C2A 6024  14.944  10.426   9.135 -0.0933 -0.0381 -0.0725
  377loPI   C3A 6025  14.866  10.329   8.702 -0.1035 -0.1406 -0.0038
  377loPI   C4A 6026  14.838  10.377   8.279 -0.3214  0.0330 -0.1685
  377loPI   C5A 6027  14.762  10.180   7.881  0.2700  0.0085  0.0600
  377loPI   C6A 6028  14.541  10.285   7.488  0.0870 -0.0970 -0.2564
  377loPI   C1B 6029  14.602  10.023   9.551  0.0241  0.4877 -0.1733
  377loPI   C2B 6030  14.569  10.063   9.147 -0.3162 -0.0158 -0.0023
  377loPI   C3B 6031  14.445  10.097   8.775 -0.0140 -0.1441 -0.1455
  377loPI   C4B 6032  14.323  10.006   8.302 -0.0282 -0.1755  0.2288
  378loPI    C1 6033   2.628   9.230   9.952  0.1626 -0.1036  0.2353
  378loPI    C2 6034   2.309   9.472   9.961  0.1030 -0.1800  0.1876
  378loPI    C3 6035   2.480   9.353  10.302  0.1037 -0.1087  0.2122
  378loPI   PO4 6036   2.545   9.292   9.594 -0.2588 -0.2070 -0.0306
  378loPI   GL1 6037   2.465   9.104   9.274  0.0623 -0.2520  0.0004
  378loPI   GL2 6038   2.433   9.307   9.053  0.1517 -0.2252  0.2942
  378loPI   C1A 6039   2.582   8.844   8.843 -0.0129  0.0878 -0.2116
  378loPI   C2A 6040   2.578   8.652   8.488 -0.3747 -0.1267 -0.0917
  378loPI   C3A 6041   2.675   8.322   8.092  0.4354 -0.1227  0.0918
  378loPI   C4A 6042   2.654   8.119   7.723 -0.0608 -0.0276  0.0654
  378loPI   C5A 6043   2.603   7.900   7.289  0.0104 -0.1736 -0.0071
  378loPI   C6A 6044   2.420   7.897   6.804  0.0354 -0.1461  0.3405
  378loPI   C1B 6045   2.418   9.289   8.627  0.4313 -0.1154  0.1131
  378loPI   C2B 6046   2.374   9.373   8.162  0.3078 -0.0878  0.1102
  378loPI   C3B 6047   2.306   9.451   7.783 -0.0387  0.0022 -0.1174
  378loPI   C4B 6048   2.053   9.543   7.390  0.0647  0.1715 -0.0316
  379loPI    C1 6049   8.903   9.497  10.652 -0.0140  0.2104 -0.1206
  379loPI    C2 6050   8.948   9.356  11.024  0.0613  0.1684 -0.1453
  379loPI    C3 6051   8.659   9.621  10.943 -0.1866 -0.0925 -0.1318
  379loPI   PO4 6052   9.180   9.422  10.569  0.0922  0.1215 -0.3890
  379loPI   GL1 6053   9.333   9.397  10.152 -0.0722  0.2396 -0.1565
  379loPI   GL2 6054   9.195   9.192  10.085 -0.1073  0.0266 -0.1233
  379loPI   C1A 6055   9.575   9.529   9.981 -0.4565  0.0962 -0.0534
  379loPI   C2A 6056   9.506   9.631   9.612  0.0992  0.0680  0.0692
  379loPI   C3A 6057   9.371   9.608   9.195  0.1080 -0.3353  0.0205
  379loPI   C4A 6058   9.442   9.731   8.656  0.1654  0.0083 -0.1139
  379loPI   C5A 6059   9.477   9.798   8.171  0.0530  0.0670  0.0187
  379loPI   C6A 6060   9.292  10.156   7.877  0.0332 -0.1560  0.1026
  379loPI   C1B 6061   9.118   9.275   9.734  0.0918  0.0973 -0.2546
  379loPI   C2B 6062   8.997   9.232   9.281 -0.2106  0.2335 -0.1818
  379loPI   C3B 6063   8.955   9.311   8.817 -0.0920  0.0849  0.1037
  379loPI   C4B 6064   9.023   9.516   8.444 -0.3285  0.0571  0.2252
  380loPI    C1 6065  10.151   4.311  11.168 -0.0510  0.5681 -0.0459
  380loPI    C2 6066  10.453   4.568  11.116  0.1614  0.3138 -0.0915
  380loPI    C3 6067  10.527   4.195  11.238 -0.1407  0.2616 -0.0596
  380loPI   PO4 6068   9.997   4.249  10.917 -0.0778 -0.1068 -0.2016
  380loPI   GL1 6069  10.023   4.512  10.567  0.0889 -0.3032  0.0697
  380loPI   GL2 6070  10.200   4.783  10.566 -0.1773  0.3033 -0.1758
  380loPI   C1A 6071  10.116   4.639  10.058  0.0122 -0.1179  0.3837
  380loPI   C2A 6072  10.347   4.678   9.665 -0.0133 -0.3777  0.0686
  380loPI   C3A 6073  10.255   4.711   9.196 -0.0389 -0.0811  0.1600
  380loPI   C4A 6074  10.338   4.684   8.701 -0.0714 -0.1234  0.2960
  380loPI   C5A 6075  10.151   4.647   8.233 -0.1766 -0.1722  0.0654
  380loPI   C6A 6076  10.248   4.257   8.075  0.0012  0.0100  0.1864
  380loPI   C1B 6077  10.613   4.920  10.273 -0.0273 -0.0530  0.0176
  380loPI   C2B 6078  10.728   5.153   9.889 -0.1586 -0.1457 -0.0361
  380loPI   C3B 6079  10.692   4.999   9.452  0.1521 -0.0246 -0.0459
  380loPI   C4B 6080  10.689   5.030   9.096 -0.1309  0.3924  0.1565
  381loPI    C1 6081   9.950  10.588  10.653  0.2424  0.0694 -0.0890
  381loPI    C2 6082   9.651  10.718  10.420  0.1016 -0.2577 -0.0968
  381loPI    C3 6083   9.682  10.847  10.798  0.1260  0.0044 -0.1862
  381loPI   PO4 6084  10.189  10.627  10.472  0.3037 -0.2060  0.1924
  381loPI   GL1 6085  10.247  10.800  10.136  0.6016  0.0496 -0.2440
  381loPI   GL2 6086   9.967  10.793  10.026 -0.1513  0.3527 -0.0206
  381loPI   C1A 6087  10.250  10.422   9.866  0.2436  0.2476 -0.1238
  381loPI   C2A 6088  10.151  10.298   9.482  0.2305  0.0302 -0.0243
  381loPI   C3A 6089  10.235  10.372   9.029  0.1000  0.1147 -0.0993
  381loPI   C4A 6090  10.221  10.340   8.692 -0.0387 -0.0282  0.0525
  381loPI   C5A 6091  10.244  10.524   8.211  0.5521 -0.1221  0.0333
  381loPI   C6A 6092  10.245  10.316   7.879 -0.0420 -0.1182 -0.1517
  381loPI   C1B 6093  10.131  10.857   9.566  0.3294 -0.3013 -0.1277
  381loPI   C2B 6094  10.133  10.879   9.043 -0.0042  0.0708  0.3283
  381loPI   C3B 6095  10.078  10.832   8.593 -0.1281 -0.1480  0.0472
  381loPI   C4B 6096   9.994  10.928   8.180  0.0159  0.0103  0.1185
  382loPI    C1 6097  10.952   4.178  11.010  0.0363  0.0912  0.1113
  382loPI    C2 6098  10.979   4.383  11.353 -0.1473  0.0535  0.1493
  382loPI    C3 6099  11.296   4.184  11.213 -0.0924  0.0097  0.3347
  382loPI   PO4 6100  10.853   4.364  10.828  0.0534 -0.1458 -0.1956
  382loPI   GL1 6101  10.844   4.523  10.402  0.2741  0.0609  0.0857
  382loPI   GL2 6102  11.030   4.722  10.513 -0.0385 -0.2626 -0.1242
  382loPI   C1A 6103  10.755   4.584   9.935  0.0986 -0.1412 -0.1463
  382loPI   C2A 6104  10.756   4.530   9.493  0.2252 -0.1052  0.0801
  382loPI   C3A 6105  10.840   4.532   9.084  0.0630 -0.2544  0.0127
  382loPI   C4A 6106  10.855   4.526   8.648  0.1016  0.0426 -0.4550
  382loPI   C5A 6107  10.739   4.788   8.327  0.0277  0.3209  0.0142
  382loPI   C6A 6108  10.431   5.025   8.059 -0.1196  0.0303 -0.0492
  382loPI   C1B 6109  11.101   4.909  10.084  0.3294 -0.0024 -0.0376
  382loPI   C2B 6110  11.111   4.827   9.664  0.2896  0.2455 -0.1334
  382loPI   C3B 6111  11.173   4.917   9.228  0.0345  0.0665 -0.2223
  382loPI   C4B 6112  11.178   4.953   8.787  0.1491 -0.3631  0.1013
  383loPI    C1 6113  11.728  14.099  11.135  0.0663  0.2976  0.0116
  383loPI    C2 6114  11.427  13.989  11.375  0.1833 -0.0194  0.0187
  383loPI    C3 6115  11.433  14.356  11.216 -0.1513  0.0253  0.1016
  383loPI   PO4 6116  11.831  13.993  10.871 -0.3935  0.0309  0.0018
  383loPI   GL1 6117  11.725  13.927  10.519  0.1952  0.2384  0.1937
  383loPI   GL2 6118  12.072  13.914  10.338 -0.1557 -0.1543 -0.1465
  383loPI   C1A 6119  11.601  14.162  10.162  0.2551  0.0037  0.1506
  383loPI   C2A 6120  11.579  14.223   9.716 -0.0410  0.0953 -0.2138
  383loPI   C3A 6121  11.610  14.288   9.290  0.0716 -0.2014  0.2791
  383loPI   C4A 6122  11.528  14.252   8.812  0.1532  0.1030 -0.1997
  383loPI   C5A 6123  11.358  14.283   8.357 -0.2345 -0.1924 -0.2258
  383loPI   C6A 6124  10.985  14.195   8.187 -0.1188 -0.0211  0.0014
  383loPI   C1B 6125  11.824  13.730   9.915  0.2487  0.1572 -0.0994
  383loPI   C2B 6126  11.831  13.729   9.541  0.0540 -0.1449 -0.0272
  383loPI   C3B 6127  11.656  13.711   9.040  0.3588  0.1410  0.1866
  383loPI   C4B 6128  11.729  13.826   8.569 -0.1686 -0.0495 -0.1175
  384loPI    C1 6129  14.903   3.989  10.850 -0.0260  0.0131  0.0435
  384loPI    C2 6130  15.083   4.177  11.154 -0.0260 -0.0946  0.1105
  384loPI    C3 6131  14.696   4.081  11.179 -0.0625  0.0263  0.0169
  384loPI   PO4 6132  14.959   4.199  10.627 -0.0584  0.1492 -0.0996
  384loPI   GL1 6133  15.120   4.195  10.227  0.1181  0.0551 -0.1441
  384loPI   GL2 6134  14.849   3.984  10.044  0.2840 -0.6364 -0.2226
  384loPI   C1A 6135  15.063   4.264   9.646  0.2948 -0.2233  0.3282
  384loPI   C2A 6136  15.077   4.293   9.229  0.0251 -0.0009 -0.0830
  384loPI   C3A 6137  15.085   4.154   8.689  0.1529  0.0227  0.2105
  384loPI   C4A 6138  14.932   3.947   8.365  0.1563 -0.2001 -0.0148
  384loPI   C5A 6139  14.847   4.089   7.971  0.2679 -0.1467 -0.1247
  384loPI   C6A 6140  14.613   4.443   7.987 -0.1322 -0.0049 -0.1947
  384loPI   C1B 6141  14.740   3.896   9.615  0.1951  0.0776  0.1886
  384loPI   C2B 6142  14.741   3.925   9.192  0.1707 -0.1746  0.1775
  384loPI   C3B 6143  14.643   3.800   8.786  0.0372 -0.0859 -0.0052
  384loPI   C4B 6144  14.462   3.800   8.366 -0.2537 -0.2284  0.0438
  385loPI    C1 6145   4.353   5.560  10.136  0.4175 -0.2673 -0.1196
  385loPI    C2 6146   4.244   5.881  10.348 -0.1146 -0.4173 -0.1536
  385loPI    C3 6147   4.611   5.861  10.191 -0.0182  0.0967 -0.0116
  385loPI   PO4 6148   4.185   5.542   9.973  0.0484  0.2390 -0.3801
  385loPI   GL1 6149   4.043   5.860   9.754 -0.2583 -0.1009  0.0058
  385loPI   GL2 6150   3.857   5.817   9.583 -0.2843 -0.0564  0.0075
  385loPI   C1A 6151   4.470   6.095   9.608 -0.1355 -0.0683  0.2083
  385loPI   C2A 6152   4.775   6.107   9.196  0.0826 -0.1645  0.0198
  385loPI   C3A 6153   4.827   6.093   8.850  0.3764 -0.2926 -0.2525
  385loPI   C4A 6154   4.731   6.204   8.512  0.0360 -0.0351 -0.1957
  385loPI   C5A 6155   4.863   6.005   8.098 -0.3926  0.3214 -0.1055
  385loPI   C6A 6156   5.043   5.608   8.012  0.2173 -0.3104 -0.0317
  385loPI   C1B 6157   3.706   5.609   9.280 -0.2500 -0.0922  0.0910
  385loPI   C2B 6158   3.741   5.519   8.901 -0.0653  0.4353  0.4421
  385loPI   C3B 6159   3.806   5.452   8.471  0.0161 -0.0542 -0.0414
  385loPI   C4B 6160   3.681   5.657   8.020  0.0873 -0.3242  0.1045
  386loPI    C1 6161   7.645  11.263  10.731  0.3099 -0.0047 -0.1676
  386loPI    C2 6162   7.614  11.016  11.044  0.3181  0.0719 -0.1061
  386loPI    C3 6163   7.495  11.396  11.077 -0.1123 -0.0371 -0.3323
  386loPI   PO4 6164   7.637  11.218  10.519  0.0939 -0.0258 -0.5060
  386loPI   GL1 6165   7.702  11.217  10.171 -0.0706  0.1677 -0.1610
  386loPI   GL2 6166   7.967  11.419  10.100 -0.0491 -0.3417 -0.0130
  386loPI   C1A 6167   7.605  11.065   9.758 -0.1444  0.1240 -0.1480
  386loPI   C2A 6168   7.721  11.149   9.331  0.1971  0.0125 -0.2966
  386loPI   C3A 6169   7.702  11.042   8.847  0.2838  0.1501 -0.0953
  386loPI   C4A 6170   7.658  11.092   8.386  0.3399 -0.2582  0.2491
  386loPI   C5A 6171   7.347  11.084   8.007 -0.1653 -0.2011 -0.0519
  386loPI   C6A 6172   7.145  11.156   7.692 -0.2481 -0.0116 -0.1354
  386loPI   C1B 6173   8.015  11.478   9.600  0.1904  0.3098  0.0888
  386loPI   C2B 6174   8.124  11.485   9.189  0.0465 -0.2144 -0.0439
  386loPI   C3B 6175   8.041  11.409   8.797 -0.3713 -0.2357 -0.1205
  386loPI   C4B 6176   7.961  11.466   8.377  0.2999  0.1146  0.1270
  387loPI    C1 6177  12.669   4.196  11.216 -0.1709  0.1292 -0.2706
  387loPI    C2 6178  12.988   4.437  11.228 -0.0039 -0.0997  0.0450
  387loPI    C3 6179  12.714   4.453  11.519 -0.2115 -0.0022 -0.1522
  387loPI   PO4 6180  12.641   4.120  10.981  0.0030  0.1453  0.3179
  387loPI   GL1 6181  12.547   4.172  10.625 -0.0180  0.0304  0.2402
  387loPI   GL2 6182  12.545   4.023  10.315 -0.0546  0.2783  0.2659
  387loPI   C1A 6183  12.646   4.456  10.231 -0.0824  0.3423  0.3018
  387loPI   C2A 6184  12.708   4.542   9.752  0.1413  0.0914 -0.3569
  387loPI   C3A 6185  12.760   4.481   9.298 -0.3128 -0.3647  0.4560
  387loPI   C4A 6186  12.708   4.353   8.926  0.3025  0.0578  0.0180
  387loPI   C5A 6187  12.719   4.358   8.447 -0.4672  0.1308 -0.0096
  387loPI   C6A 6188  12.671   4.671   8.106  0.0074  0.0214  0.0787
  387loPI   C1B 6189  12.406   4.133   9.895  0.3282 -0.1241  0.1747
  387loPI   C2B 6190  12.450   4.182   9.465 -0.0514 -0.0285  0.2949
  387loPI   C3B 6191  12.352   3.985   9.043  0.1383  0.3199  0.1197
  387loPI   C4B 6192  12.339   4.043   8.650 -0.2713  0.0903 -0.2164
  388loPI    C1 6193   9.627   6.195  11.036 -0.1253  0.0778 -0.0689
  388loPI    C2 6194   9.888   6.420  11.239 -0.2276  0.2925 -0.1717
  388loPI    C3 6195   9.661   6.153  11.432 -0.0268  0.1969 -0.0642
  388loPI   PO4 6196   9.703   6.265  10.824 -0.2134  0.1557 -0.1042
  388loPI   GL1 6197   9.439   6.257  10.511 -0.3064  0.0461 -0.1342
  388loPI   GL2 6198   9.478   5.971  10.350 -0.0785  0.4647  0.0376
  388loPI   C1A 6199   9.290   6.381  10.151 -0.4554 -0.1796 -0.0219
  388loPI   C2A 6200   9.400   6.338   9.694 -0.0069 -0.0297 -0.0830
  388loPI   C3A 6201   9.298   6.400   9.257 -0.0371  0.2933  0.1155
  388loPI   C4A 6202   9.328   6.443   8.836  0.1464  0.1447  0.0220
  388loPI   C5A 6203   9.533   6.293   8.416  0.3170  0.0427  0.2558
  388loPI   C6A 6204   9.388   6.415   7.933 -0.1314  0.2414  0.2614
  388loPI   C1B 6205   9.522   5.849   9.900 -0.2127 -0.1048 -0.0586
  388loPI   C2B 6206   9.549   5.806   9.463 -0.0805 -0.0567 -0.0372
  388loPI   C3B 6207   9.424   5.907   8.999  0.1349  0.1678 -0.1465
  388loPI   C4B 6208   9.476   5.831   8.599  0.2021  0.2508  0.0276
  389loPI    C1 6209  13.993   5.175  10.885 -0.2118 -0.0798 -0.0671
  389loPI    C2 6210  13.962   5.207  11.282 -0.2504  0.2787 -0.0962
  389loPI    C3 6211  13.752   4.928  11.087  0.0780 -0.1698  0.1745
  389loPI   PO4 6212  13.840   5.357  10.772  0.0479 -0.4088 -0.0294
  389loPI   GL1 6213  13.779   5.388  10.380 -0.1968  0.1188 -0.4054
  389loPI   GL2 6214  13.516   5.412  10.354 -0.0575 -0.2135  0.2165
  389loPI   C1A 6215  13.974   5.080  10.055  0.4940 -0.3043  0.0246
  389loPI   C2A 6216  13.976   5.091   9.685 -0.4862  0.1979  0.1887
  389loPI   C3A 6217  13.929   5.025   9.295  0.2127 -0.3892 -0.0366
  389loPI   C4A 6218  13.883   5.040   8.898 -0.0724  0.2344 -0.1034
  389loPI   C5A 6219  13.998   5.081   8.503 -0.1435  0.0141 -0.1617
  389loPI   C6A 6220  13.907   4.958   8.140 -0.2973  0.1568  0.1273
  389loPI   C1B 6221  13.486   5.179   9.951 -0.2886 -0.0966 -0.0843
  389loPI   C2B 6222  13.451   5.199   9.530 -0.0828  0.2000  0.3274
  389loPI   C3B 6223  13.411   5.135   9.147  0.2910  0.0571  0.0675
  389loPI   C4B 6224  13.416   5.142   8.726  0.0109  0.0123 -0.1623
  390loPI    C1 6225   5.896  11.213  10.501  0.0467 -0.1413  0.0123
  390loPI    C2 6226   6.264  11.115  10.623  0.1087  0.0948  0.0190
  390loPI    C3 6227   5.946  10.996  10.833  0.1941  0.1161  0.1615
  390loPI   PO4 6228   5.919  11.130  10.230 -0.2911 -0.0839  0.1214
  390loPI   GL1 6229   5.971  11.266   9.873 -0.0956  0.1777  0.2219
  390loPI   GL2 6230   6.088  11.526   9.807  0.2734  0.1305  0.2039
  390loPI   C1A 6231   5.746  11.248   9.503 -0.1686  0.1540 -0.0464
  390loPI   C2A 6232   5.847  11.205   9.111 -0.0269 -0.1123  0.0912
  390loPI   C3A 6233   5.772  11.184   8.664 -0.2172  0.1745  0.2694
  390loPI   C4A 6234   5.888  11.274   8.258 -0.0665  0.3898 -0.1306
  390loPI   C5A 6235   5.812  11.308   7.851 -0.0815  0.2276  0.0284
  390loPI   C6A 6236   6.036  11.496   7.613  0.2376  0.1064 -0.0894
  390loPI   C1B 6237   6.197  11.489   9.339  0.4308  0.0323  0.4292
  390loPI   C2B 6238   6.138  11.615   8.905  0.3098  0.0401  0.0730
  390loPI   C3B 6239   6.183  11.610   8.402 -0.2968 -0.2630 -0.2494
  390loPI   C4B 6240   6.351  11.570   7.976 -0.0407 -0.1040 -0.0471
  391loPI    C1 6241  18.304  14.620  10.008 -0.0522 -0.1688  0.1870
  391loPI    C2 6242  18.561  14.489  10.286  0.2053  0.2776  0.1692
  391loPI    C3 6243  18.216  14.660  10.396  0.0880  0.0248  0.2005
  391loPI   PO4 6244  18.381  14.536   9.788 -0.0717 -0.1944 -0.0044
  391loPI   GL1 6245  18.642  14.363   9.461  0.1415 -0.2622 -0.1179
  391loPI   GL2 6246  18.674  13.992   9.396  0.3730 -0.1697  0.2499
  391loPI   C1A 6247  18.571  14.440   9.022  0.2070 -0.1951  0.0785
  391loPI   C2A 6248  18.682  14.603   8.688 -0.1113  0.1373  0.2379
  391loPI   C3A 6249  18.611  14.757   8.249  0.0159  0.1563  0.1836
  391loPI   C4A 6250  18.522  14.972   7.971  0.1721  0.1749 -0.3548
  391loPI   C5A 6251  18.648  15.367   7.680 -0.2036  0.1282 -0.0934
  391loPI   C6A 6252  18.691  15.798   7.529 -0.0566 -0.0467  0.0171
  391loPI   C1B 6253  18.765  13.900   8.934  0.2341  0.0303  0.0523
  391loPI   C2B 6254  18.866  14.156   8.661  0.0224  0.3550  0.1900
  391loPI   C3B 6255  18.746  14.313   8.320  0.1474 -0.1571  0.2487
  391loPI   C4B 6256  18.399  14.216   8.070 -0.1847 -0.0270 -0.2873
  392loPI    C1 6257   0.813   1.264  10.124  0.0500  0.0001  0.0559
  392loPI    C2 6258   1.095   1.487  10.299 -0.0490  0.1057  0.0817
  392loPI    C3 6259   1.047   1.105  10.406  0.2634  0.0081 -0.1135
  392loPI   PO4 6260   0.898   1.260   9.895 -0.2792 -0.1792 -0.2002
  392loPI   GL1 6261   0.955   1.168   9.555 -0.1085 -0.1533 -0.1026
  392loPI   GL2 6262   1.162   0.901   9.535  0.2422 -0.1519 -0.1429
  392loPI   C1A 6263   1.013   1.444   9.164  0.2055 -0.0740 -0.1472
  392loPI   C2A 6264   1.103   1.447   8.854  0.2224  0.2368 -0.0522
  392loPI   C3A 6265   1.219   1.574   8.455  0.0111 -0.0656 -0.0492
  392loPI   C4A 6266   1.381   1.673   8.063  0.0626  0.0685 -0.0592
  392loPI   C5A 6267   1.225   1.502   7.670  0.0370 -0.1714  0.1602
  392loPI   C6A 6268   1.164   1.674   7.274  0.1160 -0.0381 -0.2490
  392loPI   C1B 6269   1.299   1.015   9.132  0.1936 -0.0300  0.1454
  392loPI   C2B 6270   1.326   1.024   8.642 -0.0550 -0.1038  0.2496
  392loPI   C3B 6271   1.262   1.026   8.179 -0.0487  0.0373 -0.2738
  392loPI   C4B 6272   1.112   1.057   7.853 -0.0296  0.1981  0.3536
  393loPI    C1 6273   0.484  14.257  10.365 -0.2358  0.0223  0.1590
  393loPI    C2 6274   0.532  14.653  10.336 -0.0978 -0.0135 -0.1378
  393loPI    C3 6275   0.724  14.448  10.622 -0.1481  0.1288 -0.0009
  393loPI   PO4 6276   0.475  14.128  10.054 -0.1713 -0.0489  0.0474
  393loPI   GL1 6277   0.598  14.165   9.644 -0.2421  0.0226  0.3273
  393loPI   GL2 6278   0.821  13.980   9.365 -0.3418  0.0183 -0.0031
  393loPI   C1A 6279   0.508  14.355   9.175  0.0069 -0.0016  0.0488
  393loPI   C2A 6280   0.699  14.509   8.874  0.2043  0.0553  0.2444
  393loPI   C3A 6281   0.750  14.462   8.471 -0.2019  0.0495 -0.2385
  393loPI   C4A 6282   0.650  14.470   8.085  0.0481 -0.1274 -0.1906
  393loPI   C5A 6283   0.331  14.293   7.731 -0.3331 -0.3783 -0.1612
  393loPI   C6A 6284  -0.003  14.443   7.486  0.1685  0.3448  0.3037
  393loPI   C1B 6285   0.919  14.071   9.067  0.0274  0.0348  0.0820
  393loPI   C2B 6286   0.857  14.041   8.775 -0.0140 -0.0884  0.0660
  393loPI   C3B 6287   0.918  14.017   8.415 -0.0580 -0.0527  0.1575
  393loPI   C4B 6288   1.085  14.252   8.073  0.4684  0.1235 -0.2889
  394loPI    C1 6289   7.877  15.870  10.859  0.0903  0.3933  0.1257
  394loPI    C2 6290   7.596  15.706  11.092  0.0955  0.0475 -0.1046
  394loPI    C3 6291   7.804  16.022  11.222 -0.1625  0.0951  0.2040
  394loPI   PO4 6292   7.731  15.873  10.600 -0.1775 -0.0137 -0.2155
  394loPI   GL1 6293   7.743  15.644  10.308  0.1962  0.2705 -0.4269
  394loPI   GL2 6294   7.554  15.741  10.145  0.1907  0.0188 -0.1239
  394loPI   C1A 6295   8.082  15.356  10.012 -0.0216 -0.0064  0.2470
  394loPI   C2A 6296   8.103  15.220   9.632  0.0642 -0.2589 -0.0728
  394loPI   C3A 6297   8.008  15.203   9.270 -0.0227  0.4966 -0.4012
  394loPI   C4A 6298   8.043  15.314   8.783  0.2201 -0.1521  0.0652
  394loPI   C5A 6299   8.207  15.377   8.307 -0.0115  0.1327  0.1095
  394loPI   C6A 6300   8.010  15.530   7.973  0.0744  0.0547 -0.1355
  394loPI   C1B 6301   7.925  15.832   9.873 -0.0687 -0.1510  0.2878
  394loPI   C2B 6302   8.032  15.797   9.390 -0.0288 -0.0277 -0.0469
  394loPI   C3B 6303   7.982  15.782   8.941 -0.0179  0.4059 -0.0664
  394loPI   C4B 6304   7.845  15.791   8.527  0.0018  0.0169  0.2074
  395loPI    C1 6305   6.147   9.059  10.514 -0.2335  0.1906  0.1162
  395loPI    C2 6306   6.016   8.709  10.657 -0.0145  0.0472 -0.0267
  395loPI    C3 6307   6.303   8.909  10.850 -0.0253  0.0685 -0.0324
  395loPI   PO4 6308   6.238   9.090  10.252 -0.5568 -0.0114 -0.0254
  395loPI   GL1 6309   6.115   8.995   9.940 -0.0865 -0.3054 -0.1480
  395loPI   GL2 6310   5.827   8.779   9.726 -0.1051 -0.2680 -0.0068
  395loPI   C1A 6311   6.269   9.049   9.616  0.0418  0.1359  0.0847
  395loPI   C2A 6312   6.332   9.124   9.248 -0.1522  0.0953  0.2508
  395loPI   C3A 6313   6.298   9.133   8.774 -0.1079 -0.0381 -0.0096
  395loPI   C4A 6314   6.332   9.165   8.312 -0.0788 -0.0374 -0.1517
  395loPI   C5A 6315   6.637   9.333   8.035 -0.0913 -0.0740  0.2136
  395loPI   C6A 6316   6.687   9.609   7.590 -0.1875  0.0179  0.1300
  395loPI   C1B 6317   5.957   8.751   9.317 -0.0646  0.0708  0.0767
  395loPI   C2B 6318   5.947   8.743   8.844  0.0548 -0.1932 -0.2791
  395loPI   C3B 6319   5.942   8.819   8.403 -0.2280  0.1235  0.0395
  395loPI   C4B 6320   6.110   8.895   7.967  0.0290  0.2113 -0.2532
  396loPI    C1 6321  11.802   1.921  10.886 -0.0882  0.0357  0.0129
  396loPI    C2 6322  11.846   1.679  11.202  0.0682  0.0410 -0.0044
  396loPI    C3 6323  11.869   2.076  11.249  0.1952  0.0382 -0.0384
  396loPI   PO4 6324  11.801   1.735  10.659 -0.0058  0.0746  0.1773
  396loPI   GL1 6325  11.803   1.711  10.216  0.1163  0.1007  0.0936
  396loPI   GL2 6326  11.918   1.522   9.960  0.0793  0.1295 -0.1287
  396loPI   C1A 6327  11.541   1.964   9.881  0.3186 -0.1799 -0.0528
  396loPI   C2A 6328  11.571   1.954   9.518  0.0213  0.3160  0.1844
  396loPI   C3A 6329  11.458   1.873   9.180  0.4598 -0.4638  0.3227
  396loPI   C4A 6330  11.413   2.017   8.891 -0.0680  0.0573 -0.3534
  396loPI   C5A 6331  11.495   2.139   8.427  0.3553  0.1813  0.1741
  396loPI   C6A 6332  11.252   2.407   8.076  0.2996  0.3177  0.0166
  396loPI   C1B 6333  11.982   1.696   9.609  0.0539 -0.3547 -0.0793
  396loPI   C2B 6334  11.938   1.659   9.219  0.0947 -0.1434  0.0866
  396loPI   C3B 6335  11.898   1.804   8.890  0.1063 -0.2204 -0.2856
  396loPI   C4B 6336  11.915   1.877   8.377  0.2569  0.1404 -0.1110
  397loPI    C1 6337   9.667  15.564  11.130  0.1502 -0.1136  0.0584
  397loPI    C2 6338   9.491  15.205  11.141 -0.1824  0.0238 -0.4590
  397loPI    C3 6339   9.890  15.232  11.156 -0.1673 -0.3346  0.0183
  397loPI   PO4 6340   9.596  15.658  10.913 -0.2213  0.0760 -0.0487
  397loPI   GL1 6341   9.803  15.797  10.422 -0.3478 -0.2037  0.0011
  397loPI   GL2 6342  10.115  16.035  10.446 -0.1142 -0.0910  0.1151
  397loPI   C1A 6343   9.883  15.832   9.997 -0.1527 -0.2771  0.1189
  397loPI   C2A 6344   9.828  15.923   9.643 -0.0987  0.1019 -0.0900
  397loPI   C3A 6345   9.751  15.735   9.326  0.0412  0.1502  0.0846
  397loPI   C4A 6346   9.811  15.653   8.934 -0.0612 -0.1353 -0.1814
  397loPI   C5A 6347   9.831  15.559   8.609  0.2018 -0.4572  0.0791
  397loPI   C6A 6348  10.032  15.306   8.354 -0.0460  0.1656 -0.1713
  397loPI   C1B 6349  10.308  16.153  10.107 -0.3889 -0.0825  0.0312
  397loPI   C2B 6350  10.324  16.109   9.628  0.1973  0.1056 -0.2950
  397loPI   C3B 6351  10.194  16.059   9.166 -0.1227 -0.2390 -0.0139
  397loPI   C4B 6352  10.201  16.069   8.688  0.0986  0.0884 -0.2631
  398loPI    C1 6353  17.647   7.785  10.127 -0.0116  0.0926  0.2785
  398loPI    C2 6354  17.605   7.446  10.335 -0.2046  0.0167  0.1190
  398loPI    C3 6355  17.520   7.797  10.506 -0.1833 -0.0302  0.2264
  398loPI   PO4 6356  17.510   7.631   9.859  0.0221 -0.2015 -0.0030
  398loPI   GL1 6357  17.352   7.648   9.425 -0.0687 -0.1289 -0.4945
  398loPI   GL2 6358  17.409   7.416   9.321  0.3389  0.0621 -0.0550
  398loPI   C1A 6359  17.257   7.894   9.087 -0.1536  0.2125  0.1274
  398loPI   C2A 6360  17.132   8.019   8.584 -0.1199 -0.0448 -0.1850
  398loPI   C3A 6361  17.106   7.857   8.217  0.0323  0.1689 -0.1465
  398loPI   C4A 6362  16.743   7.882   7.953  0.0316  0.2442  0.3159
  398loPI   C5A 6363  16.373   7.855   7.546 -0.0102 -0.0731  0.1826
  398loPI   C6A 6364  16.222   7.519   7.234 -0.3660  0.1928 -0.1629
  398loPI   C1B 6365  17.296   7.367   8.964  0.0023  0.2220  0.3851
  398loPI   C2B 6366  17.140   7.290   8.498 -0.1852 -0.1878  0.0571
  398loPI   C3B 6367  16.922   7.335   8.184  0.1444 -0.2877 -0.4550
  398loPI   C4B 6368  16.680   7.432   7.749  0.2661  0.0357  0.1249
  399loPI    C1 6369  13.473   9.102  10.933  0.2976  0.2404 -0.0968
  399loPI    C2 6370  13.577   9.446  11.109  0.0109  0.2905 -0.0193
  399loPI    C3 6371  13.223   9.278  11.191  0.1270  0.0017 -0.0955
  399loPI   PO4 6372  13.637   9.070  10.703 -0.2277 -0.0057 -0.0865
  399loPI   GL1 6373  13.514   9.051  10.291  0.1323  0.0275 -0.1920
  399loPI   GL2 6374  13.184   9.103  10.214  0.0441 -0.0067 -0.2412
  399loPI   C1A 6375  13.456   8.904   9.857  0.2430  0.0398 -0.0113
  399loPI   C2A 6376  13.452   8.964   9.426 -0.1614  0.2363  0.3253
  399loPI   C3A 6377  13.358   8.951   9.030 -0.0211  0.2602  0.1240
  399loPI   C4A 6378  13.245   8.996   8.471 -0.0919  0.2054 -0.1350
  399loPI   C5A 6379  13.307   9.131   8.056  0.0112  0.1320  0.2423
  399loPI   C6A 6380  13.622   9.067   7.734 -0.1944  0.2033 -0.0414
  399loPI   C1B 6381  13.064   9.139   9.710  0.0037 -0.2785  0.0938
  399loPI   C2B 6382  13.006   9.124   9.278  0.0269 -0.0971 -0.0853
  399loPI   C3B 6383  12.899   9.105   8.856 -0.0392 -0.2942  0.2865
  399loPI   C4B 6384  12.779   9.275   8.434 -0.2618  0.1579 -0.0564
  400loPI    C1 6385  16.797  17.917  10.289 -0.1246  0.2094  0.0190
  400loPI    C2 6386  16.693  18.205  10.547 -0.0811 -0.1332  0.4305
  400loPI    C3 6387  16.918  17.898  10.670  0.0447 -0.2424 -0.0511
  400loPI   PO4 6388  16.789  18.038  10.084  0.1059  0.2136  0.1893
  400loPI   GL1 6389  16.772  17.776   9.717  0.1958  0.1439 -0.2350
  400loPI   GL2 6390  17.010  17.791   9.455  0.3890  0.2748  0.2760
  400loPI   C1A 6391  16.550  17.652   9.410 -0.0527  0.0678 -0.1451
  400loPI   C2A 6392  16.493  17.711   8.964  0.0563 -0.0287 -0.2604
  400loPI   C3A 6393  16.422  17.698   8.571 -0.3225  0.0765  0.1176
  400loPI   C4A 6394  16.511  17.808   8.059  0.3133 -0.1249 -0.1302
  400loPI   C5A 6395  16.464  17.817   7.606 -0.2063 -0.0374  0.3151
  400loPI   C6A 6396  16.536  17.850   7.095  0.0967  0.0690  0.0499
  400loPI   C1B 6397  16.915  18.009   9.111  0.1449  0.0637  0.4237
  400loPI   C2B 6398  16.800  18.082   8.703  0.0689  0.0767 -0.0196
  400loPI   C3B 6399  16.889  17.947   8.286 -0.0719 -0.5837 -0.0928
  400loPI   C4B 6400  17.052  17.673   7.955 -0.1128  0.0236 -0.3370
  401loPI    C1 6401  14.855  13.776  10.504 -0.2027 -0.1416  0.0697
  401loPI    C2 6402  14.838  13.984  10.845 -0.1232  0.0031 -0.0134
  401loPI    C3 6403  15.079  13.666  10.817 -0.0185  0.0789  0.0186
  401loPI   PO4 6404  14.852  14.051  10.326 -0.0589 -0.1534 -0.3364
  401loPI   GL1 6405  14.638  14.207  10.047 -0.0046  0.1187 -0.0017
  401loPI   GL2 6406  14.713  13.933   9.838  0.2718 -0.0095  0.1469
  401loPI   C1A 6407  14.488  14.421   9.599 -0.0007 -0.0529 -0.1753
  401loPI   C2A 6408  14.563  14.376   9.192  0.1470 -0.0210 -0.0242
  401loPI   C3A 6409  14.436  14.435   8.781  0.1451 -0.2996 -0.4371
  401loPI   C4A 6410  14.387  14.408   8.372 -0.1675  0.2436  0.3314
  401loPI   C5A 6411  14.602  14.527   7.971 -0.1504 -0.3367 -0.0270
  401loPI   C6A 6412  14.319  14.722   7.818 -0.2902 -0.3283 -0.1343
  401loPI   C1B 6413  14.569  13.873   9.429 -0.2353  0.1194  0.4797
  401loPI   C2B 6414  14.524  13.916   8.933 -0.1474 -0.0703  0.1017
  401loPI   C3B 6415  14.485  13.918   8.517  0.0637 -0.1339 -0.1648
  401loPI   C4B 6416  14.482  13.705   8.131  0.0025  0.1402 -0.0330
  402loPI    C1 6417   8.150  11.125  10.795 -0.1606  0.0731 -0.1593
  402loPI    C2 6418   8.316  11.458  10.940 -0.0750 -0.0746  0.0883
  402loPI    C3 6419   8.007  11.289  11.130  0.1474 -0.3646  0.1998
  402loPI   PO4 6420   8.127  11.122  10.478  0.1047 -0.0574  0.0567
  402loPI   GL1 6421   8.465  11.074  10.242 -0.1629 -0.0678  0.1113
  402loPI   GL2 6422   8.684  10.811  10.303 -0.0787 -0.0838 -0.4215
  402loPI   C1A 6423   8.417  11.334   9.879  0.0573  0.0164  0.0594
  402loPI   C2A 6424   8.567  11.463   9.449  0.1237  0.1768 -0.0828
  402loPI   C3A 6425   8.561  11.257   9.031  0.1772  0.0866  0.2022
  402loPI   C4A 6426   8.522  11.295   8.482 -0.0445 -0.1396  0.0301
  402loPI   C5A 6427   8.725  11.288   8.030 -0.2616  0.0168  0.2975
  402loPI   C6A 6428   9.135  11.362   7.691 -0.0819  0.0709  0.0330
  402loPI   C1B 6429   8.851  10.787   9.917  0.3210  0.3916 -0.0046
  402loPI   C2B 6430   8.795  10.892   9.521  0.1395 -0.0473 -0.0718
  402loPI   C3B 6431   8.617  10.795   9.155  0.2015  0.0590 -0.0247
  402loPI   C4B 6432   8.717  10.873   8.749  0.1748  0.1519 -0.2156
  403loPI    C1 6433  16.644  15.191  10.269 -0.2283  0.0177 -0.0517
  403loPI    C2 6434  16.895  14.886  10.204 -0.1753  0.0366  0.0628
  403loPI    C3 6435  16.576  14.836  10.440  0.0343  0.1685  0.3810
  403loPI   PO4 6436  16.584  15.289   9.989 -0.0478 -0.0572 -0.0369
  403loPI   GL1 6437  16.576  15.027   9.614  0.0224 -0.0443  0.1263
  403loPI   GL2 6438  16.429  15.241   9.464  0.2976  0.0420  0.1644
  403loPI   C1A 6439  16.709  14.760   9.216  0.2812  0.0606  0.0065
  403loPI   C2A 6440  16.673  14.893   8.734 -0.3310 -0.3477 -0.2039
  403loPI   C3A 6441  16.665  14.890   8.369 -0.3462  0.1203  0.1985
  403loPI   C4A 6442  16.461  15.258   8.156 -0.0247  0.3335  0.0967
  403loPI   C5A 6443  16.313  15.434   7.896 -0.0739 -0.2137  0.1553
  403loPI   C6A 6444  16.277  15.779   7.530  0.3092 -0.1583  0.0539
  403loPI   C1B 6445  16.357  15.234   9.065 -0.0640  0.0091 -0.1645
  403loPI   C2B 6446  16.227  15.292   8.618 -0.1918 -0.0113 -0.2940
  403loPI   C3B 6447  15.935  15.415   8.270  0.1197 -0.1028  0.0441
  403loPI   C4B 6448  15.763  15.325   7.891  0.0568  0.2438  0.1152
  404loPI    C1 6449  17.585  17.958  10.446 -0.1138 -0.0108 -0.0520
  404loPI    C2 6450  17.477  17.594  10.571 -0.1984  0.0040 -0.0814
  404loPI    C3 6451  17.365  17.918  10.777 -0.0576  0.0094 -0.0119
  404loPI   PO4 6452  17.601  17.925  10.083  0.0479  0.0035 -0.0139
  404loPI   GL1 6453  17.536  17.669   9.622 -0.3009 -0.0641 -0.2071
  404loPI   GL2 6454  17.831  17.474   9.586  0.1049 -0.1970  0.2022
  404loPI   C1A 6455  17.520  17.863   9.288  0.0352 -0.0028  0.1303
  404loPI   C2A 6456  17.377  17.875   8.933 -0.2601 -0.1556  0.1507
  404loPI   C3A 6457  17.346  17.895   8.434 -0.0888 -0.1123 -0.2377
  404loPI   C4A 6458  17.598  17.875   8.112  0.1386 -0.0271  0.0050
  404loPI   C5A 6459  17.964  18.075   7.796 -0.2088  0.2764 -0.1134
  404loPI   C6A 6460  18.191  18.214   7.475 -0.1002 -0.0256 -0.0238
  404loPI   C1B 6461  17.932  17.269   9.198 -0.1099 -0.2209 -0.0305
  404loPI   C2B 6462  18.058  17.241   8.799 -0.1826  0.0089  0.0323
  404loPI   C3B 6463  18.129  17.287   8.317 -0.0353  0.0302  0.0096
  404loPI   C4B 6464  18.088  17.559   7.947  0.2217 -0.1658 -0.1305
  405loPI    C1 6465  15.403   4.484  10.487  0.3109 -0.0015 -0.0037
  405loPI    C2 6466  15.409   4.859  10.627 -0.0161 -0.0201  0.0678
  405loPI    C3 6467  15.518   4.555  10.864 -0.1287 -0.0072  0.1367
  405loPI   PO4 6468  15.577   4.512  10.253 -0.1452  0.0532 -0.1484
  405loPI   GL1 6469  15.576   4.427   9.823 -0.2038 -0.1934  0.5251
  405loPI   GL2 6470  15.722   4.607   9.732  0.0006  0.1744  0.1164
  405loPI   C1A 6471  15.554   4.249   9.409  0.2226 -0.1536 -0.1649
  405loPI   C2A 6472  15.560   4.130   9.018  0.0296  0.2683  0.0516
  405loPI   C3A 6473  15.599   4.094   8.643 -0.0793 -0.0199 -0.0345
  405loPI   C4A 6474  15.447   4.020   8.201 -0.0374  0.0384 -0.1312
  405loPI   C5A 6475  15.369   3.660   7.886 -0.1645  0.1542  0.0336
  405loPI   C6A 6476  15.281   3.258   7.673 -0.2525  0.2126  0.0981
  405loPI   C1B 6477  15.548   4.720   9.310  0.1651 -0.3547 -0.1476
  405loPI   C2B 6478  15.413   4.556   8.819 -0.2474  0.2527  0.0492
  405loPI   C3B 6479  15.369   4.507   8.376  0.2425 -0.0697  0.1349
  405loPI   C4B 6480  15.230   4.392   7.885 -0.0792  0.1475  0.2768
  406loPI    C1 6481   9.186   1.355  11.139  0.0360  0.0462  0.0800
  406loPI    C2 6482   9.143   1.667  11.386  0.3156  0.1382  0.0161
  406loPI    C3 6483   9.288   1.320  11.524 -0.1631 -0.0257  0.1277
  406loPI   PO4 6484   9.157   1.460  10.873  0.1910 -0.0263  0.0302
  406loPI   GL1 6485   9.232   1.248  10.438  0.1697  0.0010  0.1307
  406loPI   GL2 6486   8.923   1.353  10.390  0.0324  0.1142  0.3078
  406loPI   C1A 6487   9.261   1.500  10.118 -0.0495 -0.1389  0.0190
  406loPI   C2A 6488   9.153   1.757   9.863 -0.3284  0.1686  0.2578
  406loPI   C3A 6489   9.196   1.791   9.433  0.4824 -0.2558  0.3488
  406loPI   C4A 6490   9.123   1.679   8.961 -0.1167  0.2195  0.0484
  406loPI   C5A 6491   9.137   1.602   8.462 -0.0711  0.3370 -0.1451
  406loPI   C6A 6492   9.082   1.321   8.143  0.0714 -0.0307 -0.1016
  406loPI   C1B 6493   8.753   1.292   9.943 -0.2815  0.3320  0.1661
  406loPI   C2B 6494   8.735   1.224   9.581 -0.0676  0.0261  0.1538
  406loPI   C3B 6495   8.744   1.241   9.141  0.0473  0.0128  0.0854
  406loPI   C4B 6496   8.742   1.343   8.754 -0.0074  0.0725  0.3452
  407loPI    C1 6497  14.013  10.824  10.860 -0.0237 -0.1374 -0.0810
  407loPI    C2 6498  13.760  11.051  11.071 -0.1249 -0.1839 -0.1519
  407loPI    C3 6499  13.798  10.662  11.156  0.1794 -0.1057  0.0871
  407loPI   PO4 6500  13.975  10.822  10.546 -0.2142  0.0121 -0.0657
  407loPI   GL1 6501  13.650  10.772  10.286  0.0680  0.0681 -0.0059
  407loPI   GL2 6502  13.380  10.946  10.198 -0.0973  0.1145  0.1384
  407loPI   C1A 6503  13.953  10.646   9.949  0.1241  0.1802 -0.1401
  407loPI   C2A 6504  14.042  10.664   9.514 -0.2537 -0.0423  0.3978
  407loPI   C3A 6505  13.930  10.753   9.097 -0.1292 -0.1757  0.2777
  407loPI   C4A 6506  13.830  10.637   8.729  0.0666  0.0925 -0.0390
  407loPI   C5A 6507  13.801  10.680   8.251  0.1182 -0.0771  0.0069
  407loPI   C6A 6508  13.760  10.935   7.927 -0.1881 -0.1515 -0.1433
  407loPI   C1B 6509  13.494  10.888   9.816 -0.0090 -0.0910 -0.2144
  407loPI   C2B 6510  13.592  10.801   9.494  0.0610  0.1439  0.1754
  407loPI   C3B 6511  13.423  10.824   9.093 -0.1303  0.0838  0.0564
  407loPI   C4B 6512  13.403  10.933   8.624  0.4456  0.1104 -0.2513
  408loPI    C1 6513   5.171   7.528  10.756 -0.0334 -0.0117 -0.2740
  408loPI    C2 6514   5.144   7.139  10.667 -0.0369 -0.0807  0.0200
  408loPI    C3 6515   5.014   7.273  11.021  0.0307  0.1772 -0.0509
  408loPI   PO4 6516   5.007   7.658  10.535  0.1895 -0.0380  0.0815
  408loPI   GL1 6517   4.961   7.299  10.176 -0.1008 -0.2253  0.2846
  408loPI   GL2 6518   4.909   7.419   9.873  0.0974  0.2583  0.1976
  408loPI   C1A 6519   5.052   6.877   9.994 -0.1604  0.0679  0.2731
  408loPI   C2A 6520   5.073   6.611   9.580 -0.0668 -0.2476  0.1418
  408loPI   C3A 6521   5.060   6.544   9.130 -0.0776 -0.0287  0.2069
  408loPI   C4A 6522   5.032   6.641   8.726 -0.0524  0.0583 -0.0950
  408loPI   C5A 6523   5.042   6.601   8.273 -0.0507  0.1831  0.2840
  408loPI   C6A 6524   5.009   6.395   7.878  0.0805  0.1479 -0.1612
  408loPI   C1B 6525   4.783   7.077   9.537 -0.2783 -0.1266  0.1292
  408loPI   C2B 6526   4.744   7.010   9.137 -0.1693 -0.3208 -0.1641
  408loPI   C3B 6527   4.808   7.069   8.799 -0.1707  0.0589 -0.0328
  408loPI   C4B 6528   4.948   7.137   8.448  0.1404 -0.2891  0.0831
  409loPI    C1 6529   7.861   9.716  10.647  0.2198 -0.0995  0.0042
  409loPI    C2 6530   7.718   9.399  10.846 -0.0954  0.1084  0.1157
  409loPI    C3 6531   7.829   9.728  11.046  0.0052  0.1566 -0.0180
  409loPI   PO4 6532   7.746   9.751  10.380 -0.0982 -0.0022 -0.1122
  409loPI   GL1 6533   7.959   9.404  10.014  0.3618  0.0722 -0.0408
  409loPI   GL2 6534   8.274   9.289  10.039 -0.2441 -0.2764  0.0232
  409loPI   C1A 6535   8.047   9.531   9.560  0.0861 -0.1942 -0.2140
  409loPI   C2A 6536   8.040   9.490   9.146  0.3895  0.1322 -0.1067
  409loPI   C3A 6537   7.965   9.510   8.740 -0.1196  0.2353 -0.2930
  409loPI   C4A 6538   7.990   9.527   8.363 -0.0024  0.0037 -0.0483
  409loPI   C5A 6539   8.031   9.606   8.030 -0.6062 -0.0727  0.0311
  409loPI   C6A 6540   7.805   9.972   7.793  0.3385  0.2067 -0.0763
  409loPI   C1B 6541   8.234   9.038   9.676  0.3325  0.1536  0.1406
  409loPI   C2B 6542   8.155   8.967   9.210  0.0162 -0.1040  0.4109
  409loPI   C3B 6543   8.182   9.030   8.843  0.4326  0.1369  0.2119
  409loPI   C4B 6544   8.126   9.020   8.463 -0.1069  0.0128 -0.0127
  410loPI    C1 6545   2.407   5.790  10.275 -0.3156 -0.1369  0.1547
  410loPI    C2 6546   2.222   6.144  10.265  0.0653  0.0721  0.3006
  410loPI    C3 6547   2.100   5.862  10.521 -0.3048  0.0565  0.1129
  410loPI   PO4 6548   2.590   5.846   9.973 -0.1495  0.2675  0.1145
  410loPI   GL1 6549   2.577   5.861   9.535  0.0050  0.0132  0.0121
  410loPI   GL2 6550   2.692   5.474   9.637 -0.1005 -0.0920  0.2284
  410loPI   C1A 6551   2.611   5.872   9.071 -0.0227  0.3722  0.0848
  410loPI   C2A 6552   2.435   5.905   8.726  0.0098 -0.0597  0.0081
  410loPI   C3A 6553   2.235   6.139   8.314  0.1215 -0.1191 -0.0423
  410loPI   C4A 6554   2.039   6.063   7.920 -0.2459  0.2529  0.1847
  410loPI   C5A 6555   1.924   5.949   7.583 -0.2462  0.0419 -0.1706
  410loPI   C6A 6556   1.521   5.873   7.308  0.1530  0.1351  0.0993
  410loPI   C1B 6557   2.861   5.448   9.323 -0.0054  0.1801  0.2440
  410loPI   C2B 6558   2.794   5.464   8.911  0.1752 -0.2566  0.0936
  410loPI   C3B 6559   2.797   5.448   8.420 -0.0827  0.1188  0.1734
  410loPI   C4B 6560   2.680   5.275   8.019  0.2438 -0.2909  0.0139
  411loPI    C1 6561  12.773   4.675  10.800  0.2239  0.1014 -0.1289
  411loPI    C2 6562  12.638   4.845  11.135  0.2117  0.0274 -0.0964
  411loPI    C3 6563  12.420   4.564  10.951  0.2103  0.0804 -0.1758
  411loPI   PO4 6564  13.010   4.805  10.662  0.0874  0.3732 -0.0321
  411loPI   GL1 6565  12.847   4.936  10.308  0.1168 -0.0810  0.1306
  411loPI   GL2 6566  13.085   4.997  10.261  0.0914  0.0885 -0.1460
  411loPI   C1A 6567  12.551   4.946   9.967 -0.0042  0.3380 -0.0864
  411loPI   C2A 6568  12.597   4.978   9.495 -0.1478 -0.0668 -0.2493
  411loPI   C3A 6569  12.666   4.934   9.118 -0.2978 -0.1686 -0.0328
  411loPI   C4A 6570  12.595   4.819   8.674  0.0429 -0.0069 -0.1597
  411loPI   C5A 6571  12.511   5.154   8.375 -0.1270 -0.0120  0.0013
  411loPI   C6A 6572  12.118   5.364   8.222  0.0221  0.0431  0.2365
  411loPI   C1B 6573  13.099   4.837   9.842 -0.1255  0.0272 -0.1018
  411loPI   C2B 6574  13.094   4.815   9.437  0.2770 -0.3846 -0.0508
  411loPI   C3B 6575  13.102   4.821   8.938 -0.1189  0.2023  0.1264
  411loPI   C4B 6576  13.035   4.793   8.468 -0.1348  0.0423 -0.2419
  412loPI    C1 6577  11.023   6.047  10.936 -0.1620 -0.0224 -0.1396
  412loPI    C2 6578  10.880   5.674  10.954  0.2900 -0.1904  0.1249
  412loPI    C3 6579  11.112   5.785  10.647  0.0707 -0.0918 -0.0074
  412loPI   PO4 6580  10.732   6.193  10.930  0.2700 -0.0899  0.1219
  412loPI   GL1 6581  10.668   6.215  10.570 -0.0296 -0.1925 -0.0185
  412loPI   GL2 6582  11.043   6.325  10.513 -0.1734 -0.0478 -0.0046
  412loPI   C1A 6583  10.763   5.994  10.233  0.1658 -0.3351  0.0996
  412loPI   C2A 6584  10.859   5.931   9.778  0.2667  0.0566 -0.3348
  412loPI   C3A 6585  10.864   5.898   9.361  0.0621  0.1239 -0.1825
  412loPI   C4A 6586  10.789   6.028   8.938  0.1246  0.0986 -0.1240
  412loPI   C5A 6587  10.810   5.752   8.552 -0.0217  0.2193 -0.0314
  412loPI   C6A 6588  10.540   5.493   8.321  0.2019 -0.0960  0.3319
  412loPI   C1B 6589  11.321   6.393  10.035  0.0849 -0.0449 -0.0079
  412loPI   C2B 6590  11.206   6.313   9.578 -0.2637  0.2909 -0.0119
  412loPI   C3B 6591  11.306   6.298   9.128  0.1948  0.0214 -0.1362
  412loPI   C4B 6592  11.153   6.259   8.694 -0.0450  0.1078 -0.2328
  413loPI    C1 6593   3.842  13.533   9.792 -0.1921  0.2660 -0.1059
  413loPI    C2 6594   3.640  13.657  10.114 -0.0182 -0.0136  0.1156
  413loPI    C3 6595   3.808  13.294  10.111  0.0481  0.0166 -0.2626
  413loPI   PO4 6596   3.948  13.734   9.706 -0.2691 -0.0593 -0.2563
  413loPI   GL1 6597   3.851  13.808   9.308  0.0816 -0.0170  0.1703
  413loPI   GL2 6598   3.842  13.429   9.295 -0.0462 -0.1387  0.2925
  413loPI   C1A 6599   4.168  13.765   8.876  0.2675  0.0545 -0.0534
  413loPI   C2A 6600   4.313  13.544   8.529  0.1518 -0.0306 -0.0460
  413loPI   C3A 6601   4.301  13.478   8.084  0.4428 -0.0128 -0.2284
  413loPI   C4A 6602   4.224  13.382   7.717  0.1140  0.3414 -0.1508
  413loPI   C5A 6603   4.094  12.959   7.555  0.1166  0.1805  0.2465
  413loPI   C6A 6604   3.987  12.646   7.361 -0.1698 -0.1790 -0.0419
  413loPI   C1B 6605   3.918  13.290   8.796 -0.0424  0.0084 -0.2103
  413loPI   C2B 6606   3.965  13.158   8.398  0.4537 -0.1078 -0.1587
  413loPI   C3B 6607   3.808  13.103   8.044 -0.0018 -0.1223  0.0497
  413loPI   C4B 6608   3.600  13.049   7.656 -0.3090  0.3022  0.1960
  414loPI    C1 6609  14.155   8.607  10.682 -0.0176 -0.0718 -0.0758
  414loPI    C2 6610  14.270   8.966  10.550 -0.1042 -0.0442 -0.0771
  414loPI    C3 6611  14.424   8.819  10.888 -0.0178 -0.0357 -0.1125
  414loPI   PO4 6612  14.182   8.417  10.428  0.2648 -0.4075 -0.1165
  414loPI   GL1 6613  13.976   8.290  10.029 -0.2110  0.0319  0.0076
  414loPI   GL2 6614  14.258   8.329   9.975 -0.0151 -0.2739 -0.1180
  414loPI   C1A 6615  13.630   8.423   9.785  0.0946 -0.3147  0.1286
  414loPI   C2A 6616  13.592   8.457   9.340  0.0377 -0.3064  0.1568
  414loPI   C3A 6617  13.464   8.444   8.945  0.2874  0.0021  0.1686
  414loPI   C4A 6618  13.522   8.403   8.444  0.3189 -0.2018  0.0271
  414loPI   C5A 6619  13.359   8.626   8.078 -0.0720 -0.2326  0.0810
  414loPI   C6A 6620  13.164   8.678   7.693  0.1170  0.0627  0.1637
  414loPI   C1B 6621  14.280   8.342   9.533 -0.0529 -0.0773 -0.0595
  414loPI   C2B 6622  14.043   8.248   9.169  0.2000 -0.0305 -0.0581
  414loPI   C3B 6623  13.944   8.375   8.806  0.4435 -0.2877  0.0784
  414loPI   C4B 6624  14.006   8.466   8.312  0.0161  0.3257 -0.2789
  415loPI    C1 6625   5.340  17.401  11.063  0.0605  0.0274 -0.1501
  415loPI    C2 6626   5.402  17.795  11.078 -0.0615  0.0482 -0.1734
  415loPI    C3 6627   5.400  17.581  11.415 -0.0695  0.0790 -0.1538
  415loPI   PO4 6628   5.589  17.285  10.824  0.1218 -0.1012  0.1047
  415loPI   GL1 6629   5.795  17.327  10.448 -0.0023  0.1566 -0.1587
  415loPI   GL2 6630   5.897  17.036  10.489 -0.0923  0.0494 -0.2151
  415loPI   C1A 6631   5.583  17.428  10.008 -0.5343 -0.1034 -0.3688
  415loPI   C2A 6632   5.566  17.462   9.503 -0.1080  0.1341  0.1151
  415loPI   C3A 6633   5.571  17.422   9.079 -0.0869 -0.1292 -0.1707
  415loPI   C4A 6634   5.713  17.415   8.670  0.1454 -0.2304  0.1306
  415loPI   C5A 6635   5.686  17.516   8.229 -0.0714 -0.2738  0.3326
  415loPI   C6A 6636   5.606  17.250   7.900 -0.1249  0.1575  0.0383
  415loPI   C1B 6637   5.705  16.896  10.109  0.1067 -0.3932  0.0288
  415loPI   C2B 6638   5.705  16.999   9.673 -0.3260 -0.0338 -0.0275
  415loPI   C3B 6639   5.747  17.005   9.371  0.1395 -0.1372 -0.3031
  415loPI   C4B 6640   5.802  16.973   8.893 -0.1836  0.3225 -0.5218
  416loPI    C1 6641   6.896   7.759  10.674 -0.3050 -0.0199 -0.1836
  416loPI    C2 6642   6.714   7.905  10.998  0.0868 -0.1185  0.0873
  416loPI    C3 6643   6.563   7.585  10.811 -0.2389  0.0456  0.0639
  416loPI   PO4 6644   6.999   7.913  10.419  0.1455 -0.2748 -0.2276
  416loPI   GL1 6645   7.096   8.152  10.055 -0.0720 -0.0896 -0.1300
  416loPI   GL2 6646   6.845   8.335  10.180  0.1570  0.1504 -0.1531
  416loPI   C1A 6647   7.066   7.958   9.611  0.3147  0.0063 -0.2001
  416loPI   C2A 6648   7.075   7.933   9.196 -0.3976 -0.2108  0.0873
  416loPI   C3A 6649   6.981   8.036   8.700 -0.0076  0.0330 -0.0047
  416loPI   C4A 6650   6.934   8.031   8.248 -0.2442  0.3179 -0.4066
  416loPI   C5A 6651   7.063   7.932   7.902  0.0365 -0.3725  0.1183
  416loPI   C6A 6652   7.296   8.023   7.536 -0.2519  0.0790  0.0768
  416loPI   C1B 6653   6.858   8.482   9.719 -0.0921  0.0062 -0.0124
  416loPI   C2B 6654   7.012   8.400   9.366 -0.0833  0.0420  0.0386
  416loPI   C3B 6655   6.893   8.439   8.954 -0.0269  0.2151 -0.0792
  416loPI   C4B 6656   6.906   8.464   8.501  0.2522  0.0338 -0.0901
  417loPI    C1 6657   5.196  14.380  10.070  0.0490  0.0956 -0.3247
  417loPI    C2 6658   4.830  14.443   9.922  0.0231  0.0017 -0.3013
  417loPI    C3 6659   4.889  14.447  10.318  0.0103 -0.1718 -0.2969
  417loPI   PO4 6660   5.290  14.592   9.827 -0.5220  0.4264  0.1341
  417loPI   GL1 6661   5.693  14.655   9.582 -0.5109  0.1466 -0.1072
  417loPI   GL2 6662   5.988  14.743   9.654 -0.1894  0.1269  0.1567
  417loPI   C1A 6663   5.900  14.539   9.184  0.1361  0.1985  0.1169
  417loPI   C2A 6664   5.964  14.510   8.848  0.2503 -0.0283  0.3938
  417loPI   C3A 6665   5.974  14.600   8.401 -0.2400 -0.0661  0.1482
  417loPI   C4A 6666   5.965  14.548   7.978 -0.1251 -0.1302 -0.0360
  417loPI   C5A 6667   6.145  14.768   7.805 -0.2248 -0.0435  0.3555
  417loPI   C6A 6668   5.949  15.128   7.609 -0.0183  0.4040  0.2164
  417loPI   C1B 6669   5.827  15.084   9.388  0.0376  0.0236  0.1387
  417loPI   C2B 6670   5.830  15.088   9.007  0.1625  0.1784 -0.0677
  417loPI   C3B 6671   5.882  15.128   8.581  0.4371  0.1509  0.2552
  417loPI   C4B 6672   5.780  15.051   8.119  0.2099 -0.2666 -0.2145
  418loPI    C1 6673  16.382   0.456  10.611 -0.2895  0.0643 -0.1223
  418loPI    C2 6674  16.426   0.852  10.643  0.2209  0.0182 -0.1602
  418loPI    C3 6675  16.577   0.610  10.924 -0.0989 -0.1532 -0.1307
  418loPI   PO4 6676  16.397   0.439  10.307  0.3101 -0.1413  0.2918
  418loPI   GL1 6677  16.172   0.454   9.924  0.1062 -0.0045  0.1922
  418loPI   GL2 6678  16.326   0.692   9.771  0.2510  0.1248  0.2582
  418loPI   C1A 6679  15.904   0.417   9.619  0.3137 -0.2675  0.0563
  418loPI   C2A 6680  15.692   0.315   9.182  0.0438 -0.2931 -0.3524
  418loPI   C3A 6681  15.564   0.411   8.707 -0.2268 -0.0028 -0.1471
  418loPI   C4A 6682  15.430   0.190   8.256  0.0257  0.0536  0.1189
  418loPI   C5A 6683  15.526   0.038   7.873 -0.2232  0.0875  0.2120
  418loPI   C6A 6684  15.865   0.127   7.585  0.2464  0.2541 -0.2151
  418loPI   C1B 6685  16.164   0.659   9.325  0.0019  0.1639  0.0915
  418loPI   C2B 6686  15.991   0.732   8.922 -0.0945 -0.1496  0.0583
  418loPI   C3B 6687  15.916   0.626   8.446 -0.1861 -0.1524  0.0056
  418loPI   C4B 6688  15.752   0.545   8.058 -0.1802  0.2678 -0.0146
  419loPI    C1 6689  17.916  11.316   9.926 -0.0360  0.1036 -0.1077
  419loPI    C2 6690  18.189  11.483  10.165 -0.0909  0.0993 -0.0418
  419loPI    C3 6691  17.870  11.299  10.323 -0.0972  0.0456 -0.1170
  419loPI   PO4 6692  18.030  11.339   9.640  0.3475  0.1361 -0.1561
  419loPI   GL1 6693  18.049  11.126   9.260  0.1593 -0.1044  0.0437
  419loPI   GL2 6694  17.694  11.119   9.144 -0.1498  0.0129  0.0494
  419loPI   C1A 6695  18.138  10.981   8.851 -0.1718  0.0610 -0.2677
  419loPI   C2A 6696  18.032  10.686   8.629 -0.2904  0.1161 -0.1927
  419loPI   C3A 6697  17.750  10.699   8.143  0.1902 -0.1833 -0.0120
  419loPI   C4A 6698  17.482  10.906   7.813  0.0910 -0.1311  0.0022
  419loPI   C5A 6699  17.311  11.230   7.676 -0.1642 -0.1980  0.0594
  419loPI   C6A 6700  17.453  11.590   7.345 -0.4627 -0.0079 -0.1343
  419loPI   C1B 6701  17.649  11.052   8.712  0.0085  0.0368 -0.2485
  419loPI   C2B 6702  17.440  11.273   8.310  0.2429 -0.2121 -0.2607
  419loPI   C3B 6703  17.376  11.634   7.923  0.2039  0.1318  0.1467
  419loPI   C4B 6704  17.392  12.103   7.782  0.3346 -0.1068 -0.1347
  420loPI    C1 6705  15.516  17.401  10.489 -0.1776 -0.0763  0.0312
  420loPI    C2 6706  15.190  17.481  10.707 -0.1784  0.2702 -0.0907
  420loPI    C3 6707  15.509  17.721  10.729  0.0947 -0.0975  0.0703
  420loPI   PO4 6708  15.414  17.412  10.112 -0.3818 -0.0009 -0.0818
  420loPI   GL1 6709  15.150  17.558   9.801  0.2358 -0.0470  0.2475
  420loPI   GL2 6710  15.309  17.874   9.819 -0.3206 -0.0956  0.0334
  420loPI   C1A 6711  15.144  17.511   9.324 -0.1774  0.2164 -0.1584
  420loPI   C2A 6712  15.018  17.601   8.900  0.0188  0.0923 -0.0043
  420loPI   C3A 6713  14.880  17.575   8.488  0.4305  0.1351  0.0335
  420loPI   C4A 6714  14.823  17.566   8.074  0.4401 -0.0100 -0.1892
  420loPI   C5A 6715  15.183  17.529   7.684  0.1965 -0.4265 -0.1809
  420loPI   C6A 6716  15.554  17.453   7.483 -0.0654 -0.0844  0.1621
  420loPI   C1B 6717  15.054  17.960   9.492 -0.0359 -0.4156  0.0792
  420loPI   C2B 6718  14.988  18.037   9.105 -0.3538  0.1828  0.1351
  420loPI   C3B 6719  14.783  18.055   8.789  0.0030  0.3218  0.1133
  420loPI   C4B 6720  14.775  18.025   8.342 -0.2656 -0.3042  0.1677
  421loPI    C1 6721   4.334  11.180  10.081  0.0945  0.0606  0.2167
  421loPI    C2 6722   4.162  10.825  10.149 -0.1085  0.1075 -0.0368
  421loPI    C3 6723   4.555  10.871  10.205 -0.0747 -0.1665 -0.0363
  421loPI   PO4 6724   4.226  11.250   9.868 -0.1182  0.1162  0.0623
  421loPI   GL1 6725   4.051  10.921   9.675  0.0788 -0.3751  0.0203
  421loPI   GL2 6726   4.090  10.647   9.654 -0.4759 -0.1697 -0.0292
  421loPI   C1A 6727   3.969  11.145   9.289 -0.1418 -0.3633  0.0849
  421loPI   C2A 6728   4.002  10.860   8.836 -0.0250  0.2873  0.0714
  421loPI   C3A 6729   4.086  10.831   8.458  0.1382  0.1561  0.1457
  421loPI   C4A 6730   4.135  10.743   8.104  0.1501 -0.0029  0.1207
  421loPI   C5A 6731   4.131  10.716   7.685  0.0569  0.3171 -0.1968
  421loPI   C6A 6732   4.196  10.742   7.309 -0.2377  0.0625 -0.1382
  421loPI   C1B 6733   4.252  10.706   9.249  0.1826 -0.0730 -0.1189
  421loPI   C2B 6734   4.518  10.726   8.896  0.1797 -0.4251  0.1524
  421loPI   C3B 6735   4.576  10.681   8.440 -0.3793  0.0388  0.0363
  421loPI   C4B 6736   4.543  10.633   7.942 -0.2610  0.5215  0.0508
  422loPI    C1 6737   4.044  17.709  10.479  0.1381  0.1449 -0.2096
  422loPI    C2 6738   4.008  17.396  10.233  0.2496  0.1863 -0.2796
  422loPI    C3 6739   4.144  17.343  10.606  0.0434  0.1177 -0.2129
  422loPI   PO4 6740   4.135  17.932  10.279 -0.1409  0.0025  0.0525
  422loPI   GL1 6741   4.085  18.055   9.860 -0.0599  0.2259 -0.2994
  422loPI   GL2 6742   3.902  17.859   9.636 -0.0051 -0.3780 -0.0202
  422loPI   C1A 6743   4.405  18.203   9.529 -0.1039 -0.0775  0.0230
  422loPI   C2A 6744   4.431  18.239   9.134 -0.3811  0.1235  0.0147
  422loPI   C3A 6745   4.580  18.286   8.696 -0.1586  0.0114 -0.2546
  422loPI   C4A 6746   4.525  18.385   8.345  0.1505  0.0763 -0.1357
  422loPI   C5A 6747   4.254  18.426   8.011  0.1790 -0.0700 -0.0576
  422loPI   C6A 6748   4.066  18.307   7.656 -0.1775 -0.3554  0.1151
  422loPI   C1B 6749   4.026  17.913   9.167 -0.0705 -0.2818  0.1081
  422loPI   C2B 6750   4.074  17.980   8.751 -0.0795 -0.0448 -0.3283
  422loPI   C3B 6751   4.347  17.902   8.346 -0.0296  0.0558  0.2060
  422loPI   C4B 6752   4.230  17.973   7.938 -0.3436  0.2473  0.2440
  423loPI    C1 6753  17.272   6.230   9.919  0.2637  0.2217  0.0071
  423loPI    C2 6754  17.616   6.180  10.118  0.2247  0.1898  0.0670
  423loPI    C3 6755  17.305   5.940  10.193  0.1793  0.2382  0.0349
  423loPI   PO4 6756  17.298   6.194   9.689 -0.1124 -0.0721 -0.0358
  423loPI   GL1 6757  17.454   6.045   9.304 -0.3452  0.3317 -0.0153
  423loPI   GL2 6758  17.427   6.427   9.309 -0.2330 -0.0915  0.0249
  423loPI   C1A 6759  17.272   6.059   8.902  0.1140 -0.2836 -0.4001
  423loPI   C2A 6760  17.065   6.090   8.531 -0.3462  0.1078  0.2760
  423loPI   C3A 6761  17.050   6.260   8.150 -0.1384  0.0629 -0.0322
  423loPI   C4A 6762  16.904   6.364   7.688  0.1142 -0.0651 -0.1401
  423loPI   C5A 6763  17.025   6.319   7.316  0.2514  0.0401  0.0511
  423loPI   C6A 6764  17.004   5.927   6.990 -0.0800 -0.1938 -0.0393
  423loPI   C1B 6765  17.073   6.523   8.972 -0.2420  0.0368  0.1699
  423loPI   C2B 6766  16.876   6.528   8.613 -0.1785 -0.2461  0.1114
  423loPI   C3B 6767  16.627   6.525   8.178  0.0752  0.3028 -0.2658
  423loPI   C4B 6768  16.496   6.656   7.819  0.0460  0.1505 -0.0902
  424loPI    C1 6769   6.899   7.226  10.702 -0.1754  0.1472  0.2472
  424loPI    C2 6770   7.181   6.945  10.732 -0.5036 -0.2027  0.1368
  424loPI    C3 6771   7.137   7.216  11.023  0.1700  0.0796 -0.0057
  424loPI   PO4 6772   6.919   7.304  10.430  0.2130  0.0690 -0.0814
  424loPI   GL1 6773   7.157   7.507  10.158 -0.1253 -0.0965  0.3370
  424loPI   GL2 6774   6.850   7.650   9.891 -0.2330  0.1868 -0.0813
  424loPI   C1A 6775   7.229   7.392   9.712 -0.2063  0.0514  0.0390
  424loPI   C2A 6776   7.171   7.448   9.289  0.1702  0.1693  0.1148
  424loPI   C3A 6777   7.187   7.502   8.829  0.1340 -0.2663 -0.0458
  424loPI   C4A 6778   7.089   7.538   8.368  0.3064 -0.1533 -0.0387
  424loPI   C5A 6779   7.265   7.159   8.277 -0.0780 -0.2211  0.1690
  424loPI   C6A 6780   7.630   7.028   8.217  0.0824  0.1442 -0.0034
  424loPI   C1B 6781   6.699   7.657   9.414 -0.0520  0.2027  0.0150
  424loPI   C2B 6782   6.731   7.614   9.003  0.1967  0.2211 -0.0170
  424loPI   C3B 6783   6.631   7.692   8.575 -0.1761 -0.0769  0.0413
  424loPI   C4B 6784   6.665   7.568   8.177 -0.2614 -0.0678  0.0442
  425loPI    C1 6785   9.950   2.088  10.930  0.3848 -0.0123 -0.2336
  425loPI    C2 6786   9.840   2.392  11.165  0.0553 -0.0607 -0.3201
  425loPI    C3 6787   9.830   2.017  11.305  0.4061 -0.0411 -0.2322
  425loPI   PO4 6788   9.868   2.226  10.685 -0.3372 -0.0029 -0.2797
  425loPI   GL1 6789  10.134   2.195  10.357 -0.1669 -0.0988 -0.0896
  425loPI   GL2 6790   9.917   2.452  10.293 -0.2189  0.0008  0.2804
  425loPI   C1A 6791  10.437   2.237  10.022 -0.0257  0.1244 -0.0955
  425loPI   C2A 6792  10.533   2.286   9.606 -0.2131  0.0178 -0.0177
  425loPI   C3A 6793  10.366   2.289   9.228 -0.1162 -0.0547 -0.0855
  425loPI   C4A 6794  10.377   2.268   8.866  0.0847  0.4807 -0.1087
  425loPI   C5A 6795  10.395   2.108   8.473 -0.0902 -0.0486 -0.1077
  425loPI   C6A 6796  10.413   2.117   8.086 -0.1713  0.2041 -0.2294
  425loPI   C1B 6797   9.959   2.389   9.884  0.3336  0.2561  0.0232
  425loPI   C2B 6798   9.966   2.398   9.467  0.2372  0.0774 -0.1692
  425loPI   C3B 6799   9.896   2.420   9.011  0.0377  0.2089  0.2748
  425loPI   C4B 6800   9.979   2.351   8.592  0.1957  0.0182  0.0223
  426loPI    C1 6801   1.267   7.606  10.030  0.0371 -0.1156 -0.0693
  426loPI    C2 6802   1.135   7.296  10.245 -0.2968  0.0395 -0.0447
  426loPI    C3 6803   1.401   7.549  10.403 -0.1719 -0.1223  0.0062
  426loPI   PO4 6804   1.465   7.521   9.837  0.2083  0.1506 -0.0401
  426loPI   GL1 6805   1.506   7.519   9.429  0.2048  0.2296  0.1781
  426loPI   GL2 6806   1.551   7.761   9.192 -0.1383 -0.1707  0.2664
  426loPI   C1A 6807   1.346   7.347   9.048  0.2375  0.0817  0.2639
  426loPI   C2A 6808   1.142   7.094   8.727 -0.0836 -0.1881  0.1259
  426loPI   C3A 6809   1.225   6.839   8.399  0.0001  0.3930 -0.2706
  426loPI   C4A 6810   1.243   6.576   8.104  0.1025  0.0511  0.1835
  426loPI   C5A 6811   1.271   6.680   7.707  0.1699  0.1231  0.1437
  426loPI   C6A 6812   1.052   6.533   7.297 -0.1815  0.0183 -0.0305
  426loPI   C1B 6813   1.686   7.541   8.777  0.1880 -0.0878 -0.0394
  426loPI   C2B 6814   1.637   7.529   8.354  0.0870 -0.0391 -0.0057
  426loPI   C3B 6815   1.714   7.494   7.858  0.1001  0.2862  0.0327
  426loPI   C4B 6816   1.538   7.490   7.402 -0.0906 -0.1998 -0.1840
  427loPI    C1 6817  14.631  12.403  10.524 -0.1723  0.0639 -0.0049
  427loPI    C2 6818  14.693  12.272  10.897 -0.1892  0.3207  0.0897
  427loPI    C3 6819  14.997  12.420  10.684 -0.1656  0.1100 -0.0248
  427loPI   PO4 6820  14.576  12.180  10.393 -0.0808  0.5038  0.0205
  427loPI   GL1 6821  14.485  12.221   9.968  0.1902 -0.4198 -0.0153
  427loPI   GL2 6822  14.788  12.341   9.899 -0.0487  0.0339 -0.2233
  427loPI   C1A 6823  14.450  12.481   9.624 -0.2401 -0.0131 -0.0837
  427loPI   C2A 6824  14.470  12.505   9.193 -0.0066 -0.1541  0.1154
  427loPI   C3A 6825  14.367  12.469   8.805  0.0578  0.0513  0.3718
  427loPI   C4A 6826  14.244  12.458   8.350  0.1298 -0.1609  0.0499
  427loPI   C5A 6827  14.413  12.727   7.964  0.0128  0.0715  0.1789
  427loPI   C6A 6828  14.755  12.801   7.714  0.0692 -0.0287 -0.1095
  427loPI   C1B 6829  14.890  12.320   9.426 -0.1175  0.0857  0.3283
  427loPI   C2B 6830  14.886  12.324   8.918 -0.0701 -0.3104 -0.3267
  427loPI   C3B 6831  14.730  12.361   8.424  0.3070  0.2940 -0.0765
  427loPI   C4B 6832  14.760  12.314   7.989 -0.1543 -0.1743  0.0073
  428loPI    C1 6833   6.123   9.911  10.387 -0.0293  0.1367 -0.0885
  428loPI    C2 6834   6.199  10.011  10.766 -0.2187  0.1336 -0.0488
  428loPI    C3 6835   5.893   9.768  10.681  0.0386 -0.1538 -0.1730
  428loPI   PO4 6836   6.205  10.288  10.315 -0.1690 -0.2293  0.0657
  428loPI   GL1 6837   6.554  10.495  10.000  0.1107  0.2171  0.2566
  428loPI   GL2 6838   6.846  10.789  10.021  0.1374  0.0622 -0.3945
  428loPI   C1A 6839   6.440  10.640   9.509 -0.0374 -0.1454  0.0833
  428loPI   C2A 6840   6.383  10.522   9.017 -0.0170 -0.0962  0.0519
  428loPI   C3A 6841   6.424  10.452   8.557  0.2578 -0.0929  0.0680
  428loPI   C4A 6842   6.507  10.532   8.171 -0.2861 -0.2482 -0.1943
  428loPI   C5A 6843   6.751  10.716   7.876  0.0097  0.1213 -0.1467
  428loPI   C6A 6844   6.955  10.701   7.416  0.1616 -0.2936 -0.2141
  428loPI   C1B 6845   6.914  10.829   9.599  0.1736  0.0528  0.3121
  428loPI   C2B 6846   6.818  10.780   9.236 -0.3448  0.1779 -0.1257
  428loPI   C3B 6847   6.756  10.908   8.862 -0.0569  0.1008 -0.1515
  428loPI   C4B 6848   6.846  10.898   8.411  0.1130 -0.2878  0.0626
  429loPI    C1 6849   7.101  16.489  10.677  0.1855 -0.0327  0.1067
  429loPI    C2 6850   7.305  16.161  10.779  0.2262  0.0387  0.2597
  429loPI    C3 6851   6.954  16.128  10.589  0.3184 -0.0877  0.1081
  429loPI   PO4 6852   7.353  16.612  10.603 -0.2604  0.2719 -0.2273
  429loPI   GL1 6853   7.381  16.849  10.241  0.1617 -0.0526 -0.0529
  429loPI   GL2 6854   7.463  17.213  10.173 -0.0808 -0.1697  0.0855
  429loPI   C1A 6855   7.571  16.812   9.858 -0.0605  0.0023 -0.0558
  429loPI   C2A 6856   7.723  16.781   9.556  0.0654 -0.2419 -0.3442
  429loPI   C3A 6857   7.674  16.761   9.125 -0.0635  0.1859  0.1417
  429loPI   C4A 6858   7.688  16.758   8.732 -0.1384 -0.2051 -0.0392
  429loPI   C5A 6859   7.583  16.604   8.388 -0.2303  0.0810 -0.2388
  429loPI   C6A 6860   7.243  16.530   8.107 -0.2066  0.0547 -0.2524
  429loPI   C1B 6861   7.572  17.284   9.794 -0.2253 -0.4814 -0.1904
  429loPI   C2B 6862   7.478  17.267   9.356 -0.1381  0.2352 -0.1554
  429loPI   C3B 6863   7.618  17.366   8.928  0.1448  0.0087  0.1624
  429loPI   C4B 6864   7.497  17.405   8.450 -0.4928 -0.0401  0.1525
  430loPI    C1 6865   3.172   7.123  10.203 -0.1225  0.0999 -0.0807
  430loPI    C2 6866   3.157   7.008  10.586 -0.1386 -0.0555 -0.1273
  430loPI    C3 6867   2.821   7.024  10.369 -0.1305  0.0399 -0.1331
  430loPI   PO4 6868   3.269   7.024  10.085  0.2296 -0.0299  0.0011
  430loPI   GL1 6869   3.392   7.062   9.700  0.0923 -0.0828  0.0283
  430loPI   GL2 6870   3.122   7.022   9.586 -0.0178  0.2627  0.3818
  430loPI   C1A 6871   3.693   7.344   9.507 -0.2910  0.4382  0.0801
  430loPI   C2A 6872   3.818   7.440   9.037 -0.2863 -0.1661 -0.2133
  430loPI   C3A 6873   3.952   7.365   8.588 -0.1594  0.0636  0.0070
  430loPI   C4A 6874   3.882   7.496   8.222 -0.0247  0.0009  0.2368
  430loPI   C5A 6875   4.145   7.328   7.938  0.0048 -0.0582  0.1882
  430loPI   C6A 6876   4.291   6.966   7.769 -0.0951 -0.1472  0.0302
  430loPI   C1B 6877   3.369   7.149   9.157  0.0348 -0.0427  0.0575
  430loPI   C2B 6878   3.501   7.064   8.797 -0.1249 -0.1698 -0.0827
  430loPI   C3B 6879   3.516   6.944   8.355  0.2651  0.3916  0.6103
  430loPI   C4B 6880   3.518   7.198   8.016 -0.2894  0.2932  0.1162
  431loPI    C1 6881   7.032   1.257  10.700 -0.0099 -0.1799 -0.1227
  431loPI    C2 6882   6.647   1.237  10.805 -0.0156  0.0938 -0.0843
  431loPI    C3 6883   6.831   1.592  10.786  0.2710 -0.0459  0.0266
  431loPI   PO4 6884   7.027   1.207  10.434  0.0193  0.0449  0.0746
  431loPI   GL1 6885   7.050   1.054  10.011  0.0103  0.1815  0.1007
  431loPI   GL2 6886   7.244   0.780  10.110 -0.0596  0.0613  0.3484
  431loPI   C1A 6887   7.107   0.996   9.649 -0.4523  0.0660  0.0219
  431loPI   C2A 6888   6.960   0.911   9.174  0.1437  0.1269 -0.1125
  431loPI   C3A 6889   6.933   0.854   8.816 -0.0038  0.4095  0.0198
  431loPI   C4A 6890   6.967   0.811   8.397 -0.1422 -0.0278  0.1850
  431loPI   C5A 6891   7.066   0.802   7.902  0.1080 -0.0829 -0.0624
  431loPI   C6A 6892   6.822   0.604   7.621  0.0289  0.1391 -0.0723
  431loPI   C1B 6893   7.193   0.464   9.658 -0.2492 -0.0979  0.0636
  431loPI   C2B 6894   7.216   0.340   9.284 -0.1907 -0.2735 -0.1948
  431loPI   C3B 6895   7.132   0.361   8.802  0.1094  0.0322 -0.0850
  431loPI   C4B 6896   7.138   0.371   8.404  0.1346 -0.1352  0.2560
  432loPI    C1 6897  10.395   5.816  10.998 -0.1619  0.0590 -0.2684
  432loPI    C2 6898  10.040   5.935  11.141 -0.0425  0.3881 -0.2365
  432loPI    C3 6899  10.375   6.124  11.252  0.1884 -0.1501  0.0220
  432loPI   PO4 6900  10.355   5.797  10.759 -0.2335 -0.0324  0.0163
  432loPI   GL1 6901  10.179   6.184  10.380  0.2899  0.2462 -0.3736
  432loPI   GL2 6902   9.945   6.045  10.444 -0.0111 -0.1144 -0.2312
  432loPI   C1A 6903  10.333   6.014   9.932 -0.0789 -0.0554 -0.1100
  432loPI   C2A 6904  10.370   6.010   9.450  0.0017 -0.0172 -0.0427
  432loPI   C3A 6905  10.296   6.036   9.037  0.0321 -0.2015 -0.5287
  432loPI   C4A 6906  10.328   6.047   8.609  0.1974 -0.0240 -0.2649
  432loPI   C5A 6907  10.237   5.937   8.293  0.1966  0.2659  0.0450
  432loPI   C6A 6908   9.842   6.012   8.056  0.0755 -0.3386  0.4112
  432loPI   C1B 6909   9.850   6.205   9.980  0.2956  0.0580  0.3840
  432loPI   C2B 6910   9.872   6.102   9.571  0.2251 -0.2589  0.2487
  432loPI   C3B 6911   9.806   6.294   9.163 -0.1919 -0.2652  0.1749
  432loPI   C4B 6912   9.821   6.223   8.797 -0.0846 -0.1231  0.1870
  433loPI    C1 6913  13.648   1.236  10.576  0.1215  0.0023  0.0820
  433loPI    C2 6914  13.609   0.973  10.875  0.0618  0.0897  0.1520
  433loPI    C3 6915  13.970   1.046  10.717  0.0859  0.0050  0.1673
  433loPI   PO4 6916  13.387   1.362  10.443  0.0166  0.0124  0.2279
  433loPI   GL1 6917  13.168   1.152  10.049 -0.0053  0.0316 -0.0381
  433loPI   GL2 6918  13.116   1.477   9.880  0.0399  0.0532 -0.0653
  433loPI   C1A 6919  13.243   0.969   9.633  0.0105  0.5405  0.1822
  433loPI   C2A 6920  13.217   0.983   9.186  0.2803 -0.0182  0.1909
  433loPI   C3A 6921  13.062   1.080   8.807 -0.0185  0.0348 -0.2303
  433loPI   C4A 6922  12.904   1.120   8.358  0.2472  0.3006 -0.0424
  433loPI   C5A 6923  12.995   0.980   8.030  0.2602  0.3133 -0.0564
  433loPI   C6A 6924  13.073   0.584   7.642 -0.4490 -0.0783  0.3256
  433loPI   C1B 6925  13.074   1.511   9.534 -0.2199 -0.1052  0.0672
  433loPI   C2B 6926  12.946   1.479   9.161 -0.2577  0.0613  0.0394
  433loPI   C3B 6927  12.868   1.576   8.783 -0.2475 -0.2276  0.0541
  433loPI   C4B 6928  12.782   1.559   8.356  0.2115 -0.0512 -0.1635
  434loPI    C1 6929  15.323  16.304  10.116 -0.1940  0.0389  0.1754
  434loPI    C2 6930  15.300  16.522  10.450 -0.2465  0.2406  0.0419
  434loPI    C3 6931  15.467  16.159  10.460 -0.0301  0.3427  0.2386
  434loPI   PO4 6932  15.311  16.544   9.929  0.0712  0.1588  0.2057
  434loPI   GL1 6933  15.554  16.481   9.498 -0.2937 -0.3309  0.3953
  434loPI   GL2 6934  15.838  16.359   9.485  0.1846 -0.0088  0.0780
  434loPI   C1A 6935  15.320  16.498   9.154  0.0858  0.4125 -0.0477
  434loPI   C2A 6936  15.321  16.440   8.690 -0.0099 -0.0854 -0.3952
  434loPI   C3A 6937  15.229  16.586   8.308  0.1168  0.0241  0.0360
  434loPI   C4A 6938  15.122  16.608   7.836  0.2622 -0.0273  0.1163
  434loPI   C5A 6939  15.026  16.729   7.410  0.0398 -0.0201 -0.0231
  434loPI   C6A 6940  14.817  16.655   7.054  0.0696  0.1189  0.1972
  434loPI   C1B 6941  15.819  16.304   9.118  0.3575 -0.2442  0.1466
  434loPI   C2B 6942  15.790  16.393   8.641  0.0403  0.0649 -0.0101
  434loPI   C3B 6943  15.697  16.539   8.334 -0.2076  0.2850 -0.1495
  434loPI   C4B 6944  15.638  16.546   7.864  0.1097 -0.1079 -0.0312
  435loPI    C1 6945   4.212  16.794  10.463  0.2797  0.1395  0.0168
  435loPI    C2 6946   4.523  16.658  10.675  0.1806 -0.0979  0.0130
  435loPI    C3 6947   4.274  16.927  10.835  0.3213  0.0067  0.0579
  435loPI   PO4 6948   4.285  16.937  10.264 -0.1037 -0.1423 -0.2547
  435loPI   GL1 6949   4.415  17.144   9.868  0.1284  0.0793  0.0802
  435loPI   GL2 6950   4.471  16.849   9.751 -0.0476  0.1740  0.1827
  435loPI   C1A 6951   4.220  17.223   9.540  0.0086 -0.3316  0.0213
  435loPI   C2A 6952   4.290  17.246   9.072 -0.2406  0.0277  0.1048
  435loPI   C3A 6953   4.327  17.436   8.673 -0.0055  0.2128 -0.1378
  435loPI   C4A 6954   4.561  17.426   8.285 -0.2397  0.0089  0.2975
  435loPI   C5A 6955   4.613  17.654   7.987 -0.0804  0.1073 -0.0781
  435loPI   C6A 6956   4.803  17.728   7.727  0.2565  0.2260 -0.0070
  435loPI   C1B 6957   4.753  16.745   9.494  0.0184  0.3616 -0.1608
  435loPI   C2B 6958   4.900  16.715   9.034  0.3092 -0.0592 -0.2636
  435loPI   C3B 6959   5.092  16.648   8.621  0.1315 -0.2987  0.3596
  435loPI   C4B 6960   5.184  16.705   8.174 -0.1174 -0.1531 -0.0524
  436loPI    C1 6961  12.599   0.130  10.782 -0.1420  0.0280 -0.0486
  436loPI    C2 6962  12.534  -0.248  10.669 -0.1972  0.0322 -0.0312
  436loPI    C3 6963  12.757  -0.172  10.993  0.1193  0.0252 -0.2431
  436loPI   PO4 6964  12.601   0.280  10.507  0.2828  0.0708 -0.1721
  436loPI   GL1 6965  12.598   0.184  10.088 -0.1718  0.1860  0.1741
  436loPI   GL2 6966  12.901   0.068  10.065 -0.3992  0.1121  0.1518
  436loPI   C1A 6967  12.454   0.227   9.658 -0.2037 -0.0325 -0.2800
  436loPI   C2A 6968  12.407   0.212   9.212  0.2841  0.0450  0.3056
  436loPI   C3A 6969  12.311   0.269   8.878  0.0260  0.1090  0.0995
  436loPI   C4A 6970  12.249   0.403   8.433 -0.1843 -0.0740  0.1111
  436loPI   C5A 6971  12.606   0.468   8.140  0.0315 -0.2034  0.1698
  436loPI   C6A 6972  12.631   0.683   7.779 -0.0202  0.0274 -0.0463
  436loPI   C1B 6973  13.037   0.002   9.699 -0.1786  0.0183  0.1033
  436loPI   C2B 6974  12.911   0.016   9.308  0.1553 -0.1876  0.3091
  436loPI   C3B 6975  12.801   0.148   8.941 -0.0668  0.0550  0.1823
  436loPI   C4B 6976  12.729   0.268   8.514  0.1419 -0.0180 -0.0412
  437loPI    C1 6977  12.668  11.002  10.770 -0.3414  0.0862 -0.0627
  437loPI    C2 6978  12.763  11.329  10.980 -0.2661 -0.0335  0.0910
  437loPI    C3 6979  12.798  10.967  11.146 -0.0899 -0.1376 -0.1675
  437loPI   PO4 6980  12.391  11.160  10.671 -0.1720 -0.2178 -0.3843
  437loPI   GL1 6981  12.417  11.302  10.276 -0.1960  0.0556 -0.2554
  437loPI   GL2 6982  12.355  11.662  10.279 -0.2945  0.1450 -0.0375
  437loPI   C1A 6983  12.477  11.238   9.908 -0.2454  0.0351  0.3582
  437loPI   C2A 6984  12.506  11.170   9.426 -0.0311  0.0511 -0.2063
  437loPI   C3A 6985  12.311  11.180   9.135  0.1616 -0.2844  0.4874
  437loPI   C4A 6986  12.345  11.220   8.706 -0.1162 -0.1138 -0.0260
  437loPI   C5A 6987  12.192  11.181   8.237 -0.0579  0.0498 -0.0184
  437loPI   C6A 6988  12.249  11.511   7.892 -0.2240 -0.0971 -0.3924
  437loPI   C1B 6989  12.269  11.750   9.825  0.0999 -0.0158 -0.1016
  437loPI   C2B 6990  12.246  11.647   9.365 -0.0548  0.0404 -0.2478
  437loPI   C3B 6991  12.227  11.662   8.915 -0.1069 -0.4230 -0.0282
  437loPI   C4B 6992  12.116  11.646   8.589 -0.0232 -0.3042 -0.1296
  438loPI    C1 6993   2.475  17.886  10.135  0.0335 -0.2538 -0.0226
  438loPI    C2 6994   2.822  17.894   9.938  0.0339  0.1759 -0.0138
  438loPI    C3 6995   2.698  18.218  10.137 -0.1789 -0.1067  0.3251
  438loPI   PO4 6996   2.432  17.654  10.051 -0.3461  0.3020  0.1724
  438loPI   GL1 6997   2.415  17.553   9.688  0.0081  0.0307 -0.1788
  438loPI   GL2 6998   2.583  17.747   9.513 -0.1067  0.0212  0.2249
  438loPI   C1A 6999   2.507  17.444   9.188  0.1375 -0.3300 -0.1446
  438loPI   C2A 7000   2.447  17.500   8.725 -0.0811  0.0012 -0.0940
  438loPI   C3A 7001   2.620  17.616   8.402 -0.3313 -0.2541  0.4974
  438loPI   C4A 7002   2.678  17.644   7.924  0.3252  0.1249  0.4791
  438loPI   C5A 7003   2.813  17.639   7.465  0.2143 -0.0923 -0.1910
  438loPI   C6A 7004   3.057  17.923   7.080  0.0822 -0.0187  0.2903
  438loPI   C1B 7005   2.503  17.960   9.048 -0.0929  0.1210 -0.1252
  438loPI   C2B 7006   2.309  17.941   8.592 -0.0170 -0.1824 -0.1001
  438loPI   C3B 7007   2.294  17.936   8.114 -0.1346  0.3040  0.2372
  438loPI   C4B 7008   2.382  18.004   7.650  0.0574  0.0446 -0.0145
  439loPI    C1 7009  10.472   9.499  10.858  0.0865  0.0435 -0.0278
  439loPI    C2 7010  10.775   9.535  11.116  0.1137 -0.0744 -0.0428
  439loPI    C3 7011  10.665   9.173  10.985  0.1074 -0.0144 -0.2050
  439loPI   PO4 7012  10.464   9.749  10.793 -0.1898 -0.2701  0.1892
  439loPI   GL1 7013  10.461   9.756  10.376 -0.0711 -0.2365  0.2293
  439loPI   GL2 7014  10.209   9.559  10.271  0.1315  0.3890  0.3658
  439loPI   C1A 7015  10.436   9.774   9.895  0.1200 -0.1299  0.0140
  439loPI   C2A 7016  10.270   9.830   9.553 -0.1681  0.0658  0.1954
  439loPI   C3A 7017  10.296   9.892   9.149  0.2254 -0.0147 -0.0784
  439loPI   C4A 7018  10.264   9.803   8.664 -0.1453 -0.1527  0.0980
  439loPI   C5A 7019  10.272   9.624   8.299  0.0179  0.0483 -0.2728
  439loPI   C6A 7020   9.997   9.592   7.969  0.1487  0.1334  0.1604
  439loPI   C1B 7021  10.066   9.433   9.778  0.0193  0.0110  0.1532
  439loPI   C2B 7022   9.951   9.446   9.438  0.0761  0.0147  0.0221
  439loPI   C3B 7023   9.837   9.561   9.024 -0.1566 -0.0577 -0.1767
  439loPI   C4B 7024   9.847   9.429   8.555 -0.2848  0.1146 -0.1619
  440loPI    C1 7025  16.642   5.511  10.214 -0.1133  0.0689  0.0425
  440loPI    C2 7026  16.835   5.851  10.298 -0.1567  0.1247 -0.0822
  440loPI    C3 7027  16.657   5.645  10.590  0.1003  0.0669  0.0360
  440loPI   PO4 7028  16.629   5.580   9.887 -0.2084  0.0141 -0.1970
  440loPI   GL1 7029  16.254   5.595   9.583 -0.1326  0.0420 -0.0677
  440loPI   GL2 7030  16.211   5.311   9.609 -0.1706  0.3098 -0.0065
  440loPI   C1A 7031  16.178   5.790   9.158 -0.0372  0.2627 -0.3184
  440loPI   C2A 7032  16.118   5.854   8.721  0.1733  0.0670 -0.2718
  440loPI   C3A 7033  16.114   5.743   8.282  0.1832  0.1802  0.0901
  440loPI   C4A 7034  16.029   5.875   7.885 -0.1732  0.1442  0.3250
  440loPI   C5A 7035  15.947   5.622   7.594 -0.0816 -0.0613  0.4223
  440loPI   C6A 7036  16.072   5.544   7.258 -0.0919  0.1679 -0.0473
  440loPI   C1B 7037  16.306   5.257   9.082 -0.1649  0.1607 -0.1769
  440loPI   C2B 7038  16.264   5.258   8.712  0.1334 -0.2249  0.1064
  440loPI   C3B 7039  16.148   5.249   8.371  0.1841 -0.1460  0.2327
  440loPI   C4B 7040  16.044   5.256   7.958  0.0280  0.0412 -0.1910
  441loPI    C1 7041  15.046   5.226  10.662  0.1817  0.0787 -0.1749
  441loPI    C2 7042  14.771   5.515  10.692 -0.1672 -0.2274 -0.3392
  441loPI    C3 7043  15.096   5.523  10.925 -0.2745  0.1806 -0.1947
  441loPI   PO4 7044  15.101   5.224  10.397 -0.0929  0.0570  0.0142
  441loPI   GL1 7045  14.750   5.138  10.226  0.1259  0.1239 -0.1083
  441loPI   GL2 7046  14.790   5.523  10.104  0.0526  0.1004 -0.0321
  441loPI   C1A 7047  14.528   4.953   9.950 -0.2304 -0.1903  0.0086
  441loPI   C2A 7048  14.485   4.940   9.551  0.1231 -0.2328  0.2110
  441loPI   C3A 7049  14.354   4.909   9.133  0.1339  0.0449  0.2108
  441loPI   C4A 7050  14.396   4.784   8.714  0.0655  0.0033  0.2079
  441loPI   C5A 7051  14.517   4.875   8.324  0.0687 -0.1091 -0.0307
  441loPI   C6A 7052  14.786   5.266   8.130  0.4554 -0.0263 -0.0609
  441loPI   C1B 7053  14.847   5.288   9.766 -0.0607  0.0724  0.3644
  441loPI   C2B 7054  14.755   5.289   9.327 -0.3982 -0.0268 -0.0497
  441loPI   C3B 7055  14.977   5.336   9.005 -0.3821  0.0262  0.1566
  441loPI   C4B 7056  14.808   5.182   8.600  0.0845 -0.0526 -0.0643
  442loPI    C1 7057   0.766   4.961   9.902  0.1600 -0.0286  0.0000
  442loPI    C2 7058   0.619   4.598   9.822 -0.0242  0.0386  0.0286
  442loPI    C3 7059   0.493   4.798  10.144  0.0611  0.1370  0.0015
  442loPI   PO4 7060   0.895   5.116   9.581  0.1848  0.2792 -0.4677
  442loPI   GL1 7061   0.896   5.041   9.184  0.3023 -0.0268 -0.3810
  442loPI   GL2 7062   0.616   4.866   9.169  0.0078 -0.2367  0.1589
  442loPI   C1A 7063   0.878   5.144   8.758 -0.2529 -0.5272 -0.1477
  442loPI   C2A 7064   0.935   5.487   8.507  0.0408  0.0821 -0.2128
  442loPI   C3A 7065   0.700   5.719   8.264 -0.0265 -0.0142 -0.2907
  442loPI   C4A 7066   0.553   6.006   7.956 -0.1005  0.0336 -0.1315
  442loPI   C5A 7067   0.892   6.180   7.670  0.0540 -0.0354  0.0145
  442loPI   C6A 7068   1.093   6.041   7.314  0.3096 -0.3040  0.0676
  442loPI   C1B 7069   0.439   4.871   8.715  0.0569  0.0855 -0.0329
  442loPI   C2B 7070   0.626   5.155   8.289  0.2676  0.0360  0.1597
  442loPI   C3B 7071   0.834   5.274   8.009 -0.0763  0.1883  0.1639
  442loPI   C4B 7072   1.179   5.182   7.746 -0.3100 -0.0212 -0.2583
  443loPI    C1 7073   9.194   5.468  11.182  0.1542  0.0631  0.1554
  443loPI    C2 7074   9.267   5.853  11.261  0.3469  0.0186  0.1984
  443loPI    C3 7075   9.569   5.607  11.170  0.1911 -0.0552 -0.1309
  443loPI   PO4 7076   9.063   5.405  10.981 -0.0013 -0.2499 -0.1133
  443loPI   GL1 7077   9.196   5.284  10.621  0.2077 -0.1195  0.0221
  443loPI   GL2 7078   9.467   5.381  10.657  0.2243 -0.2401 -0.1816
  443loPI   C1A 7079   9.223   5.061  10.211 -0.2248 -0.0774  0.1839
  443loPI   C2A 7080   9.267   5.006   9.789 -0.2671 -0.0377 -0.1616
  443loPI   C3A 7081   9.315   4.949   9.376 -0.0015  0.0214  0.3250
  443loPI   C4A 7082   9.289   5.025   8.980 -0.1951  0.1062 -0.2830
  443loPI   C5A 7083   9.266   5.160   8.515 -0.0043  0.1782  0.0773
  443loPI   C6A 7084   9.074   5.465   8.260  0.1339 -0.0454  0.1245
  443loPI   C1B 7085   9.567   5.367  10.246 -0.3008 -0.1539  0.2441
  443loPI   C2B 7086   9.559   5.366   9.767 -0.3526 -0.2274 -0.0320
  443loPI   C3B 7087   9.679   5.290   9.333  0.0133 -0.1280 -0.1784
  443loPI   C4B 7088   9.627   5.319   8.840  0.2098  0.3418  0.3142
  444loPI    C1 7089   5.679   6.188  10.552 -0.0332  0.0893  0.1862
  444loPI    C2 7090   5.410   5.918  10.672  0.1399  0.0049  0.3913
  444loPI    C3 7091   5.452   6.261  10.873 -0.0721  0.1837  0.1376
  444loPI   PO4 7092   5.672   6.147  10.293  0.0322  0.0983  0.2358
  444loPI   GL1 7093   5.777   5.855  10.062  0.1912  0.0122  0.1822
  444loPI   GL2 7094   5.574   5.918   9.765 -0.0617  0.0597  0.3300
  444loPI   C1A 7095   6.066   5.909   9.768  0.1829  0.2875 -0.0871
  444loPI   C2A 7096   6.198   5.880   9.363  0.1569 -0.2178 -0.1317
  444loPI   C3A 7097   6.241   5.906   8.898 -0.3908  0.0392  0.1693
  444loPI   C4A 7098   6.165   5.827   8.515  0.0219 -0.0346  0.0820
  444loPI   C5A 7099   6.297   5.956   7.996 -0.0781 -0.0900 -0.0400
  444loPI   C6A 7100   6.288   6.054   7.590  0.0192  0.1161  0.1239
  444loPI   C1B 7101   5.671   5.989   9.407 -0.0072 -0.1006 -0.0528
  444loPI   C2B 7102   5.729   6.055   8.973 -0.3084  0.2127  0.0244
  444loPI   C3B 7103   5.676   6.016   8.534  0.0887 -0.1321  0.0488
  444loPI   C4B 7104   5.859   6.016   8.127  0.1078  0.1365  0.0720
  445loPI    C1 7105  13.533  12.177  10.438  0.0857  0.0480  0.0977
  445loPI    C2 7106  13.518  12.039  10.814 -0.1659 -0.0173  0.0651
  445loPI    C3 7107  13.183  12.067  10.597 -0.0629  0.2825 -0.0613
  445loPI   PO4 7108  13.626  12.421  10.403  0.1379  0.2189 -0.1778
  445loPI   GL1 7109  13.455  12.577  10.034  0.0697  0.1626  0.2095
  445loPI   GL2 7110  13.469  12.224   9.911 -0.1039  0.0663 -0.0163
  445loPI   C1A 7111  13.503  12.780   9.708 -0.1566 -0.0830 -0.1450
  445loPI   C2A 7112  13.477  12.683   9.346 -0.0056 -0.0138  0.3453
  445loPI   C3A 7113  13.430  12.761   8.874 -0.1718 -0.0960  0.3947
  445loPI   C4A 7114  13.284  12.819   8.484  0.2834  0.0827 -0.0735
  445loPI   C5A 7115  13.471  12.804   8.135 -0.2869  0.1650 -0.0136
  445loPI   C6A 7116  13.847  13.019   7.754 -0.1090 -0.4797 -0.3090
  445loPI   C1B 7117  13.669  12.214   9.558  0.0465  0.1539  0.1878
  445loPI   C2B 7118  13.543  12.219   9.131 -0.1086  0.0331 -0.1300
  445loPI   C3B 7119  13.487  12.217   8.840  0.3699  0.0826 -0.1384
  445loPI   C4B 7120  13.305  12.338   8.435  0.2055 -0.2216  0.2222
  446loPI    C1 7121   5.295   0.573  10.850 -0.0541 -0.1508 -0.1243
  446loPI    C2 7122   4.904   0.601  10.929 -0.0503 -0.1846 -0.0930
  446loPI    C3 7123   5.133   0.929  10.932 -0.0611 -0.1774 -0.0214
  446loPI   PO4 7124   5.200   0.428  10.564 -0.4181  0.1928  0.2375
  446loPI   GL1 7125   5.309   0.685  10.119 -0.1269  0.0783 -0.0030
  446loPI   GL2 7126   5.461   0.970   9.937  0.0514 -0.1861 -0.1562
  446loPI   C1A 7127   5.081   0.582   9.675 -0.3042  0.1206  0.1588
  446loPI   C2A 7128   5.071   0.524   9.325 -0.1233  0.1723 -0.1416
  446loPI   C3A 7129   5.262   0.619   8.798  0.0769 -0.0980  0.2027
  446loPI   C4A 7130   5.323   0.461   8.351  0.3705  0.0308  0.1358
  446loPI   C5A 7131   5.281   0.652   7.932 -0.3254 -0.0128 -0.0283
  446loPI   C6A 7132   5.358   1.061   7.703  0.1310  0.1746  0.1820
  446loPI   C1B 7133   5.524   0.903   9.491  0.1715  0.1124 -0.2050
  446loPI   C2B 7134   5.564   0.876   9.063  0.1077  0.1590  0.3189
  446loPI   C3B 7135   5.698   0.823   8.611  0.2138 -0.0284 -0.2941
  446loPI   C4B 7136   5.618   1.018   8.149  0.0384  0.1411 -0.0343
  447loPI    C1 7137   0.278  10.508   9.754 -0.0674 -0.0513  0.1767
  447loPI    C2 7138   0.238  10.863   9.933 -0.0906  0.1031 -0.1288
  447loPI    C3 7139   0.058  10.540  10.086  0.1064  0.1775  0.2721
  447loPI   PO4 7140   0.201  10.563   9.469  0.0220 -0.0632  0.0924
  447loPI   GL1 7141   0.150  10.181   9.294 -0.0454 -0.2255 -0.0397
  447loPI   GL2 7142   0.381  10.178   9.205  0.2753 -0.0137  0.2111
  447loPI   C1A 7143   0.035   9.986   8.901  0.0262  0.0389  0.2731
  447loPI   C2A 7144   0.019  10.071   8.534 -0.2938 -0.1267 -0.4093
  447loPI   C3A 7145  -0.190  10.277   8.319  0.0912  0.1393 -0.3532
  447loPI   C4A 7146  -0.313  10.469   8.112 -0.0458 -0.2266  0.0017
  447loPI   C5A 7147  -0.523  10.547   7.698 -0.1463 -0.2105  0.1696
  447loPI   C6A 7148  -0.621  10.908   7.534  0.0120 -0.0024 -0.0425
  447loPI   C1B 7149   0.485  10.312   8.773 -0.1625  0.0060 -0.2128
  447loPI   C2B 7150   0.490  10.374   8.430 -0.1698  0.0331 -0.0003
  447loPI   C3B 7151   0.375  10.332   8.080 -0.0294  0.0618  0.0881
  447loPI   C4B 7152   0.400  10.578   7.498  0.2638 -0.2191  0.2221
  448loPI    C1 7153   8.913   8.022  10.802 -0.1758  0.0208  0.1130
  448loPI    C2 7154   8.971   8.288  11.095  0.0618  0.0498  0.0421
  448loPI    C3 7155   8.840   7.920  11.181  0.1758  0.0430  0.1904
  448loPI   PO4 7156   8.802   8.203  10.536 -0.4024  0.0927 -0.1615
  448loPI   GL1 7157   8.764   8.325  10.050 -0.5281 -0.3010  0.1375
  448loPI   GL2 7158   8.498   8.060  10.171  0.0800  0.0422  0.0706
  448loPI   C1A 7159   8.775   8.358   9.636  0.1535  0.2262  0.2198
  448loPI   C2A 7160   8.768   8.501   9.234 -0.1387 -0.1303  0.2002
  448loPI   C3A 7161   8.782   8.476   8.816 -0.1437  0.0420  0.1498
  448loPI   C4A 7162   8.865   8.426   8.397 -0.1712  0.0881 -0.0902
  448loPI   C5A 7163   8.608   8.740   8.157 -0.0482  0.0202 -0.0364
  448loPI   C6A 7164   8.285   8.854   8.025 -0.1762  0.3634  0.1634
  448loPI   C1B 7165   8.479   8.026   9.804  0.0879 -0.1895  0.0126
  448loPI   C2B 7166   8.369   8.009   9.418 -0.2110  0.3390  0.0401
  448loPI   C3B 7167   8.457   8.078   9.013  0.0900  0.1263  0.1669
  448loPI   C4B 7168   8.518   8.022   8.567  0.0767  0.0735 -0.0104
  449loPI    C1 7169   9.026   9.951  10.672 -0.2673  0.0463  0.1454
  449loPI    C2 7170   9.422   9.898  10.680 -0.2440  0.1516 -0.1703
  449loPI    C3 7171   9.203   9.819  11.005 -0.0107 -0.2659 -0.1078
  449loPI   PO4 7172   8.940   9.906  10.404 -0.2146 -0.1722  0.3109
  449loPI   GL1 7173   9.005   9.777   9.994  0.0689 -0.3272  0.3997
  449loPI   GL2 7174   8.608   9.797   9.917  0.0939 -0.0680 -0.2277
  449loPI   C1A 7175   8.989   9.739   9.531  0.0355  0.3561 -0.0988
  449loPI   C2A 7176   8.922   9.771   9.146  0.0545 -0.3645 -0.1667
  449loPI   C3A 7177   8.973   9.919   8.720 -0.1343 -0.1503  0.1195
  449loPI   C4A 7178   9.006  10.100   8.289  0.0197 -0.2256  0.0306
  449loPI   C5A 7179   8.820  10.351   7.972  0.1628 -0.2373 -0.0503
  449loPI   C6A 7180   9.054  10.476   7.621 -0.1703  0.2667 -0.3048
  449loPI   C1B 7181   8.421   9.862   9.517 -0.0581  0.1049  0.1516
  449loPI   C2B 7182   8.401   9.828   9.085  0.0611 -0.0396 -0.3232
  449loPI   C3B 7183   8.393  10.041   8.777 -0.3397 -0.1590 -0.1737
  449loPI   C4B 7184   8.498  10.119   8.250  0.1612  0.0502 -0.0331
  450loPI    C1 7185   7.572   7.032  11.209  0.1625 -0.2664 -0.0654
  450loPI    C2 7186   7.853   6.762  11.297  0.2942 -0.0807  0.0932
  450loPI    C3 7187   7.557   6.834  11.556  0.0944 -0.2797 -0.0757
  450loPI   PO4 7188   7.656   7.212  10.995  0.1836  0.2101  0.2301
  450loPI   GL1 7189   7.960   7.144  10.674 -0.1182  0.0574 -0.3185
  450loPI   GL2 7190   8.220   7.347  10.536 -0.2330  0.0798 -0.3827
  450loPI   C1A 7191   7.824   7.373  10.289 -0.0257 -0.1175 -0.2898
  450loPI   C2A 7192   7.688   7.378   9.903  0.1026 -0.0676 -0.0187
  450loPI   C3A 7193   7.773   7.301   9.496  0.2746 -0.0898 -0.2753
  450loPI   C4A 7194   7.675   7.377   9.053  0.1300 -0.0490 -0.0426
  450loPI   C5A 7195   7.747   7.261   8.644 -0.0860  0.1049  0.1197
  450loPI   C6A 7196   8.132   7.301   8.336  0.4139  0.0046 -0.2283
  450loPI   C1B 7197   8.226   7.225  10.123 -0.0036 -0.0600  0.0661
  450loPI   C2B 7198   8.332   7.172   9.753  0.0208  0.4074 -0.1347
  450loPI   C3B 7199   8.255   7.238   9.350 -0.1375  0.1106 -0.0452
  450loPI   C4B 7200   8.256   7.141   8.929 -0.0861 -0.1621 -0.3441
  451loPI    C1 7201   9.243  11.376  10.869 -0.2250  0.3905  0.2118
  451loPI    C2 7202   9.011  11.105  11.050 -0.0469  0.2193  0.1877
  451loPI    C3 7203   9.052  11.470  11.208 -0.2349  0.2119  0.2566
  451loPI   PO4 7204   9.172  11.376  10.685  0.0266 -0.1688  0.2088
  451loPI   GL1 7205   8.905  11.521  10.343  0.2334 -0.0374 -0.0161
  451loPI   GL2 7206   8.938  11.184  10.198  0.2171  0.0322 -0.0180
  451loPI   C1A 7207   8.802  11.617   9.916  0.0663 -0.2541 -0.1359
  451loPI   C2A 7208   8.969  11.797   9.520  0.1687  0.0379 -0.1194
  451loPI   C3A 7209   8.960  11.734   9.138 -0.0108 -0.4634 -0.1271
  451loPI   C4A 7210   8.997  11.714   8.751  0.1013 -0.0887 -0.1651
  451loPI   C5A 7211   8.941  11.697   8.329  0.4688 -0.1058  0.2022
  451loPI   C6A 7212   9.298  11.679   8.004 -0.0077 -0.0564 -0.3095
  451loPI   C1B 7213   9.091  11.264   9.766 -0.0169  0.2583  0.2373
  451loPI   C2B 7214   9.104  11.206   9.306  0.1919  0.0471 -0.1061
  451loPI   C3B 7215   9.072  11.204   8.858 -0.0418  0.1458  0.0582
  451loPI   C4B 7216   9.072  11.107   8.370  0.0288 -0.2253 -0.0298
  452loPI    C1 7217  10.455  15.699  10.750  0.0258 -0.2585  0.0044
  452loPI    C2 7218  10.106  15.504  10.740 -0.1628  0.0559  0.2682
  452loPI    C3 7219  10.131  15.861  10.920  0.1972  0.2361 -0.1218
  452loPI   PO4 7220  10.624  15.495  10.756 -0.1723 -0.1195 -0.0629
  452loPI   GL1 7221  10.822  15.176  10.462 -0.2161 -0.1249 -0.0974
  452loPI   GL2 7222  10.464  15.062  10.444 -0.2492  0.6317 -0.1880
  452loPI   C1A 7223  10.925  14.966  10.130 -0.3971 -0.2443 -0.3116
  452loPI   C2A 7224  11.044  14.907   9.707  0.2489 -0.2581  0.2013
  452loPI   C3A 7225  10.946  14.841   9.285  0.2305 -0.1694 -0.1384
  452loPI   C4A 7226  10.850  14.887   8.874 -0.0495  0.1913  0.0448
  452loPI   C5A 7227  10.744  14.770   8.411 -0.0878  0.0267  0.1421
  452loPI   C6A 7228  10.940  14.653   7.877 -0.0483  0.2403 -0.0402
  452loPI   C1B 7229  10.452  15.087   9.991 -0.1786 -0.0329 -0.1105
  452loPI   C2B 7230  10.531  15.038   9.579  0.0166  0.1892  0.1307
  452loPI   C3B 7231  10.410  15.103   9.165  0.0209  0.5126 -0.0525
  452loPI   C4B 7232  10.317  15.015   8.727  0.1422 -0.0283 -0.1044
  453loPI    C1 7233  14.271   5.623  10.828  0.1376 -0.1133 -0.4139
  453loPI    C2 7234  14.448   5.334  11.042 -0.1389  0.1146  0.1437
  453loPI    C3 7235  14.530   5.718  11.118 -0.0923  0.1992 -0.3055
  453loPI   PO4 7236  14.290   5.566  10.612  0.2695 -0.2171  0.2033
  453loPI   GL1 7237  14.332   5.425  10.254  0.1434  0.1082  0.0969
  453loPI   GL2 7238  14.271   5.753  10.150 -0.1646  0.2539  0.4501
  453loPI   C1A 7239  14.374   5.551   9.702  0.0026 -0.1264 -0.0128
  453loPI   C2A 7240  14.210   5.439   9.324  0.1044 -0.1638  0.1574
  453loPI   C3A 7241  14.280   5.321   8.868 -0.2051  0.2094 -0.1034
  453loPI   C4A 7242  14.393   5.387   8.367  0.0547  0.0028  0.0605
  453loPI   C5A 7243  14.543   5.727   8.075 -0.0493 -0.0245 -0.4446
  453loPI   C6A 7244  14.696   6.060   7.796  0.0856 -0.0292 -0.2649
  453loPI   C1B 7245  13.859   5.568   9.933 -0.1819  0.0802  0.0577
  453loPI   C2B 7246  13.772   5.547   9.511  0.0002  0.0223  0.1657
  453loPI   C3B 7247  13.719   5.547   9.137 -0.1198 -0.0892 -0.1920
  453loPI   C4B 7248  13.770   5.489   8.645 -0.0162  0.1890 -0.1554
  454loPI    C1 7249  10.150   6.992  11.107 -0.1887  0.1672 -0.2347
  454loPI    C2 7250   9.871   7.072  11.383 -0.1577 -0.1573 -0.1045
  454loPI    C3 7251  10.110   7.363  11.250  0.0671 -0.0617  0.4775
  454loPI   PO4 7252  10.061   6.788  10.997 -0.2922 -0.3245  0.0571
  454loPI   GL1 7253   9.781   6.737  10.710 -0.0793 -0.2407 -0.2558
  454loPI   GL2 7254   9.926   6.993  10.539 -0.0052  0.1127 -0.1838
  454loPI   C1A 7255   9.676   6.685  10.264  0.2125  0.1003  0.1088
  454loPI   C2A 7256   9.801   6.676   9.801  0.0004  0.0149 -0.0363
  454loPI   C3A 7257   9.852   6.655   9.441  0.0970 -0.3315  0.1328
  454loPI   C4A 7258   9.676   6.757   9.021  0.0240  0.0156 -0.2069
  454loPI   C5A 7259   9.848   6.678   8.602 -0.2691  0.0321  0.3689
  454loPI   C6A 7260   9.805   6.619   8.142  0.0775 -0.3007  0.1092
  454loPI   C1B 7261  10.079   7.021  10.137  0.0212 -0.2850 -0.0555
  454loPI   C2B 7262  10.041   7.150   9.730  0.3507 -0.0270  0.0687
  454loPI   C3B 7263   9.995   7.121   9.216  0.1279 -0.0452  0.2863
  454loPI   C4B 7264   9.993   7.149   8.756 -0.0657  0.3763 -0.0798
  455loPI    C1 7265  15.903   5.421  10.351  0.0626  0.3372 -0.0234
  455loPI    C2 7266  16.169   5.515  10.067  0.0677  0.0748 -0.1083
  455loPI    C3 7267  16.212   5.660  10.438  0.3671 -0.0188 -0.1040
  455loPI   PO4 7268  15.607   5.509  10.254  0.1249 -0.0075 -0.0828
  455loPI   GL1 7269  15.264   5.458  10.017  0.1736  0.0184 -0.2571
  455loPI   GL2 7270  15.400   5.831   9.944 -0.0935  0.2030  0.0843
  455loPI   C1A 7271  15.259   5.423   9.564 -0.0902  0.2804  0.1615
  455loPI   C2A 7272  15.416   5.186   9.177  0.2673  0.1774  0.2223
  455loPI   C3A 7273  15.336   5.057   8.757 -0.3830  0.0653  0.0161
  455loPI   C4A 7274  15.161   5.055   8.276  0.0440  0.3412 -0.0223
  455loPI   C5A 7275  15.182   4.924   7.947  0.1521 -0.1935  0.0720
  455loPI   C6A 7276  15.235   4.891   7.511  0.2630 -0.1606 -0.0876
  455loPI   C1B 7277  15.433   5.861   9.472 -0.4719  0.0655 -0.1934
  455loPI   C2B 7278  15.340   5.695   9.078 -0.2237  0.0500 -0.3463
  455loPI   C3B 7279  15.210   5.586   8.657 -0.2009 -0.1859 -0.1463
  455loPI   C4B 7280  15.204   5.639   8.248  0.1186  0.4775  0.2251
  456loPI    C1 7281  13.603   4.580  10.737  0.1274  0.0913 -0.0714
  456loPI    C2 7282  13.485   4.487  11.107  0.1239 -0.0427 -0.1058
  456loPI    C3 7283  13.869   4.445  11.004  0.2030  0.3764  0.0010
  456loPI   PO4 7284  13.431   4.564  10.541  0.0492  0.1405 -0.0564
  456loPI   GL1 7285  13.496   4.722  10.164 -0.2251 -0.2262 -0.2230
  456loPI   GL2 7286  13.775   4.543  10.166 -0.1743 -0.3124  0.2297
  456loPI   C1A 7287  13.631   4.738   9.656  0.0653  0.0055  0.2572
  456loPI   C2A 7288  13.524   4.651   9.203  0.0693  0.0746 -0.0535
  456loPI   C3A 7289  13.617   4.696   8.781 -0.2340 -0.0743 -0.4205
  456loPI   C4A 7290  13.520   4.680   8.449 -0.1663 -0.3193 -0.0952
  456loPI   C5A 7291  13.612   4.560   7.966 -0.1068  0.3567 -0.2197
  456loPI   C6A 7292  13.900   4.678   7.651 -0.1521  0.0192  0.4566
  456loPI   C1B 7293  14.118   4.607   9.907  0.2292  0.1101 -0.1109
  456loPI   C2B 7294  14.112   4.571   9.462 -0.0769  0.2780  0.0552
  456loPI   C3B 7295  14.100   4.459   9.068  0.1632  0.3689 -0.0236
  456loPI   C4B 7296  14.024   4.491   8.506 -0.0611 -0.0258  0.2802
  457loPI    C1 7297  16.505   7.733  10.286  0.0075  0.0969  0.0637
  457loPI    C2 7298  16.738   7.624  10.592  0.0188 -0.0378  0.0076
  457loPI    C3 7299  16.488   7.933  10.632  0.0081 -0.0651  0.1589
  457loPI   PO4 7300  16.663   7.777  10.065  0.1719  0.3528 -0.0328
  457loPI   GL1 7301  16.611   7.842   9.763  0.0074 -0.2682  0.0505
  457loPI   GL2 7302  16.614   7.434   9.678 -0.0100  0.1579  0.0133
  457loPI   C1A 7303  16.403   7.809   9.407  0.0358 -0.0655  0.3555
  457loPI   C2A 7304  16.269   7.727   9.054  0.4694 -0.0908 -0.0731
  457loPI   C3A 7305  16.070   7.687   8.650 -0.2204 -0.0513 -0.0081
  457loPI   C4A 7306  15.940   7.751   8.230  0.4921 -0.1332 -0.0323
  457loPI   C5A 7307  15.823   7.938   7.823  0.1321  0.2858 -0.1048
  457loPI   C6A 7308  15.831   7.699   7.529  0.1628  0.0574  0.0068
  457loPI   C1B 7309  16.352   7.294   9.308  0.1143 -0.1370 -0.2382
  457loPI   C2B 7310  16.342   7.213   8.926  0.0232  0.1695 -0.0322
  457loPI   C3B 7311  16.200   7.159   8.601 -0.3490  0.0425 -0.0987
  457loPI   C4B 7312  16.036   7.327   8.324 -0.1200 -0.1638 -0.0034
  458loPI    C1 7313  12.212   6.108  10.820  0.1112 -0.1159  0.0435
  458loPI    C2 7314  12.306   6.379  11.099  0.1752  0.0562 -0.1427
  458loPI    C3 7315  12.433   6.001  11.135  0.0153  0.0289  0.1614
  458loPI   PO4 7316  12.001   6.187  10.675  0.0503  0.1601  0.1097
  458loPI   GL1 7317  12.106   6.260  10.291  0.0116  0.1067  0.0410
  458loPI   GL2 7318  12.326   6.605  10.181  0.0494 -0.2202  0.0935
  458loPI   C1A 7319  11.809   6.234   9.929  0.2310 -0.1126 -0.1120
  458loPI   C2A 7320  11.736   6.140   9.404  0.2020  0.1839 -0.2461
  458loPI   C3A 7321  11.813   6.165   8.976  0.0315 -0.1231  0.3248
  458loPI   C4A 7322  11.618   6.199   8.532  0.1682  0.1434  0.2859
  458loPI   C5A 7323  11.330   6.005   8.268 -0.1134  0.1425  0.4144
  458loPI   C6A 7324  11.083   5.750   8.073 -0.0652 -0.0918  0.1596
  458loPI   C1B 7325  12.209   6.493   9.753 -0.2451 -0.0162  0.1459
  458loPI   C2B 7326  12.124   6.509   9.332  0.2243 -0.1290  0.1083
  458loPI   C3B 7327  12.094   6.581   8.883  0.0113 -0.0107  0.1587
  458loPI   C4B 7328  12.069   6.404   8.547  0.2260 -0.1713  0.3210
  459loPI    C1 7329   3.386  14.608   9.521  0.1220 -0.0488 -0.3301
  459loPI    C2 7330   3.224  14.423   9.835  0.2511  0.0276 -0.2173
  459loPI    C3 7331   3.000  14.665   9.609  0.1669  0.0016 -0.1626
  459loPI   PO4 7332   3.490  14.452   9.383  0.1582  0.1696 -0.2239
  459loPI   GL1 7333   3.847  14.548   9.167 -0.3356  0.0089 -0.1744
  459loPI   GL2 7334   3.865  14.338   8.982  0.2325  0.1371  0.1114
  459loPI   C1A 7335   4.139  14.837   8.997  0.3201  0.2921  0.1897
  459loPI   C2A 7336   4.174  14.963   8.518 -0.0156  0.3650 -0.1929
  459loPI   C3A 7337   4.204  14.986   8.104 -0.1149 -0.3782  0.2015
  459loPI   C4A 7338   3.839  14.891   7.724  0.1747 -0.0978 -0.0306
  459loPI   C5A 7339   3.718  15.135   7.519 -0.1486  0.0371  0.2496
  459loPI   C6A 7340   3.553  15.178   7.066 -0.0945 -0.2660 -0.2955
  459loPI   C1B 7341   4.186  14.461   8.646 -0.0495 -0.1596  0.2463
  459loPI   C2B 7342   4.379  14.515   8.324 -0.0574  0.2498 -0.0058
  459loPI   C3B 7343   4.506  14.324   7.902 -0.0983  0.0978  0.1089
  459loPI   C4B 7344   4.838  14.521   7.504 -0.3105  0.1974 -0.1784
  460loPI    C1 7345   6.971   3.546  10.590  0.2521  0.0175  0.0856
  460loPI    C2 7346   6.715   3.718  10.845  0.0516  0.1748 -0.2149
  460loPI    C3 7347   6.700   3.323  10.782  0.0827  0.1395 -0.0087
  460loPI   PO4 7348   6.922   3.663  10.329  0.1789 -0.0966  0.0925
  460loPI   GL1 7349   7.327   3.623  10.196  0.0210 -0.1848 -0.2089
  460loPI   GL2 7350   7.414   3.370  10.391 -0.0392 -0.3871 -0.0976
  460loPI   C1A 7351   7.331   3.640   9.736  0.2292  0.0376 -0.0984
  460loPI   C2A 7352   7.307   3.746   9.320  0.1063  0.1808 -0.0316
  460loPI   C3A 7353   7.366   3.720   8.917 -0.1309  0.1658 -0.1434
  460loPI   C4A 7354   7.545   3.829   8.543  0.1404  0.0145 -0.2065
  460loPI   C5A 7355   7.637   4.106   8.347 -0.0667 -0.1319  0.0780
  460loPI   C6A 7356   7.699   4.489   8.192 -0.0826  0.0865 -0.2040
  460loPI   C1B 7357   7.497   3.247   9.950 -0.0388  0.3522  0.1447
  460loPI   C2B 7358   7.469   3.144   9.568 -0.1607  0.2360  0.0588
  460loPI   C3B 7359   7.531   3.147   9.129  0.0315 -0.2183 -0.2718
  460loPI   C4B 7360   7.437   3.246   8.702 -0.1412  0.3380  0.3085
  461loPI    C1 7361  10.218  12.715  10.831 -0.0738 -0.2266  0.0418
  461loPI    C2 7362  10.487  12.875  11.080  0.0453 -0.1803 -0.1148
  461loPI    C3 7363  10.160  12.698  11.227 -0.0616  0.1558  0.0642
  461loPI   PO4 7364  10.181  12.871  10.695 -0.1586  0.1500 -0.1842
  461loPI   GL1 7365  10.324  13.016  10.358 -0.0056 -0.1448 -0.0799
  461loPI   GL2 7366  10.121  13.262  10.309 -0.0433  0.0137  0.0109
  461loPI   C1A 7367  10.493  13.002  10.039 -0.0245 -0.0904 -0.0651
  461loPI   C2A 7368  10.512  13.129   9.642  0.1190  0.2539  0.0929
  461loPI   C3A 7369  10.540  13.024   9.216 -0.1118 -0.3332 -0.1387
  461loPI   C4A 7370  10.395  13.030   8.696 -0.2883 -0.0624  0.1746
  461loPI   C5A 7371  10.268  13.185   8.261  0.0607  0.4449  0.0444
  461loPI   C6A 7372   9.928  12.957   8.111  0.1074  0.0871  0.1375
  461loPI   C1B 7373  10.096  13.215   9.945 -0.1336  0.0473 -0.0586
  461loPI   C2B 7374  10.155  13.352   9.459 -0.0039  0.1217 -0.0194
  461loPI   C3B 7375   9.905  13.302   8.982  0.2089  0.0878 -0.2737
  461loPI   C4B 7376   9.810  13.281   8.579 -0.2000  0.0406 -0.0226
  462loPI    C1 7377   0.124  10.082   9.916  0.2596 -0.0908  0.0071
  462loPI    C2 7378  -0.198   9.903  10.072  0.2051 -0.1238 -0.1412
  462loPI    C3 7379   0.058  10.098  10.310  0.2262 -0.3362  0.0131
  462loPI   PO4 7380   0.212   9.939   9.728 -0.0685 -0.1703 -0.2124
  462loPI   GL1 7381   0.327   9.719   9.329  0.1283 -0.0818 -0.2460
  462loPI   GL2 7382   0.111   9.465   9.191  0.0434 -0.1395 -0.2528
  462loPI   C1A 7383   0.480   9.802   8.887 -0.1638 -0.0494  0.2220
  462loPI   C2A 7384   0.437   9.865   8.450  0.3670  0.1860 -0.2253
  462loPI   C3A 7385   0.534   9.816   8.064  0.0535  0.1629  0.1653
  462loPI   C4A 7386   0.426   9.550   7.695 -0.0534 -0.4448  0.4933
  462loPI   C5A 7387   0.570   9.389   7.349 -0.0553 -0.0255 -0.1988
  462loPI   C6A 7388   0.882   9.347   7.080  0.0772 -0.1728  0.2054
  462loPI   C1B 7389  -0.067   9.496   8.800  0.3515  0.1335  0.0114
  462loPI   C2B 7390  -0.001   9.591   8.393  0.2703 -0.1357 -0.1646
  462loPI   C3B 7391   0.059   9.811   8.047  0.2520 -0.0392 -0.0270
  462loPI   C4B 7392  -0.174  10.122   7.783 -0.0170  0.3074 -0.0577
  463loPI    C1 7393  13.010  14.179  10.803 -0.0265  0.1117  0.0182
  463loPI    C2 7394  13.370  14.349  10.773 -0.0253  0.1034 -0.0140
  463loPI    C3 7395  13.148  14.408  11.100 -0.0055  0.1292 -0.0052
  463loPI   PO4 7396  13.000  14.140  10.490  0.0780 -0.2033 -0.0505
  463loPI   GL1 7397  13.384  14.178  10.179  0.1060  0.1049  0.0735
  463loPI   GL2 7398  13.160  14.351   9.997 -0.2289 -0.1296 -0.1850
  463loPI   C1A 7399  13.548  14.104   9.761 -0.2491  0.1038 -0.0996
  463loPI   C2A 7400  13.469  14.140   9.392 -0.0997  0.0602 -0.1456
  463loPI   C3A 7401  13.488  14.199   8.940 -0.0470  0.5414  0.2441
  463loPI   C4A 7402  13.362  14.277   8.513 -0.1006  0.1439  0.1256
  463loPI   C5A 7403  13.265  14.274   8.228 -0.0407  0.1798  0.0944
  463loPI   C6A 7404  13.475  14.502   7.924 -0.0411 -0.1703  0.0755
  463loPI   C1B 7405  13.071  14.338   9.604  0.3171 -0.2798 -0.3166
  463loPI   C2B 7406  13.004  14.262   9.221 -0.1025  0.1387 -0.1073
  463loPI   C3B 7407  12.890  14.404   8.749 -0.1237 -0.0389 -0.1365
  463loPI   C4B 7408  12.778  14.392   8.305 -0.1822 -0.0349 -0.0870
  464loPI    C1 7409  11.310   5.193  11.129 -0.1439  0.2031  0.0428
  464loPI    C2 7410  11.258   5.556  11.290  0.1746  0.2297  0.0924
  464loPI    C3 7411  11.615   5.376  11.313  0.0346 -0.0644  0.0186
  464loPI   PO4 7412  11.027   5.200  10.966 -0.1789 -0.1129  0.0693
  464loPI   GL1 7413  10.938   5.333  10.573 -0.0257 -0.1543  0.4184
  464loPI   GL2 7414  10.681   5.501  10.414 -0.1879 -0.0148 -0.0979
  464loPI   C1A 7415  11.151   5.473  10.235 -0.2216 -0.0588 -0.0531
  464loPI   C2A 7416  11.108   5.461   9.781 -0.1129  0.1774 -0.2696
  464loPI   C3A 7417  11.111   5.395   9.348  0.1566 -0.1286  0.0202
  464loPI   C4A 7418  11.005   5.475   8.963  0.1087 -0.1081  0.0310
  464loPI   C5A 7419  10.840   5.208   8.630  0.0572 -0.4306 -0.2465
  464loPI   C6A 7420  10.901   5.233   8.144 -0.2319  0.2365 -0.2658
  464loPI   C1B 7421  10.511   5.568  10.066  0.1514  0.3681 -0.0133
  464loPI   C2B 7422  10.523   5.604   9.686  0.0729  0.3617  0.0009
  464loPI   C3B 7423  10.550   5.535   9.284  0.0497 -0.0493 -0.0357
  464loPI   C4B 7424  10.392   5.609   8.877 -0.2546 -0.1070  0.0498
  465loPI    C1 7425   6.252   2.518  10.990 -0.0986  0.3170  0.0478
  465loPI    C2 7426   6.224   2.170  11.185  0.1290  0.1526 -0.2054
  465loPI    C3 7427   5.983   2.474  11.282 -0.0602 -0.0682  0.0301
  465loPI   PO4 7428   6.240   2.467  10.686  0.0560 -0.1130  0.0510
  465loPI   GL1 7429   6.250   2.539  10.193  0.2760 -0.0800 -0.1812
  465loPI   GL2 7430   5.951   2.466  10.071  0.0910 -0.0543 -0.1241
  465loPI   C1A 7431   6.395   2.550   9.719  0.1141  0.0672  0.2291
  465loPI   C2A 7432   6.532   2.500   9.235  0.0078  0.2788 -0.0242
  465loPI   C3A 7433   6.638   2.437   8.781  0.0211 -0.0503  0.3189
  465loPI   C4A 7434   6.701   2.471   8.375 -0.1476 -0.2726 -0.2248
  465loPI   C5A 7435   6.679   2.546   7.953  0.2452  0.1029  0.0962
  465loPI   C6A 7436   7.034   2.744   7.789 -0.0133 -0.0617 -0.0429
  465loPI   C1B 7437   5.928   2.685   9.758 -0.1535  0.3056 -0.0789
  465loPI   C2B 7438   6.073   2.704   9.389 -0.4906  0.1123 -0.1129
  465loPI   C3B 7439   6.056   2.728   8.918  0.0700  0.1062  0.0483
  465loPI   C4B 7440   6.264   2.664   8.568  0.2066  0.1726 -0.0569
  466loPI    C1 7441   2.726  15.596   9.891  0.0374  0.2755  0.2977
  466loPI    C2 7442   2.490  15.357  10.109 -0.1833 -0.0904 -0.3160
  466loPI    C3 7443   2.363  15.721  10.002 -0.1753 -0.0088 -0.0551
  466loPI   PO4 7444   2.801  15.523   9.639  0.0689  0.0856  0.3233
  466loPI   GL1 7445   2.997  15.657   9.386 -0.0497  0.0554  0.2254
  466loPI   GL2 7446   3.239  15.786   9.365 -0.1984 -0.4021 -0.0161
  466loPI   C1A 7447   2.851  15.969   9.121  0.5347  0.0827 -0.3581
  466loPI   C2A 7448   2.817  16.146   8.703  0.0602  0.1045 -0.1060
  466loPI   C3A 7449   2.739  16.155   8.297 -0.0834 -0.0505 -0.0899
  466loPI   C4A 7450   3.105  16.157   7.985  0.2637 -0.1191 -0.0384
  466loPI   C5A 7451   3.389  15.913   7.793 -0.2257 -0.0224  0.0494
  466loPI   C6A 7452   3.396  15.764   7.377 -0.1069 -0.1652  0.4348
  466loPI   C1B 7453   3.230  15.711   8.919 -0.0327 -0.0306 -0.0430
  466loPI   C2B 7454   3.063  15.801   8.507 -0.1841 -0.0943 -0.0087
  466loPI   C3B 7455   2.907  15.685   8.033 -0.2238 -0.1119 -0.1269
  466loPI   C4B 7456   2.649  15.331   7.859  0.2339 -0.2385 -0.1735
  467loPI    C1 7457   1.245   7.971   9.693 -0.0757  0.0740 -0.1712
  467loPI    C2 7458   1.623   8.059   9.594 -0.0066  0.0207  0.0392
  467loPI    C3 7459   1.423   8.293   9.849 -0.1308  0.0718 -0.1037
  467loPI   PO4 7460   1.137   7.901   9.446 -0.0224  0.4642 -0.1803
  467loPI   GL1 7461   1.069   7.760   9.166 -0.1100  0.1368 -0.2687
  467loPI   GL2 7462   0.755   7.579   9.229 -0.0913 -0.3997  0.3133
  467loPI   C1A 7463   1.082   7.588   8.671  0.0959 -0.0029  0.5153
  467loPI   C2A 7464   1.112   7.386   8.260 -0.0249 -0.3583  0.0856
  467loPI   C3A 7465   0.982   7.090   8.014 -0.0239  0.0742 -0.4926
  467loPI   C4A 7466   0.985   7.107   7.610  0.2150 -0.0097  0.2395
  467loPI   C5A 7467   0.706   7.382   7.271 -0.1340 -0.1314  0.0416
  467loPI   C6A 7468   0.725   7.370   6.835 -0.1826 -0.3411 -0.0661
  467loPI   C1B 7469   0.649   7.774   8.836  0.1116  0.0019 -0.0755
  467loPI   C2B 7470   0.621   7.812   8.502 -0.3171  0.2748 -0.0880
  467loPI   C3B 7471   0.820   7.892   8.177  0.2163  0.1974  0.0899
  467loPI   C4B 7472   0.863   7.875   7.765  0.0396  0.1450 -0.1266
  468loPI    C1 7473   9.075  14.171  10.995  0.0984  0.2087 -0.3605
  468loPI    C2 7474   9.462  14.252  10.930  0.1428  0.2518 -0.0559
  468loPI    C3 7475   9.331  14.182  11.302 -0.1154  0.0846 -0.1746
  468loPI   PO4 7476   8.924  14.409  10.812 -0.0379  0.0102  0.0175
  468loPI   GL1 7477   9.190  14.580  10.582  0.0926  0.1399  0.0866
  468loPI   GL2 7478   9.480  14.786  10.729 -0.0175 -0.3266  0.0446
  468loPI   C1A 7479   9.232  14.446  10.123  0.0658 -0.2149 -0.0482
  468loPI   C2A 7480   9.221  14.497   9.693 -0.0367 -0.0777 -0.0516
  468loPI   C3A 7481   9.185  14.530   9.244  0.0042  0.0871 -0.1008
  468loPI   C4A 7482   9.097  14.505   8.826 -0.2751  0.0337 -0.1122
  468loPI   C5A 7483   9.228  14.520   8.310 -0.0923 -0.2117 -0.2664
  468loPI   C6A 7484   9.480  14.638   8.050  0.0709 -0.2991  0.0771
  468loPI   C1B 7485   9.519  14.862  10.314 -0.1475 -0.0697  0.2610
  468loPI   C2B 7486   9.602  14.873   9.834  0.1065  0.1151  0.0503
  468loPI   C3B 7487   9.619  14.865   9.464  0.0467  0.0206 -0.0175
  468loPI   C4B 7488   9.560  14.861   9.135  0.1836 -0.0747  0.1115
  469loPI    C1 7489  16.407  10.433  10.146  0.0839  0.1365  0.0832
  469loPI    C2 7490  16.539  10.168  10.415  0.0406 -0.1652 -0.1879
  469loPI    C3 7491  16.204  10.374  10.486 -0.0534 -0.3538 -0.0760
  469loPI   PO4 7492  16.406  10.284   9.954  0.0123 -0.1469 -0.1050
  469loPI   GL1 7493  16.518  10.022   9.670 -0.1521  0.0779 -0.1762
  469loPI   GL2 7494  16.790  10.228   9.535  0.0828 -0.4892 -0.1358
  469loPI   C1A 7495  16.401   9.737   9.378  0.2448 -0.2173 -0.0740
  469loPI   C2A 7496  16.282   9.574   9.007 -0.0386  0.0743  0.3228
  469loPI   C3A 7497  16.089   9.555   8.575  0.2503 -0.2661  0.3025
  469loPI   C4A 7498  16.038   9.741   8.212  0.1450 -0.5139 -0.1200
  469loPI   C5A 7499  15.866   9.703   7.874 -0.3106  0.1592 -0.1367
  469loPI   C6A 7500  15.506   9.948   7.610 -0.3010  0.0424 -0.1591
  469loPI   C1B 7501  16.596  10.100   9.098 -0.2191  0.2559  0.0909
  469loPI   C2B 7502  16.441   9.987   8.751 -0.3889  0.2056 -0.1609
  469loPI   C3B 7503  16.403  10.030   8.310 -0.0316 -0.1744  0.0392
  469loPI   C4B 7504  16.257  10.179   7.917  0.0137 -0.1675 -0.1149
  470loPI    C1 7505   6.730   6.774  10.377 -0.0493  0.3048  0.0062
  470loPI    C2 7506   6.698   6.734  10.774  0.1262  0.1063  0.0017
  470loPI    C3 7507   6.407   6.600  10.535  0.1213  0.0239  0.0535
  470loPI   PO4 7508   6.975   6.678  10.346  0.1530  0.0009 -0.0933
  470loPI   GL1 7509   7.043   6.424   9.986 -0.2151 -0.1161 -0.1015
  470loPI   GL2 7510   7.473   6.425   9.883  0.6169 -0.0320 -0.1996
  470loPI   C1A 7511   6.941   6.482   9.640  0.1388 -0.1653 -0.2895
  470loPI   C2A 7512   6.925   6.614   9.282 -0.0084  0.4250 -0.3137
  470loPI   C3A 7513   6.966   6.680   8.816 -0.0272  0.2528 -0.0421
  470loPI   C4A 7514   6.952   6.638   8.359 -0.2105 -0.0719 -0.1628
  470loPI   C5A 7515   7.002   6.491   7.917  0.0852 -0.1433 -0.1855
  470loPI   C6A 7516   7.321   6.355   7.676 -0.2718  0.1873 -0.1676
  470loPI   C1B 7517   7.486   6.344   9.408 -0.0376  0.1790  0.1100
  470loPI   C2B 7518   7.533   6.527   9.002 -0.0148  0.1459  0.5314
  470loPI   C3B 7519   7.409   6.518   8.592  0.0997  0.2465  0.2026
  470loPI   C4B 7520   7.462   6.533   8.106 -0.0596 -0.1032  0.1146
  471loPI    C1 7521  14.974  16.025  10.499 -0.2468  0.0649  0.0700
  471loPI    C2 7522  14.982  16.304  10.786  0.0479  0.0430  0.0857
  471loPI    C3 7523  15.120  15.936  10.861 -0.2625 -0.0860  0.0399
  471loPI   PO4 7524  14.867  16.188  10.246  0.1014 -0.0904  0.1873
  471loPI   GL1 7525  14.894  16.280   9.823  0.3401  0.0750  0.0597
  471loPI   GL2 7526  15.015  16.532   9.537  0.1200 -0.1774 -0.2818
  471loPI   C1A 7527  14.967  16.037   9.361 -0.2302  0.2727 -0.2811
  471loPI   C2A 7528  14.958  16.155   8.822  0.4803  0.3520 -0.1307
  471loPI   C3A 7529  14.851  16.217   8.424 -0.1849  0.2843  0.0379
  471loPI   C4A 7530  14.615  16.212   8.006  0.2241  0.0546  0.1940
  471loPI   C5A 7531  14.767  16.014   7.642 -0.0250 -0.3127  0.2913
  471loPI   C6A 7532  14.689  15.824   7.267 -0.0798 -0.0390  0.0471
  471loPI   C1B 7533  14.817  16.602   9.123 -0.2063 -0.0810  0.0956
  471loPI   C2B 7534  14.806  16.697   8.656  0.3253  0.0569  0.2735
  471loPI   C3B 7535  14.710  16.671   8.229 -0.2316  0.1504  0.0310
  471loPI   C4B 7536  14.439  16.751   7.942  0.4424  0.2175  0.1618
  472loPI    C1 7537  11.490   6.204  10.876  0.1150 -0.0755 -0.1492
  472loPI    C2 7538  11.542   5.853  11.063 -0.0334 -0.0527 -0.0630
  472loPI    C3 7539  11.734   6.180  11.192 -0.2799  0.0032  0.1701
  472loPI   PO4 7540  11.499   6.009  10.532 -0.0510  0.4111 -0.1576
  472loPI   GL1 7541  11.556   5.795  10.198 -0.1112  0.1547 -0.0353
  472loPI   GL2 7542  11.917   5.717  10.123 -0.0197 -0.2951 -0.0039
  472loPI   C1A 7543  11.429   5.871   9.682 -0.0372  0.0349  0.1925
  472loPI   C2A 7544  11.347   5.816   9.333 -0.0867  0.1571 -0.2200
  472loPI   C3A 7545  11.385   5.821   8.931 -0.0119 -0.0070 -0.0095
  472loPI   C4A 7546  11.292   5.582   8.550  0.0493 -0.0093  0.1393
  472loPI   C5A 7547  11.487   5.387   8.367  0.1544  0.2085 -0.1763
  472loPI   C6A 7548  11.683   5.586   7.983  0.0103  0.2559  0.0663
  472loPI   C1B 7549  11.990   5.643   9.753 -0.1967  0.1890  0.0650
  472loPI   C2B 7550  11.938   5.681   9.242  0.0647  0.2391 -0.0618
  472loPI   C3B 7551  11.809   5.637   8.711 -0.2759 -0.0462  0.1552
  472loPI   C4B 7552  11.947   5.864   8.343  0.0191  0.0119  0.3760
  473loPI    C1 7553  16.501   1.624  10.710  0.0592 -0.1179 -0.1500
  473loPI    C2 7554  16.335   1.413  11.006  0.1976 -0.0030  0.0116
  473loPI    C3 7555  16.616   1.685  11.088  0.0264  0.2414 -0.1941
  473loPI   PO4 7556  16.347   1.473  10.466  0.1277  0.1971  0.2105
  473loPI   GL1 7557  16.537   1.338  10.036 -0.1435 -0.5882 -0.0565
  473loPI   GL2 7558  16.539   1.183   9.846 -0.0942 -0.2438  0.0563
  473loPI   C1A 7559  16.356   1.520   9.569 -0.1064 -0.0197 -0.1365
  473loPI   C2A 7560  16.297   1.606   9.247 -0.2020 -0.2686  0.0444
  473loPI   C3A 7561  16.139   1.542   8.847 -0.1841  0.3611 -0.2433
  473loPI   C4A 7562  16.129   1.479   8.467 -0.0627 -0.3014 -0.0578
  473loPI   C5A 7563  16.174   1.366   8.127  0.5483 -0.0854 -0.0093
  473loPI   C6A 7564  16.379   1.165   7.735  0.0632  0.1041  0.0421
  473loPI   C1B 7565  16.571   0.950   9.406  0.0567  0.0517 -0.2423
  473loPI   C2B 7566  16.369   1.041   9.126  0.0405 -0.2168 -0.0422
  473loPI   C3B 7567  16.328   1.071   8.798 -0.2266 -0.2037  0.1804
  473loPI   C4B 7568  16.352   0.979   8.270  0.0792  0.0021 -0.1779
  474loPI    C1 7569   2.399  12.895   9.680 -0.0138 -0.0014 -0.2292
  474loPI    C2 7570   2.787  12.868   9.771 -0.0504 -0.0612 -0.0882
  474loPI    C3 7571   2.555  12.543   9.789 -0.1223 -0.0107 -0.1023
  474loPI   PO4 7572   2.324  13.046   9.474  0.0942 -0.1764  0.0236
  474loPI   GL1 7573   2.311  12.932   9.089  0.1017  0.1176 -0.0746
  474loPI   GL2 7574   2.436  12.609   9.035 -0.0048 -0.1587  0.0012
  474loPI   C1A 7575   2.247  12.906   8.643 -0.0062  0.0263  0.0804
  474loPI   C2A 7576   2.103  13.060   8.301 -0.1135  0.3166  0.1804
  474loPI   C3A 7577   2.196  13.039   7.901 -0.2101  0.2618 -0.0311
  474loPI   C4A 7578   2.448  13.270   7.643  0.2938  0.0788  0.1707
  474loPI   C5A 7579   2.892  13.359   7.598  0.0351  0.0312 -0.0390
  474loPI   C6A 7580   3.206  13.620   7.434 -0.2774  0.3313  0.0504
  474loPI   C1B 7581   2.516  12.521   8.624  0.1800  0.3323  0.2050
  474loPI   C2B 7582   2.470  12.719   8.163 -0.0614 -0.0696 -0.0264
  474loPI   C3B 7583   2.669  12.859   7.805  0.1794 -0.0031 -0.0172
  474loPI   C4B 7584   2.703  12.828   7.374 -0.0704  0.1179  0.1735
  475loPI    C1 7585  11.016  13.330  10.863  0.2249  0.0447 -0.1629
  475loPI    C2 7586  10.867  13.696  10.800 -0.0224 -0.0035  0.1217
  475loPI    C3 7587  11.088  13.623  11.126 -0.0577 -0.1311  0.1172
  475loPI   PO4 7588  11.143  13.243  10.619 -0.0696  0.0581  0.1959
  475loPI   GL1 7589  11.380  13.424  10.256  0.0253 -0.2245 -0.0540
  475loPI   GL2 7590  11.164  13.744  10.337  0.2652  0.0527 -0.1630
  475loPI   C1A 7591  11.477  13.421   9.714  0.1089  0.1706 -0.0494
  475loPI   C2A 7592  11.402  13.352   9.275 -0.0110  0.2228  0.0094
  475loPI   C3A 7593  11.271  13.334   8.868 -0.0364  0.0526  0.0045
  475loPI   C4A 7594  11.301  13.403   8.376  0.0052  0.0228 -0.1590
  475loPI   C5A 7595  11.305  13.068   8.051 -0.1240 -0.2105 -0.1225
  475loPI   C6A 7596  11.127  12.755   7.908  0.0702  0.0643  0.0267
  475loPI   C1B 7597  11.243  13.887   9.869  0.0933 -0.3839 -0.0884
  475loPI   C2B 7598  11.324  13.820   9.411  0.1583 -0.1318 -0.1739
  475loPI   C3B 7599  11.175  13.780   9.018 -0.0946  0.0999  0.0256
  475loPI   C4B 7600  11.220  13.866   8.578 -0.0586 -0.0295 -0.2118
  476loPI    C1 7601  13.544  14.836  10.688 -0.1907 -0.0473 -0.0471
  476loPI    C2 7602  13.844  14.616  10.836 -0.1166  0.0462 -0.0571
  476loPI    C3 7603  13.863  15.015  10.851 -0.1861  0.0540 -0.1664
  476loPI   PO4 7604  13.478  14.728  10.443  0.0836  0.0743 -0.2262
  476loPI   GL1 7605  13.333  14.843  10.066  0.1720 -0.0677  0.1995
  476loPI   GL2 7606  13.630  14.970   9.937  0.2698 -0.3328 -0.1073
  476loPI   C1A 7607  13.006  14.861   9.697  0.1420  0.2779 -0.0554
  476loPI   C2A 7608  12.968  14.762   9.333  0.0740 -0.3179  0.1518
  476loPI   C3A 7609  12.866  14.902   8.981 -0.3123  0.3223 -0.0684
  476loPI   C4A 7610  12.818  14.873   8.612  0.1823  0.1285  0.1497
  476loPI   C5A 7611  12.797  15.012   8.235 -0.0696  0.2948 -0.0754
  476loPI   C6A 7612  12.501  14.875   8.033  0.2296 -0.0388 -0.0842
  476loPI   C1B 7613  13.805  15.121   9.521  0.0814 -0.0346  0.0919
  476loPI   C2B 7614  13.665  15.023   9.099 -0.3419 -0.3164 -0.3562
  476loPI   C3B 7615  13.619  15.153   8.690  0.3021  0.0831 -0.1518
  476loPI   C4B 7616  13.800  15.050   8.445 -0.2560 -0.5925 -0.1857
  477loPI    C1 7617   4.104  14.807   9.556  0.0388  0.2978 -0.1997
  477loPI    C2 7618   4.011  15.010   9.888 -0.0114 -0.0819  0.0255
  477loPI    C3 7619   3.747  14.985   9.589 -0.1057 -0.0334  0.1039
  477loPI   PO4 7620   4.239  14.608   9.656  0.0504  0.0089  0.1542
  477loPI   GL1 7621   4.623  14.540   9.429 -0.0180 -0.1438  0.0038
  477loPI   GL2 7622   4.910  14.673   9.454  0.0402 -0.0079  0.0499
  477loPI   C1A 7623   4.361  14.340   9.082  0.3276 -0.2910  0.0394
  477loPI   C2A 7624   4.546  14.054   8.727  0.1860 -0.1373 -0.0654
  477loPI   C3A 7625   4.683  13.961   8.471  0.0491 -0.2853  0.0176
  477loPI   C4A 7626   4.636  13.852   7.999  0.2481 -0.1032 -0.1033
  477loPI   C5A 7627   4.353  13.908   7.633 -0.0308  0.1237 -0.1490
  477loPI   C6A 7628   4.249  13.891   7.185 -0.1006  0.0967  0.1708
  477loPI   C1B 7629   4.767  14.753   8.992 -0.0907  0.0157  0.0950
  477loPI   C2B 7630   4.734  14.767   8.594 -0.1722 -0.3541 -0.0191
  477loPI   C3B 7631   4.693  14.847   8.173  0.2186  0.0479  0.1630
  477loPI   C4B 7632   4.898  14.993   7.785 -0.0008  0.0456 -0.1562
  478loPI    C1 7633   9.245  17.880  11.154  0.2644 -0.1238  0.1307
  478loPI    C2 7634   9.054  17.545  11.263  0.0693  0.0032  0.1835
  478loPI    C3 7635   9.223  17.778  11.541 -0.3990  0.3096  0.2229
  478loPI   PO4 7636   9.052  17.970  10.878  0.5620  0.2772  0.0733
  478loPI   GL1 7637   9.056  17.889  10.521 -0.1247 -0.4393 -0.1343
  478loPI   GL2 7638   9.262  17.719  10.377 -0.0612  0.2705 -0.1188
  478loPI   C1A 7639   8.922  17.886   9.996  0.0875  0.0820 -0.0645
  478loPI   C2A 7640   8.902  17.943   9.604 -0.0874 -0.0562 -0.0662
  478loPI   C3A 7641   8.768  17.980   9.216 -0.2776 -0.1172 -0.2223
  478loPI   C4A 7642   8.782  17.948   8.789  0.0751 -0.0572  0.0111
  478loPI   C5A 7643   9.080  18.030   8.423  0.0742 -0.2080 -0.1003
  478loPI   C6A 7644   9.354  18.302   8.117  0.1545 -0.0706  0.0852
  478loPI   C1B 7645   9.390  17.702   9.981  0.1044  0.0455  0.0112
  478loPI   C2B 7646   9.342  17.728   9.566 -0.2663 -0.0248  0.0776
  478loPI   C3B 7647   9.318  17.755   9.063 -0.2724 -0.1050 -0.1217
  478loPI   C4B 7648   9.468  17.778   8.681  0.1318  0.1217 -0.1644
  479loPI    C1 7649  11.745  16.786  10.872  0.0139  0.1551  0.1200
  479loPI    C2 7650  11.744  16.406  10.997  0.1209  0.0906 -0.0707
  479loPI    C3 7651  11.524  16.513  10.681  0.0444  0.2004  0.0192
  479loPI   PO4 7652  11.954  16.878  10.753  0.1971 -0.1584 -0.1185
  479loPI   GL1 7653  12.096  16.833  10.397  0.1694 -0.1888  0.0325
  479loPI   GL2 7654  12.124  17.039  10.175 -0.3199  0.1837  0.1418
  479loPI   C1A 7655  12.168  16.590   9.938  0.1081  0.0749 -0.1133
  479loPI   C2A 7656  12.059  16.605   9.465  0.4641  0.1267 -0.0096
  479loPI   C3A 7657  11.990  16.424   9.126 -0.3151  0.2492  0.2824
  479loPI   C4A 7658  11.897  16.596   8.656 -0.0173 -0.0542  0.1053
  479loPI   C5A 7659  11.823  16.612   8.160 -0.0313  0.2538 -0.1830
  479loPI   C6A 7660  11.748  16.557   7.779 -0.1380  0.1921 -0.0747
  479loPI   C1B 7661  12.009  17.047   9.751  0.4617  0.0727 -0.0681
  479loPI   C2B 7662  11.920  17.050   9.419  0.1121  0.0318 -0.1247
  479loPI   C3B 7663  11.888  16.955   9.029 -0.2421 -0.0611  0.1036
  479loPI   C4B 7664  11.798  17.080   8.622  0.2090 -0.1987 -0.2315
  480loPI    C1 7665  10.964  14.211  11.196  0.0401 -0.1694  0.1370
  480loPI    C2 7666  10.993  14.610  11.189  0.1370 -0.1791 -0.1559
  480loPI    C3 7667  11.026  14.413  11.535 -0.1112  0.0796  0.0192
  480loPI   PO4 7668  10.808  14.158  10.929  0.0344 -0.0102  0.1828
  480loPI   GL1 7669  10.908  14.126  10.569  0.1295  0.1272 -0.1130
  480loPI   GL2 7670  11.157  14.256  10.419 -0.3111  0.2337  0.0233
  480loPI   C1A 7671  10.787  13.945  10.085  0.0494  0.5101  0.0302
  480loPI   C2A 7672  10.794  13.989   9.591 -0.1734  0.0531  0.0394
  480loPI   C3A 7673  10.625  14.010   9.116 -0.0491 -0.1073 -0.1505
  480loPI   C4A 7674  10.589  13.950   8.653  0.1128  0.0447  0.1521
  480loPI   C5A 7675  10.442  13.883   8.306 -0.0738  0.0607 -0.1663
  480loPI   C6A 7676  10.180  13.899   8.078  0.1198  0.0268  0.1093
  480loPI   C1B 7677  11.205  14.403  10.028  0.0598 -0.0811  0.0741
  480loPI   C2B 7678  11.046  14.370   9.528 -0.2210 -0.2855 -0.3939
  480loPI   C3B 7679  11.098  14.322   9.107  0.0475  0.4263  0.0337
  480loPI   C4B 7680  10.915  14.326   8.739 -0.0530 -0.1029  0.1251
  481loPI    C1 7681  16.151  11.908  10.311 -0.1540  0.3085  0.0488
  481loPI    C2 7682  15.790  11.942  10.479 -0.0373 -0.0773  0.3940
  481loPI    C3 7683  16.098  11.805  10.694  0.1875 -0.2932 -0.0535
  481loPI   PO4 7684  16.059  11.800  10.046  0.1748 -0.1431  0.1573
  481loPI   GL1 7685  15.990  11.988   9.671 -0.0604 -0.1228 -0.2183
  481loPI   GL2 7686  15.846  11.724   9.461  0.0162 -0.3789  0.0923
  481loPI   C1A 7687  15.717  12.277   9.425  0.1893 -0.3184 -0.1490
  481loPI   C2A 7688  15.361  12.174   9.133 -0.0880  0.0945  0.3047
  481loPI   C3A 7689  15.299  12.130   8.727  0.1250  0.1572  0.0445
  481loPI   C4A 7690  15.201  12.218   8.323  0.2174 -0.0050  0.1764
  481loPI   C5A 7691  15.374  12.336   7.971 -0.1337 -0.1321 -0.1361
  481loPI   C6A 7692  15.108  12.540   7.509 -0.0420 -0.0182 -0.0231
  481loPI   C1B 7693  15.496  11.631   9.168  0.2244 -0.2213 -0.0741
  481loPI   C2B 7694  15.446  11.614   8.677 -0.0274  0.3941 -0.0934
  481loPI   C3B 7695  15.328  11.728   8.316 -0.1797  0.0324 -0.0614
  481loPI   C4B 7696  15.331  11.652   7.855  0.3248  0.0243  0.0335
  482loPI    C1 7697   6.683   9.921  10.694  0.1215  0.0526  0.0797
  482loPI    C2 7698   6.994  10.094  10.877  0.1069 -0.0515  0.2043
  482loPI    C3 7699   6.903   9.712  10.955  0.0170 -0.0557  0.0821
  482loPI   PO4 7700   6.723   9.951  10.421 -0.0630 -0.1704  0.1180
  482loPI   GL1 7701   6.558   9.832  10.067  0.1858 -0.1147  0.0924
  482loPI   GL2 7702   6.254   9.593  10.022 -0.0073  0.0774  0.4381
  482loPI   C1A 7703   6.470  10.084   9.734  0.0148  0.0797  0.0609
  482loPI   C2A 7704   6.510  10.047   9.308 -0.1521  0.1273 -0.1067
  482loPI   C3A 7705   6.529  10.011   8.888 -0.1270  0.0689 -0.0336
  482loPI   C4A 7706   6.559  10.001   8.353  0.2186  0.2574  0.0314
  482loPI   C5A 7707   6.537  10.060   7.886  0.0795  0.2888  0.0282
  482loPI   C6A 7708   6.922  10.114   7.576 -0.2998  0.1424  0.3219
  482loPI   C1B 7709   6.455   9.523   9.606 -0.2059  0.0228  0.0566
  482loPI   C2B 7710   6.749   9.437   9.290 -0.2096  0.0663  0.0092
  482loPI   C3B 7711   6.657   9.544   8.917 -0.3308 -0.0825  0.0617
  482loPI   C4B 7712   6.711   9.481   8.568 -0.0773 -0.2107  0.1636
  483loPI    C1 7713   1.025   9.661   9.638  0.0076 -0.3459  0.1756
  483loPI    C2 7714   0.984   9.952   9.909  0.0285 -0.1096 -0.0703
  483loPI    C3 7715   1.349   9.828   9.802  0.0284  0.0187 -0.2214
  483loPI   PO4 7716   0.854   9.677   9.521 -0.1220  0.3320  0.1167
  483loPI   GL1 7717   0.738   9.492   9.189  0.4280  0.0110 -0.4007
  483loPI   GL2 7718   0.564   9.339   9.058 -0.0984  0.1914 -0.0590
  483loPI   C1A 7719   0.897   9.528   8.693 -0.0406  0.2652  0.1485
  483loPI   C2A 7720   0.897   9.450   8.310 -0.1184 -0.2693  0.2916
  483loPI   C3A 7721   0.842   9.254   7.863  0.0608 -0.2076  0.0325
  483loPI   C4A 7722   0.855   9.018   7.516 -0.0917  0.0630  0.1550
  483loPI   C5A 7723   0.958   8.784   7.298  0.3230  0.0104 -0.2472
  483loPI   C6A 7724   0.899   8.775   6.907  0.3509 -0.2654 -0.1143
  483loPI   C1B 7725   0.369   9.274   8.632 -0.0935  0.0187  0.1031
  483loPI   C2B 7726   0.383   9.270   8.147  0.0792 -0.3177 -0.0410
  483loPI   C3B 7727   0.179   9.131   7.808 -0.3195 -0.0720  0.2555
  483loPI   C4B 7728   0.133   9.130   7.451 -0.0248 -0.3173  0.1944
  484loPI    C1 7729  16.892  15.711   9.676 -0.1045 -0.1570 -0.0851
  484loPI    C2 7730  17.242  15.537   9.592 -0.0885 -0.1476 -0.0384
  484loPI    C3 7731  17.112  15.551   9.970 -0.1196 -0.1143 -0.0503
  484loPI   PO4 7732  16.745  15.614   9.580 -0.0474  0.0304  0.0879
  484loPI   GL1 7733  16.500  15.704   9.244 -0.2251 -0.1396  0.1175
  484loPI   GL2 7734  16.761  15.929   9.192 -0.0808  0.1787  0.0965
  484loPI   C1A 7735  16.415  15.708   8.827 -0.4921 -0.2484  0.3368
  484loPI   C2A 7736  16.333  15.708   8.353 -0.1392 -0.2340  0.2302
  484loPI   C3A 7737  16.364  15.996   7.949 -0.0778 -0.4712  0.0887
  484loPI   C4A 7738  16.399  16.315   7.488  0.0394 -0.0339 -0.2572
  484loPI   C5A 7739  16.437  16.698   7.313  0.0989 -0.1091 -0.0331
  484loPI   C6A 7740  16.383  17.136   7.487 -0.0081  0.0761  0.2547
  484loPI   C1B 7741  16.814  16.022   8.746 -0.0600 -0.1828 -0.0491
  484loPI   C2B 7742  16.713  16.046   8.318  0.0557 -0.1990  0.0236
  484loPI   C3B 7743  16.757  16.251   7.938 -0.0009 -0.1767  0.1187
  484loPI   C4B 7744  16.771  15.972   7.567 -0.0665  0.4727  0.1471
  485loPI    C1 7745  14.624   2.184  10.777 -0.2865  0.0297  0.1221
  485loPI    C2 7746  14.567   1.820  10.934 -0.0430  0.0013  0.1475
  485loPI    C3 7747  14.872   2.048  11.059 -0.0260  0.0999 -0.0690
  485loPI   PO4 7748  14.306   2.338  10.730  0.2308 -0.2090  0.2736
  485loPI   GL1 7749  14.235   2.494  10.295  0.0368  0.1129  0.4118
  485loPI   GL2 7750  13.896   2.385  10.234 -0.0943  0.2296 -0.0464
  485loPI   C1A 7751  14.205   2.596   9.820 -0.0809 -0.0602 -0.0536
  485loPI   C2A 7752  14.115   2.642   9.372 -0.1977 -0.0386  0.1516
  485loPI   C3A 7753  14.025   2.587   9.021  0.3963 -0.2980 -0.1307
  485loPI   C4A 7754  13.964   2.568   8.649  0.0774  0.2819  0.1586
  485loPI   C5A 7755  14.129   2.300   8.129  0.0484 -0.3055 -0.0368
  485loPI   C6A 7756  14.304   2.450   7.769 -0.0999 -0.0936 -0.2939
  485loPI   C1B 7757  13.702   2.225   9.839 -0.3682 -0.1412  0.2686
  485loPI   C2B 7758  13.724   2.327   9.339  0.2303  0.0426 -0.0063
  485loPI   C3B 7759  13.618   2.217   8.959  0.0176 -0.0283  0.0821
  485loPI   C4B 7760  13.600   2.128   8.531  0.0896 -0.2039  0.1917
  486loPI    C1 7761   7.156   2.625  10.595 -0.0769  0.1013 -0.0102
  486loPI    C2 7762   7.407   2.928  10.668  0.2072 -0.1605  0.1250
  486loPI    C3 7763   7.073   2.887  10.886  0.1117  0.1134  0.0339
  486loPI   PO4 7764   7.122   2.598  10.387  0.2146  0.3320 -0.1911
  486loPI   GL1 7765   7.152   2.823   9.982 -0.0585  0.1553 -0.1561
  486loPI   GL2 7766   6.764   2.772  10.054  0.0625  0.1060  0.1519
  486loPI   C1A 7767   7.459   2.631   9.788  0.1215  0.0043 -0.0108
  486loPI   C2A 7768   7.633   2.653   9.340 -0.0296 -0.0208 -0.1641
  486loPI   C3A 7769   7.536   2.585   8.885  0.2163  0.2670 -0.1793
  486loPI   C4A 7770   7.670   2.820   8.479 -0.0219  0.1678 -0.1618
  486loPI   C5A 7771   7.631   3.084   8.214 -0.0775 -0.0140 -0.0303
  486loPI   C6A 7772   7.755   3.515   8.251  0.1786 -0.0134 -0.0673
  486loPI   C1B 7773   6.993   2.779   9.528 -0.1170  0.2153 -0.2120
  486loPI   C2B 7774   6.902   2.761   9.104  0.2959 -0.1360 -0.3923
  486loPI   C3B 7775   7.006   2.851   8.683 -0.1842 -0.1888 -0.0808
  486loPI   C4B 7776   7.089   3.029   8.173  0.1784  0.0085 -0.1195
  487loPI    C1 7777  13.560  15.339  10.497 -0.0593 -0.1202 -0.0807
  487loPI    C2 7778  13.204  15.157  10.480 -0.1462  0.0338  0.0581
  487loPI    C3 7779  13.224  15.553  10.531  0.0473 -0.0008  0.2706
  487loPI   PO4 7780  13.698  15.278  10.388 -0.3411 -0.1972  0.1619
  487loPI   GL1 7781  13.701  15.517   9.981  0.1848  0.1864  0.2532
  487loPI   GL2 7782  13.367  15.371   9.951 -0.1500 -0.1629  0.2425
  487loPI   C1A 7783  13.659  15.604   9.515  0.1482  0.2518  0.3042
  487loPI   C2A 7784  13.714  15.561   9.016  0.0993  0.1383 -0.0139
  487loPI   C3A 7785  13.657  15.658   8.620  0.1605  0.2181  0.2697
  487loPI   C4A 7786  13.530  15.629   8.213  0.1412 -0.1724 -0.0086
  487loPI   C5A 7787  13.726  15.290   7.937  0.1099  0.3475  0.1158
  487loPI   C6A 7788  13.874  14.929   7.908  0.3040  0.0374  0.0907
  487loPI   C1B 7789  13.272  15.210   9.479 -0.0978 -0.0536  0.3754
  487loPI   C2B 7790  13.259  15.280   8.972 -0.1252  0.0817 -0.3312
  487loPI   C3B 7791  13.052  15.289   8.562 -0.2054 -0.0463 -0.0572
  487loPI   C4B 7792  13.248  15.272   8.138  0.1159  0.3318  0.1592
  488loPI    C1 7793   7.044   4.915  10.906  0.0392  0.0108 -0.2898
  488loPI    C2 7794   6.701   5.114  10.954  0.2027  0.2537 -0.1051
  488loPI    C3 7795   6.706   4.715  10.981 -0.0464  0.2557 -0.0077
  488loPI   PO4 7796   7.116   4.999  10.621 -0.1141 -0.0135 -0.0316
  488loPI   GL1 7797   7.231   4.900  10.268 -0.2293 -0.1348 -0.2255
  488loPI   GL2 7798   7.387   4.623  10.307  0.1703 -0.0358  0.1671
  488loPI   C1A 7799   7.389   4.993   9.895 -0.4348  0.1633  0.1718
  488loPI   C2A 7800   7.403   5.107   9.499 -0.1813  0.2400  0.0960
  488loPI   C3A 7801   7.391   5.009   9.084  0.0016  0.3532  0.0574
  488loPI   C4A 7802   7.391   4.986   8.652  0.0019  0.1141  0.2049
  488loPI   C5A 7803   7.592   5.191   8.321  0.3421  0.0741  0.2582
  488loPI   C6A 7804   7.577   5.494   7.897 -0.0414 -0.1934  0.0279
  488loPI   C1B 7805   7.547   4.520   9.932  0.1803 -0.1586 -0.1156
  488loPI   C2B 7806   7.596   4.489   9.540  0.0906  0.0259  0.0443
  488loPI   C3B 7807   7.595   4.547   9.091 -0.1498 -0.0194  0.1548
  488loPI   C4B 7808   7.461   4.518   8.747 -0.0002  0.2922  0.0294
  489loPI    C1 7809   1.422   3.606  10.353 -0.2937 -0.0209 -0.0513
  489loPI    C2 7810   1.137   3.326  10.331 -0.1164 -0.2084  0.0112
  489loPI    C3 7811   1.203   3.519  10.676  0.0401 -0.3889  0.0845
  489loPI   PO4 7812   1.365   3.808  10.051  0.0035  0.1809 -0.2116
  489loPI   GL1 7813   1.671   3.983   9.727  0.1047  0.0951  0.0702
  489loPI   GL2 7814   1.510   4.256   9.781  0.1627 -0.3499  0.2186
  489loPI   C1A 7815   1.782   3.809   9.313 -0.1500 -0.0627 -0.0633
  489loPI   C2A 7816   1.943   3.716   8.961 -0.2795 -0.0865 -0.2377
  489loPI   C3A 7817   2.096   3.821   8.495 -0.2675  0.1608  0.0457
  489loPI   C4A 7818   2.309   3.853   8.042 -0.0761  0.0443 -0.0049
  489loPI   C5A 7819   2.135   3.607   7.706 -0.0394  0.3080 -0.1471
  489loPI   C6A 7820   1.842   3.300   7.558  0.1417 -0.1098 -0.4251
  489loPI   C1B 7821   1.353   4.195   9.361  0.1987 -0.0668 -0.0567
  489loPI   C2B 7822   1.411   4.099   8.916 -0.1048 -0.2381 -0.2900
  489loPI   C3B 7823   1.381   4.161   8.556 -0.1212 -0.2503  0.1112
  489loPI   C4B 7824   1.667   4.061   8.304 -0.0776 -0.0527 -0.0315
  490loPI    C1 7825   7.277  10.710  10.808 -0.0479  0.0720  0.0745
  490loPI    C2 7826   6.921  10.827  10.670 -0.0148 -0.0794 -0.1440
  490loPI    C3 7827   7.187  11.099  10.791 -0.1600  0.0399 -0.0898
  490loPI   PO4 7828   7.314  10.493  10.648  0.2123 -0.2667  0.3939
  490loPI   GL1 7829   7.368  10.374  10.191 -0.0119 -0.0769 -0.0356
  490loPI   GL2 7830   7.580  10.169   9.999 -0.1879 -0.3427  0.0109
  490loPI   C1A 7831   7.281  10.614   9.859 -0.2005  0.1138 -0.0336
  490loPI   C2A 7832   7.322  10.667   9.369  0.0353  0.2304 -0.3247
  490loPI   C3A 7833   7.239  10.772   8.991  0.0366 -0.0547 -0.1566
  490loPI   C4A 7834   7.305  10.714   8.489  0.0883 -0.1464 -0.1917
  490loPI   C5A 7835   7.282  10.624   8.066 -0.0205  0.0953  0.3042
  490loPI   C6A 7836   7.367  10.378   7.759  0.0444  0.0129  0.0497
  490loPI   C1B 7837   7.408  10.176   9.535 -0.1688  0.0927 -0.1385
  490loPI   C2B 7838   7.386  10.224   9.096 -0.0023 -0.0638 -0.4971
  490loPI   C3B 7839   7.426  10.158   8.693  0.1087 -0.1633 -0.1250
  490loPI   C4B 7840   7.400  10.177   8.272 -0.0266  0.0004  0.0831
  491loPI    C1 7841   6.354   3.055  10.421 -0.0696  0.0754  0.3703
  491loPI    C2 7842   6.611   2.864  10.660 -0.0481 -0.0722  0.2309
  491loPI    C3 7843   6.254   2.978  10.801 -0.0897 -0.2791  0.2963
  491loPI   PO4 7844   6.466   3.244  10.333 -0.3494 -0.4515  0.0786
  491loPI   GL1 7845   6.641   3.319  10.020  0.1191 -0.1150 -0.2904
  491loPI   GL2 7846   6.415   3.520   9.803  0.0942  0.0820  0.0123
  491loPI   C1A 7847   6.951   3.302   9.713  0.3144 -0.0558 -0.2073
  491loPI   C2A 7848   6.983   3.295   9.384  0.0772 -0.1480  0.5094
  491loPI   C3A 7849   7.017   3.204   9.015 -0.5827 -0.1570  0.0745
  491loPI   C4A 7850   6.918   3.436   8.688 -0.1699  0.1842 -0.2200
  491loPI   C5A 7851   7.102   3.596   8.318 -0.0755  0.1079 -0.0915
  491loPI   C6A 7852   7.329   3.508   8.019  0.1137  0.1085 -0.1651
  491loPI   C1B 7853   6.148   3.560   9.369  0.0192  0.0629  0.1085
  491loPI   C2B 7854   6.285   3.539   8.894  0.2741 -0.0835  0.1430
  491loPI   C3B 7855   6.322   3.515   8.410 -0.1238 -0.1840  0.0325
  491loPI   C4B 7856   6.668   3.413   8.137 -0.1269 -0.0438  0.3867
  492loPI    C1 7857   8.899   2.368  10.794 -0.3037  0.2374 -0.0705
  492loPI    C2 7858   9.125   2.684  10.889  0.1949 -0.2178  0.3180
  492loPI    C3 7859   8.780   2.621  11.080 -0.0746  0.2590  0.0081
  492loPI   PO4 7860   8.946   2.385  10.541  0.2744 -0.2195 -0.1252
  492loPI   GL1 7861   8.918   2.174  10.104 -0.0466  0.3943  0.2539
  492loPI   GL2 7862   8.562   2.271  10.119  0.1357  0.1540  0.2200
  492loPI   C1A 7863   9.167   2.255   9.714  0.1668 -0.4127  0.1811
  492loPI   C2A 7864   9.048   2.244   9.276  0.1727  0.0493 -0.0572
  492loPI   C3A 7865   9.047   2.165   8.848 -0.0731 -0.3591 -0.2219
  492loPI   C4A 7866   8.959   2.195   8.360  0.2308  0.3908 -0.0189
  492loPI   C5A 7867   8.755   1.980   8.048  0.4050 -0.2312 -0.0669
  492loPI   C6A 7868   8.578   1.852   7.621  0.0671 -0.1957  0.0409
  492loPI   C1B 7869   8.664   2.405   9.676  0.2142  0.2500  0.0347
  492loPI   C2B 7870   8.557   2.436   9.234 -0.1573 -0.0648  0.2815
  492loPI   C3B 7871   8.522   2.298   8.880  0.1602  0.0436 -0.1055
  492loPI   C4B 7872   8.522   2.390   8.495  0.0305  0.0518 -0.2266
  493loPI    C1 7873  11.659  17.733  10.701  0.1903 -0.0018  0.1040
  493loPI    C2 7874  11.511  18.104  10.716 -0.1407 -0.1225 -0.0714
  493loPI    C3 7875  11.647  17.929  11.049 -0.1098  0.1040  0.0367
  493loPI   PO4 7876  11.808  17.639  10.491  0.1619  0.3312 -0.0145
  493loPI   GL1 7877  11.981  17.585  10.134  0.1238 -0.2214  0.2526
  493loPI   GL2 7878  12.289  17.522  10.089 -0.3261 -0.2182  0.0068
  493loPI   C1A 7879  11.847  17.575   9.735  0.2072 -0.0034  0.1315
  493loPI   C2A 7880  11.853  17.544   9.400  0.0358  0.1570  0.0635
  493loPI   C3A 7881  11.746  17.498   8.876 -0.1147 -0.2261  0.2971
  493loPI   C4A 7882  11.646  17.572   8.437  0.0752 -0.1663  0.0196
  493loPI   C5A 7883  11.797  17.761   7.976 -0.0459  0.0181  0.1127
  493loPI   C6A 7884  12.105  17.863   7.798 -0.1132 -0.2505 -0.0187
  493loPI   C1B 7885  12.286  17.410   9.609 -0.0436  0.0467  0.1757
  493loPI   C2B 7886  12.214  17.358   9.116 -0.3642 -0.2363 -0.3660
  493loPI   C3B 7887  12.237  17.435   8.690  0.3633 -0.2804  0.0810
  493loPI   C4B 7888  12.072  17.440   8.289  0.0833 -0.0260  0.0221
  494loPI    C1 7889   9.976  17.334  10.791  0.0795 -0.0709  0.1742
  494loPI    C2 7890   9.824  17.155  11.115 -0.0960 -0.3119 -0.0382
  494loPI    C3 7891  10.007  16.937  10.834  0.0228 -0.1086 -0.1202
  494loPI   PO4 7892   9.746  17.479  10.689  0.0982 -0.3022  0.1581
  494loPI   GL1 7893   9.787  17.761  10.404 -0.1700 -0.1757 -0.0100
  494loPI   GL2 7894   9.721  18.079  10.296  0.3020 -0.0300 -0.1653
  494loPI   C1A 7895  10.044  17.855  10.011  0.0492  0.1817  0.3505
  494loPI   C2A 7896  10.150  17.856   9.603  0.2657 -0.0602  0.3130
  494loPI   C3A 7897  10.400  18.014   9.182 -0.1343 -0.1506 -0.2738
  494loPI   C4A 7898  10.285  18.084   8.824  0.1739  0.2689  0.0225
  494loPI   C5A 7899   9.939  17.907   8.568 -0.3155  0.3301 -0.1238
  494loPI   C6A 7900   9.835  17.578   8.376 -0.0834 -0.0187  0.2833
  494loPI   C1B 7901   9.675  18.121   9.827 -0.1113 -0.6286  0.0936
  494loPI   C2B 7902   9.672  18.069   9.342  0.3401 -0.3363 -0.1505
  494loPI   C3B 7903   9.755  18.036   9.029  0.1053  0.0978  0.0448
  494loPI   C4B 7904   9.589  18.301   8.599 -0.0237  0.2986 -0.2307
  495loPI    C1 7905   2.324   2.020  10.171  0.0211 -0.1823  0.0013
  495loPI    C2 7906   2.574   2.005   9.859 -0.0716  0.2226 -0.0982
  495loPI    C3 7907   2.704   1.907  10.224  0.0623 -0.1655 -0.2450
  495loPI   PO4 7908   2.083   2.049  10.051  0.0639 -0.1075  0.2444
  495loPI   GL1 7909   1.896   1.960   9.712 -0.0614 -0.0087  0.1441
  495loPI   GL2 7910   2.130   2.086   9.562 -0.2040 -0.0313 -0.1817
  495loPI   C1A 7911   1.849   1.766   9.370  0.1577  0.3614 -0.0746
  495loPI   C2A 7912   1.928   1.741   8.959 -0.1537 -0.3580  0.0464
  495loPI   C3A 7913   1.807   1.832   8.511 -0.0566 -0.1751 -0.0712
  495loPI   C4A 7914   1.805   1.966   8.145  0.0633  0.0089  0.0762
  495loPI   C5A 7915   1.977   2.222   7.826 -0.0003 -0.2353  0.5039
  495loPI   C6A 7916   2.192   2.428   7.564  0.1552  0.0625  0.3197
  495loPI   C1B 7917   2.276   2.088   9.113  0.1823 -0.2293 -0.2334
  495loPI   C2B 7918   2.223   2.189   8.685  0.2192 -0.0011  0.3435
  495loPI   C3B 7919   2.271   2.205   8.260 -0.1347  0.2858 -0.2049
  495loPI   C4B 7920   2.455   2.146   7.921  0.2149 -0.1862 -0.3034
  496loPI    C1 7921   7.886   5.096  11.012  0.1600  0.0127 -0.0045
  496loPI    C2 7922   8.046   5.144  11.376  0.0146 -0.0100  0.0628
  496loPI    C3 7923   7.866   5.452  11.194 -0.1084 -0.0563  0.1049
  496loPI   PO4 7924   8.114   5.036  10.870 -0.2476  0.2664  0.1031
  496loPI   GL1 7925   8.277   4.943  10.425 -0.3066 -0.1842 -0.0637
  496loPI   GL2 7926   8.231   5.241  10.366 -0.0515 -0.0162  0.4162
  496loPI   C1A 7927   8.296   4.769  10.090 -0.2958  0.1798  0.1824
  496loPI   C2A 7928   8.329   4.795   9.676 -0.0437  0.3071  0.2553
  496loPI   C3A 7929   8.402   4.751   9.217 -0.0502  0.0757  0.0119
  496loPI   C4A 7930   8.427   4.825   8.741  0.1405 -0.0988 -0.0849
  496loPI   C5A 7931   8.413   4.617   8.358 -0.3321  0.1696  0.0685
  496loPI   C6A 7932   8.212   4.438   8.030 -0.1293  0.1008 -0.0265
  496loPI   C1B 7933   8.272   5.291   9.922 -0.0041 -0.2174 -0.0622
  496loPI   C2B 7934   8.327   5.286   9.441  0.0173  0.1225  0.0857
  496loPI   C3B 7935   8.253   5.249   9.060  0.0410 -0.0640  0.2991
  496loPI   C4B 7936   8.101   5.297   8.538 -0.3574  0.2237  0.1397
  497loPI    C1 7937   7.249   9.971  10.474  0.0298  0.0846  0.1527
  497loPI    C2 7938   7.352   9.713  10.762  0.0880 -0.0356  0.0250
  497loPI    C3 7939   7.510  10.080  10.757  0.3358 -0.1411 -0.0373
  497loPI   PO4 7940   7.229   9.841  10.231 -0.4566  0.2097 -0.0883
  497loPI   GL1 7941   7.088   9.888   9.966 -0.1633 -0.1527 -0.2073
  497loPI   GL2 7942   6.955  10.145   9.926 -0.0425 -0.1111  0.1929
  497loPI   C1A 7943   7.022   9.836   9.458 -0.2384 -0.0326  0.0939
  497loPI   C2A 7944   6.985   9.909   9.088  0.2450 -0.2212  0.0048
  497loPI   C3A 7945   7.012   9.906   8.724 -0.1078  0.1422 -0.0023
  497loPI   C4A 7946   7.031   9.829   8.319 -0.0392  0.0081 -0.1046
  497loPI   C5A 7947   7.245   9.638   7.907 -0.0495 -0.0123  0.1831
  497loPI   C6A 7948   7.569   9.356   7.702 -0.1636 -0.1778  0.0902
  497loPI   C1B 7949   6.937  10.317   9.396  0.3121 -0.2424  0.4732
  497loPI   C2B 7950   6.920  10.391   8.997 -0.2830  0.2197  0.1178
  497loPI   C3B 7951   6.967  10.397   8.591  0.5797 -0.0790  0.2190
  497loPI   C4B 7952   6.931  10.261   8.091 -0.0634 -0.0867  0.4927
  498loPI    C1 7953  12.428  17.734  10.740  0.0283  0.4842  0.1113
  498loPI    C2 7954  12.121  17.700  10.994  0.0603 -0.0798  0.0884
  498loPI    C3 7955  12.427  17.942  11.082 -0.2451  0.2572  0.2537
  498loPI   PO4 7956  12.327  17.788  10.513  0.2270 -0.1348 -0.0415
  498loPI   GL1 7957  12.131  18.073  10.341  0.0710 -0.2604  0.1378
  498loPI   GL2 7958  11.791  18.098  10.317 -0.2702 -0.2328 -0.2510
  498loPI   C1A 7959  12.170  17.940   9.861 -0.0721  0.1300 -0.1639
  498loPI   C2A 7960  12.162  17.896   9.487 -0.0248 -0.0190  0.1009
  498loPI   C3A 7961  12.091  17.852   9.046  0.0379  0.1913 -0.1613
  498loPI   C4A 7962  12.015  17.878   8.644 -0.0781  0.1056  0.0733
  498loPI   C5A 7963  11.956  18.050   8.405  0.0278  0.1704  0.0763
  498loPI   C6A 7964  11.877  18.489   8.296 -0.4859 -0.0176  0.1325
  498loPI   C1B 7965  11.748  18.104   9.962  0.1115  0.4053 -0.2588
  498loPI   C2B 7966  11.698  18.027   9.507 -0.2210  0.0967  0.2438
  498loPI   C3B 7967  11.650  18.092   9.106 -0.2664  0.2483  0.1892
  498loPI   C4B 7968  11.574  18.202   8.678 -0.0303  0.0886  0.0360
  499loPI    C1 7969   2.703  16.229  10.022  0.0448 -0.0765  0.0096
  499loPI    C2 7970   2.795  15.932  10.273 -0.1019 -0.1599 -0.0345
  499loPI    C3 7971   2.535  16.215  10.385  0.0318 -0.0521  0.0047
  499loPI   PO4 7972   2.584  16.116   9.749  0.0355 -0.0263 -0.1083
  499loPI   GL1 7973   2.432  15.839   9.478 -0.3249  0.2065 -0.1425
  499loPI   GL2 7974   2.155  16.066   9.516 -0.2024  0.0317 -0.2830
  499loPI   C1A 7975   2.360  15.789   8.976  0.1597 -0.0909  0.0397
  499loPI   C2A 7976   2.144  15.563   8.630  0.2584  0.2374  0.1705
  499loPI   C3A 7977   2.056  15.428   8.287 -0.2885  0.0140 -0.0034
  499loPI   C4A 7978   2.143  15.225   7.947  0.1218 -0.2806 -0.0876
  499loPI   C5A 7979   2.325  14.961   7.696  0.1152  0.0453  0.0913
  499loPI   C6A 7980   2.707  15.023   7.461 -0.1854 -0.0591  0.1957
  499loPI   C1B 7981   1.879  16.068   9.219 -0.0825  0.2377 -0.2867
  499loPI   C2B 7982   1.814  15.953   8.762 -0.2374 -0.4518 -0.0195
  499loPI   C3B 7983   1.829  15.996   8.309 -0.0817 -0.1272 -0.3427
  499loPI   C4B 7984   1.806  15.818   7.944 -0.0942 -0.2127  0.1633
  500loPI    C1 7985  17.677   8.467   9.838 -0.2990 -0.0929  0.0568
  500loPI    C2 7986  17.803   8.552  10.209 -0.1349  0.0423 -0.0285
  500loPI    C3 7987  17.921   8.214  10.030 -0.3501 -0.1062  0.1046
  500loPI   PO4 7988  17.397   8.507   9.785 -0.1336  0.0549  0.2318
  500loPI   GL1 7989  17.309   8.349   9.336  0.1463  0.1842  0.2054
  500loPI   GL2 7990  17.533   8.479   9.253  0.1008 -0.0815  0.5158
  500loPI   C1A 7991  17.055   8.554   9.105 -0.2646  0.0311 -0.0403
  500loPI   C2A 7992  17.037   8.525   8.604 -0.0543  0.1292 -0.2699
  500loPI   C3A 7993  16.969   8.348   8.243 -0.1015  0.0754  0.1767
  500loPI   C4A 7994  16.659   8.383   7.963 -0.2570  0.0118 -0.1676
  500loPI   C5A 7995  16.279   8.398   7.707  0.0050 -0.4170 -0.2737
  500loPI   C6A 7996  16.007   8.325   7.504 -0.0326 -0.1109 -0.0831
  500loPI   C1B 7997  17.451   8.300   8.816 -0.2333 -0.4288  0.0641
  500loPI   C2B 7998  17.487   8.359   8.411 -0.4185 -0.2000  0.2832
  500loPI   C3B 7999  17.503   8.420   7.960 -0.1286  0.0626 -0.0205
  500loPI   C4B 8000  17.173   8.089   7.782  0.0942 -0.1516 -0.0476
  501loPI    C1 8001   6.803  11.879  10.754  0.0608 -0.0076 -0.1685
  501loPI    C2 8002   7.102  11.669  10.915 -0.0765 -0.1909 -0.1495
  501loPI    C3 8003   6.802  11.798  11.146  0.0030  0.0206 -0.1626
  501loPI   PO4 8004   6.776  11.736  10.483  0.1233 -0.3087  0.2276
  501loPI   GL1 8005   6.738  11.688  10.062 -0.0210 -0.1848  0.2418
  501loPI   GL2 8006   7.109  11.755  10.074 -0.2322  0.0312 -0.1017
  501loPI   C1A 8007   6.477  11.754   9.705  0.0462  0.0483  0.1637
  501loPI   C2A 8008   6.518  11.869   9.279 -0.0044 -0.4223 -0.1462
  501loPI   C3A 8009   6.524  11.949   8.878 -0.1526 -0.1217 -0.0422
  501loPI   C4A 8010   6.672  11.924   8.409 -0.0913  0.1572 -0.1817
  501loPI   C5A 8011   7.000  12.264   8.212  0.3123 -0.0403 -0.0535
  501loPI   C6A 8012   7.173  12.444   7.921 -0.0130 -0.3230  0.1295
  501loPI   C1B 8013   6.941  11.773   9.612 -0.2125  0.3848  0.1925
  501loPI   C2B 8014   6.991  11.817   9.132 -0.0129 -0.1485 -0.0311
  501loPI   C3B 8015   7.092  11.723   8.742  0.0163 -0.2189 -0.0430
  501loPI   C4B 8016   7.130  11.738   8.288  0.0083 -0.0124 -0.1067
  502loPI    C1 8017   0.926  17.769   9.951 -0.2163  0.0504 -0.0813
  502loPI    C2 8018   0.868  17.720  10.344 -0.2407 -0.1432 -0.1076
  502loPI    C3 8019   0.782  18.070  10.170 -0.0577  0.0026  0.0910
  502loPI   PO4 8020   1.177  17.664   9.956 -0.2401 -0.2603  0.1104
  502loPI   GL1 8021   1.458  17.822   9.774  0.0455  0.0313  0.0040
  502loPI   GL2 8022   1.367  17.520   9.509  0.1717  0.0366  0.0509
  502loPI   C1A 8023   1.399  17.963   9.356 -0.1509 -0.0221  0.0494
  502loPI   C2A 8024   1.356  17.941   9.002 -0.3192  0.0286 -0.0740
  502loPI   C3A 8025   1.339  18.090   8.616  0.3109  0.3964  0.1170
  502loPI   C4A 8026   1.332  17.925   8.199  0.2789  0.1662 -0.0220
  502loPI   C5A 8027   1.460  18.076   7.764  0.2623 -0.0325 -0.0482
  502loPI   C6A 8028   1.620  18.468   7.523 -0.1299 -0.2435  0.1822
  502loPI   C1B 8029   1.473  17.479   9.044  0.1568  0.3196  0.0831
  502loPI   C2B 8030   1.419  17.476   8.637 -0.0881  0.2408 -0.0282
  502loPI   C3B 8031   1.514  17.410   8.196  0.0439 -0.5005 -0.0243
  502loPI   C4B 8032   1.784  17.146   7.838 -0.0548 -0.0728  0.3574
  503loPI    C1 8033  12.607  17.185  10.866 -0.2575  0.0470  0.3646
  503loPI    C2 8034  12.878  17.117  11.152  0.2685 -0.2802 -0.1861
  503loPI    C3 8035  12.889  17.458  10.943  0.0230 -0.1383  0.0258
  503loPI   PO4 8036  12.554  16.883  10.665 -0.2675 -0.1301 -0.2832
  503loPI   GL1 8037  12.595  16.786  10.201 -0.1179  0.2550  0.0213
  503loPI   GL2 8038  12.687  16.453  10.083  0.1597 -0.1027 -0.1353
  503loPI   C1A 8039  12.500  16.980   9.890  0.0606  0.0226  0.0355
  503loPI   C2A 8040  12.380  16.959   9.442  0.1046  0.1386 -0.2190
  503loPI   C3A 8041  12.396  16.839   9.069 -0.1756 -0.0226  0.0644
  503loPI   C4A 8042  12.316  16.884   8.703 -0.1395  0.2683 -0.1985
  503loPI   C5A 8043  12.234  16.892   8.229  0.3539 -0.1622  0.0573
  503loPI   C6A 8044  12.110  16.848   7.778 -0.2578 -0.0952  0.2129
  503loPI   C1B 8045  12.517  16.386   9.644  0.0614  0.1366 -0.0257
  503loPI   C2B 8046  12.501  16.415   9.244  0.2839  0.0182  0.0475
  503loPI   C3B 8047  12.415  16.389   8.824  0.1106  0.0791  0.0019
  503loPI   C4B 8048  12.297  16.428   8.411  0.1719 -0.0497 -0.1109
  504loPI    C1 8049   8.649  16.296  11.482  0.0753  0.0074 -0.0542
  504loPI    C2 8050   8.910  16.523  11.684 -0.0310  0.2086 -0.1395
  504loPI    C3 8051   8.823  16.154  11.813  0.2360  0.1689 -0.0677
  504loPI   PO4 8052   8.727  16.316  11.068 -0.4701  0.2285  0.1842
  504loPI   GL1 8053   8.748  16.323  10.579 -0.0067  0.2036 -0.1804
  504loPI   GL2 8054   8.517  16.433  10.354 -0.2324 -0.2907  0.0991
  504loPI   C1A 8055   8.851  16.021  10.294  0.2597 -0.4473  0.2939
  504loPI   C2A 8056   8.813  15.914   9.831  0.1905 -0.0434  0.0574
  504loPI   C3A 8057   8.768  16.059   9.364  0.2218 -0.3362 -0.2193
  504loPI   C4A 8058   8.816  16.025   8.900 -0.1732 -0.1377  0.1033
  504loPI   C5A 8059   8.970  15.875   8.488 -0.2978  0.0646  0.4526
  504loPI   C6A 8060   9.322  15.827   8.273  0.3630  0.0205  0.1517
  504loPI   C1B 8061   8.658  16.510   9.989 -0.1518  0.0414 -0.0544
  504loPI   C2B 8062   8.668  16.547   9.593 -0.0245  0.0831  0.0837
  504loPI   C3B 8063   8.604  16.599   9.201 -0.0683 -0.0767  0.0457
  504loPI   C4B 8064   8.751  16.497   8.769  0.0876  0.0491  0.1937
  505loPI    C1 8065   2.904   2.775  10.308 -0.0558 -0.0596  0.1589
  505loPI    C2 8066   2.791   2.698  10.684 -0.1804  0.1285  0.1610
  505loPI    C3 8067   3.115   2.921  10.614  0.0459 -0.1960  0.1548
  505loPI   PO4 8068   2.903   2.525  10.197 -0.0372 -0.0267  0.5143
  505loPI   GL1 8069   3.010   2.269   9.785 -0.0258  0.0734  0.1424
  505loPI   GL2 8070   2.673   2.409   9.588 -0.1230 -0.1973  0.2158
  505loPI   C1A 8071   3.210   2.466   9.447  0.1480  0.1214 -0.0433
  505loPI   C2A 8072   3.444   2.493   9.028 -0.1716  0.3419  0.0306
  505loPI   C3A 8073   3.193   2.518   8.698 -0.2265 -0.0194  0.0941
  505loPI   C4A 8074   3.119   2.460   8.227  0.1502  0.1438  0.1044
  505loPI   C5A 8075   3.164   2.229   7.857  0.2156 -0.2145  0.1481
  505loPI   C6A 8076   3.263   2.433   7.442  0.0298 -0.0507  0.0762
  505loPI   C1B 8077   2.855   2.257   9.216  0.2837 -0.2004  0.1165
  505loPI   C2B 8078   2.789   2.065   8.939 -0.0582 -0.0419  0.0624
  505loPI   C3B 8079   2.787   2.119   8.576  0.0255  0.2609 -0.1540
  505loPI   C4B 8080   2.837   1.978   8.095  0.2082  0.0119 -0.0036
  506loPI    C1 8081   0.489  13.252  10.273 -0.0448 -0.0031  0.0146
  506loPI    C2 8082   0.608  13.347  10.643 -0.0057  0.0259 -0.0054
  506loPI    C3 8083   0.444  12.989  10.571  0.0201  0.0063  0.0330
  506loPI   PO4 8084   0.682  13.325  10.062  0.1302 -0.2341 -0.5092
  506loPI   GL1 8085   0.630  13.205   9.572  0.0134 -0.1704 -0.1969
  506loPI   GL2 8086   0.761  13.498   9.426  0.0602 -0.1017  0.1871
  506loPI   C1A 8087   0.649  13.072   9.127  0.0356  0.1310 -0.2910
  506loPI   C2A 8088   0.618  13.008   8.679  0.1591 -0.2444  0.1200
  506loPI   C3A 8089   0.334  12.872   8.341 -0.1957 -0.2952 -0.2718
  506loPI   C4A 8090  -0.003  13.038   8.099 -0.1807  0.1507 -0.1704
  506loPI   C5A 8091   0.129  13.143   7.736 -0.2411 -0.0596 -0.0474
  506loPI   C6A 8092   0.405  12.828   7.491  0.2487  0.3374  0.1228
  506loPI   C1B 8093   0.685  13.596   9.044 -0.2932  0.0733  0.1871
  506loPI   C2B 8094   0.687  13.567   8.569 -0.1344  0.2805  0.0676
  506loPI   C3B 8095   0.552  13.903   8.154 -0.0632  0.1300 -0.0262
  506loPI   C4B 8096   0.583  13.873   7.716  0.0621 -0.1819 -0.2143
  507loPI    C1 8097  10.733   0.130  10.911 -0.0273  0.3680 -0.0199
  507loPI    C2 8098  10.428   0.100  11.168  0.0395 -0.0595  0.0159
  507loPI    C3 8099  10.796  -0.010  11.280  0.1016 -0.0826 -0.2060
  507loPI   PO4 8100  10.777   0.052  10.636  0.0941 -0.1844 -0.1040
  507loPI   GL1 8101  10.911  -0.164  10.239 -0.0702  0.0863 -0.2862
  507loPI   GL2 8102  11.230  -0.157  10.155  0.1298 -0.1557  0.2981
  507loPI   C1A 8103  10.954   0.127   9.757 -0.0169 -0.4386 -0.0258
  507loPI   C2A 8104  10.960   0.208   9.296  0.1202 -0.0337 -0.1515
  507loPI   C3A 8105  10.843   0.285   8.928  0.6582 -0.0249  0.0378
  507loPI   C4A 8106  10.897   0.282   8.431  0.4232 -0.1992 -0.0497
  507loPI   C5A 8107  10.482   0.252   8.224  0.0235  0.0472  0.1086
  507loPI   C6A 8108  10.015   0.061   7.999  0.1067 -0.0633  0.1002
  507loPI   C1B 8109  11.228  -0.294   9.738 -0.1012 -0.0222  0.2027
  507loPI   C2B 8110  11.236  -0.353   9.387  0.2678  0.1443  0.1463
  507loPI   C3B 8111  11.193  -0.326   8.993 -0.0085 -0.1536 -0.1321
  507loPI   C4B 8112  11.078  -0.184   8.541 -0.3784 -0.1675 -0.1967
  508loPI    C1 8113   9.422   4.491  11.045 -0.0454 -0.1366  0.2272
  508loPI    C2 8114   9.686   4.319  11.290 -0.0225 -0.0838  0.2397
  508loPI    C3 8115   9.544   4.683  11.373  0.0220 -0.0455  0.1496
  508loPI   PO4 8116   9.514   4.461  10.881  0.0886 -0.3526 -0.3056
  508loPI   GL1 8117   9.436   4.796  10.548  0.2468  0.1891 -0.0840
  508loPI   GL2 8118   9.718   4.871  10.477  0.1803  0.0404  0.1011
  508loPI   C1A 8119   9.444   4.551  10.218 -0.0982 -0.2742 -0.2593
  508loPI   C2A 8120   9.422   4.503   9.857  0.0816 -0.2150 -0.2828
  508loPI   C3A 8121   9.405   4.476   9.524  0.2133  0.1596 -0.1694
  508loPI   C4A 8122   9.427   4.470   9.058 -0.1293 -0.2155 -0.5013
  508loPI   C5A 8123   9.346   4.437   8.674  0.1820 -0.0232  0.1317
  508loPI   C6A 8124   9.292   4.619   8.281  0.1344  0.2221  0.0800
  508loPI   C1B 8125   9.709   4.927  10.046 -0.1142 -0.2120 -0.0617
  508loPI   C2B 8126   9.893   4.818   9.512  0.0940  0.0761 -0.6082
  508loPI   C3B 8127   9.771   4.851   9.076 -0.1167 -0.2047 -0.1663
  508loPI   C4B 8128   9.679   4.792   8.643  0.0767 -0.0767 -0.3261
  509loPI    C1 8129  13.437   9.971  10.897 -0.0316 -0.0195 -0.1286
  509loPI    C2 8130  13.788  10.127  11.006 -0.0096  0.1960 -0.4899
  509loPI    C3 8131  13.448  10.292  11.135  0.0119 -0.2298  0.1571
  509loPI   PO4 8132  13.355  10.020  10.647 -0.2770  0.2560 -0.0682
  509loPI   GL1 8133  13.588  10.038  10.383  0.0511 -0.1030 -0.3459
  509loPI   GL2 8134  13.635  10.263  10.159 -0.4169  0.0844  0.1724
  509loPI   C1A 8135  13.778   9.886   9.869 -0.1741  0.2053  0.1466
  509loPI   C2A 8136  13.742   9.824   9.460  0.0581  0.0551  0.1167
  509loPI   C3A 8137  13.639   9.820   9.084 -0.2889 -0.1115  0.1831
  509loPI   C4A 8138  13.592   9.850   8.614 -0.0597  0.0788  0.1873
  509loPI   C5A 8139  13.776   9.577   8.217  0.0944 -0.0005 -0.1160
  509loPI   C6A 8140  13.776   9.106   8.219 -0.0794 -0.0551  0.1071
  509loPI   C1B 8141  13.641  10.316   9.725  0.1450 -0.0312  0.1718
  509loPI   C2B 8142  13.606  10.292   9.342 -0.2033  0.0358  0.1691
  509loPI   C3B 8143  13.519  10.297   8.989  0.1301  0.2494 -0.0429
  509loPI   C4B 8144  13.479  10.374   8.579 -0.0964 -0.1156  0.2020
  510loPI    C1 8145  12.354  13.840  10.789  0.3521  0.2287 -0.0147
  510loPI    C2 8146  12.530  13.903  11.143  0.1209  0.0365  0.1377
  510loPI    C3 8147  12.179  13.712  11.125  0.1857 -0.0578 -0.2061
  510loPI   PO4 8148  12.552  14.040  10.638  0.0845 -0.1909  0.0398
  510loPI   GL1 8149  12.505  14.089  10.201 -0.1401 -0.1339  0.1610
  510loPI   GL2 8150  12.739  13.801  10.219 -0.0592 -0.3808  0.0162
  510loPI   C1A 8151  12.242  14.054   9.772  0.0079  0.3649  0.1185
  510loPI   C2A 8152  12.126  14.110   9.381  0.0563  0.0911  0.0014
  510loPI   C3A 8153  12.053  14.176   8.948  0.1093 -0.0007  0.3405
  510loPI   C4A 8154  11.981  14.245   8.523  0.3755 -0.1093 -0.2409
  510loPI   C5A 8155  12.252  14.380   8.173 -0.0980  0.1270 -0.3530
  510loPI   C6A 8156  12.220  14.233   7.758 -0.0465  0.0411 -0.1407
  510loPI   C1B 8157  12.766  13.955   9.818  0.1799  0.2636  0.1540
  510loPI   C2B 8158  12.690  13.875   9.410 -0.0237 -0.2887  0.0002
  510loPI   C3B 8159  12.662  13.978   8.986 -0.1515 -0.2970  0.0904
  510loPI   C4B 8160  12.500  14.037   8.534 -0.2893 -0.1544  0.0366
  511loPI    C1 8161  12.480  11.888  10.954  0.1507  0.0041  0.0617
  511loPI    C2 8162  12.700  11.769  11.266  0.1590  0.2657  0.1583
  511loPI    C3 8163  12.549  12.139  11.257  0.1029  0.2389 -0.1185
  511loPI   PO4 8164  12.562  11.696  10.744  0.0246 -0.2090 -0.4665
  511loPI   GL1 8165  12.881  11.762  10.426  0.3132  0.2445  0.4821
  511loPI   GL2 8166  12.709  12.044  10.476  0.2141 -0.0531  0.1677
  511loPI   C1A 8167  12.879  11.558  10.076  0.1320 -0.0745  0.1336
  511loPI   C2A 8168  12.738  11.564   9.608  0.0046 -0.1856 -0.1197
  511loPI   C3A 8169  12.764  11.514   9.159 -0.1173 -0.3681 -0.0946
  511loPI   C4A 8170  12.677  11.645   8.655  0.0060 -0.2067  0.1846
  511loPI   C5A 8171  12.579  11.721   8.155  0.0180 -0.2582 -0.3468
  511loPI   C6A 8172  12.770  11.910   7.777 -0.1821  0.1554  0.0766
  511loPI   C1B 8173  12.753  12.160  10.136 -0.2780  0.2923  0.1283
  511loPI   C2B 8174  12.654  12.076   9.774  0.1561  0.0123  0.0639
  511loPI   C3B 8175  12.634  12.004   9.360 -0.0086  0.3492  0.3169
  511loPI   C4B 8176  12.589  12.114   8.882  0.0311  0.2480 -0.0608
  512loPI    C1 8177  17.661  16.928   9.793  0.0148  0.0849  0.1223
  512loPI    C2 8178  17.700  16.864  10.186 -0.1180  0.3131  0.1747
  512loPI    C3 8179  17.387  16.712   9.989  0.0395  0.0520  0.1206
  512loPI   PO4 8180  17.979  17.012   9.802 -0.0843 -0.0993  0.2389
  512loPI   GL1 8181  18.243  17.020   9.483 -0.2764  0.1633 -0.0518
  512loPI   GL2 8182  18.307  17.359   9.551  0.1514 -0.0577  0.5093
  512loPI   C1A 8183  18.370  16.862   9.057  0.0687 -0.1050  0.1008
  512loPI   C2A 8184  18.245  16.811   8.564 -0.3332 -0.1002  0.0961
  512loPI   C3A 8185  18.391  16.632   8.145  0.0499 -0.1723 -0.1047
  512loPI   C4A 8186  18.515  17.021   7.881 -0.0827  0.1599 -0.3646
  512loPI   C5A 8187  18.403  17.314   7.593  0.0046 -0.0677 -0.0068
  512loPI   C6A 8188  18.308  17.742   7.534  0.0558 -0.0320  0.2076
  512loPI   C1B 8189  18.440  17.461   9.107  0.0582 -0.1960  0.0037
  512loPI   C2B 8190  18.350  17.610   8.725  0.2272 -0.2472  0.0273
  512loPI   C3B 8191  18.562  17.670   8.333  0.0655  0.0598 -0.1727
  512loPI   C4B 8192  18.551  17.526   7.988 -0.0285 -0.1869 -0.0213
  513loPI    C1 8193   9.108  14.827  11.070  0.0230 -0.0294 -0.1194
  513loPI    C2 8194   9.194  14.891  11.456  0.2181 -0.1382 -0.1440
  513loPI    C3 8195   8.967  14.579  11.351  0.1085 -0.0698 -0.1120
  513loPI   PO4 8196   9.078  15.026  10.953 -0.2622  0.1696  0.0746
  513loPI   GL1 8197   8.960  15.278  10.550  0.1050 -0.1017 -0.2588
  513loPI   GL2 8198   8.946  15.561  10.465 -0.1481 -0.1744 -0.3514
  513loPI   C1A 8199   9.043  15.017  10.125 -0.2415  0.0408  0.0129
  513loPI   C2A 8200   9.108  15.016   9.710  0.1777  0.1035 -0.0380
  513loPI   C3A 8201   9.075  15.003   9.302 -0.1526  0.2040  0.1729
  513loPI   C4A 8202   9.144  15.029   8.844 -0.0209 -0.1370  0.0299
  513loPI   C5A 8203   8.969  14.907   8.518  0.0782 -0.1121  0.1910
  513loPI   C6A 8204   8.653  14.782   8.220  0.2005 -0.0308 -0.0508
  513loPI   C1B 8205   8.916  15.507  10.044 -0.0585 -0.0207 -0.0054
  513loPI   C2B 8206   8.970  15.488   9.551  0.0701  0.1846  0.1114
  513loPI   C3B 8207   8.916  15.528   9.039  0.0765  0.0330  0.3100
  513loPI   C4B 8208   8.852  15.419   8.573 -0.2241 -0.3177  0.1033
  514loPI    C1 8209   6.639  15.673  10.754  0.0180 -0.1073  0.0388
  514loPI    C2 8210   6.464  15.324  10.840 -0.1579 -0.0724 -0.1683
  514loPI    C3 8211   6.293  15.667  10.953 -0.1221 -0.0442 -0.1989
  514loPI   PO4 8212   6.746  15.598  10.471 -0.0380  0.3015  0.3811
  514loPI   GL1 8213   6.745  15.615  10.060 -0.2728  0.0700  0.0657
  514loPI   GL2 8214   7.106  15.821  10.007  0.2255  0.3728  0.3290
  514loPI   C1A 8215   6.894  15.533   9.626 -0.0519 -0.0637  0.0717
  514loPI   C2A 8216   7.056  15.514   9.280 -0.0199 -0.2090  0.2448
  514loPI   C3A 8217   7.132  15.565   8.875  0.2555 -0.1715 -0.1866
  514loPI   C4A 8218   7.050  15.590   8.462 -0.0167  0.3311 -0.3136
  514loPI   C5A 8219   7.048  15.743   8.005  0.0164 -0.5239 -0.0287
  514loPI   C6A 8220   7.057  16.151   7.830 -0.0006  0.0523  0.1248
  514loPI   C1B 8221   7.325  15.827   9.703  0.2714 -0.0066 -0.1482
  514loPI   C2B 8222   7.392  15.819   9.276  0.0721  0.4651  0.0171
  514loPI   C3B 8223   7.511  15.925   8.899 -0.0568  0.1397  0.2096
  514loPI   C4B 8224   7.401  15.998   8.357  0.1191  0.0226 -0.2990
  515loPI    C1 8225   4.485  12.967   9.924  0.0697  0.0453 -0.0127
  515loPI    C2 8226   4.168  13.164   9.780  0.0573  0.0580  0.0317
  515loPI    C3 8227   4.258  13.187  10.169  0.0697 -0.0051  0.0325
  515loPI   PO4 8228   4.777  13.131   9.771 -0.1611 -0.1083 -0.2044
  515loPI   GL1 8229   4.795  13.180   9.385  0.2426  0.3377 -0.1896
  515loPI   GL2 8230   4.457  13.030   9.385  0.2017  0.1363  0.1715
  515loPI   C1A 8231   4.789  13.045   9.005 -0.0272  0.2787  0.0597
  515loPI   C2A 8232   4.971  12.943   8.634  0.0010  0.2231 -0.0355
  515loPI   C3A 8233   5.000  12.860   8.155 -0.3055 -0.1324  0.3554
  515loPI   C4A 8234   4.981  12.962   7.690  0.1383  0.0861 -0.1459
  515loPI   C5A 8235   4.617  12.966   7.415  0.1545 -0.0037 -0.0836
  515loPI   C6A 8236   4.293  12.900   7.059  0.3875  0.0996 -0.0553
  515loPI   C1B 8237   4.462  12.647   9.044  0.0893  0.0499 -0.1711
  515loPI   C2B 8238   4.546  12.626   8.635 -0.3425 -0.0829 -0.0419
  515loPI   C3B 8239   4.527  12.519   8.189  0.0585  0.2437 -0.1195
  515loPI   C4B 8240   4.624  12.520   7.713  0.3021 -0.1673  0.0503
  516loPI    C1 8241  14.901   6.740  10.616  0.0134 -0.0135 -0.0094
  516loPI    C2 8242  15.069   6.943  10.917  0.0094 -0.1700  0.0997
  516loPI    C3 8243  15.299   6.770  10.639  0.0141 -0.0518  0.0295
  516loPI   PO4 8244  14.665   6.853  10.477 -0.0144  0.4801  0.1236
  516loPI   GL1 8245  14.675   6.990  10.182  0.1121  0.1074  0.1315
  516loPI   GL2 8246  14.355   6.805  10.150  0.3270 -0.1860  0.1779
  516loPI   C1A 8247  14.806   7.108   9.779  0.0414  0.0703  0.2931
  516loPI   C2A 8248  14.748   7.260   9.375  0.0449  0.2041  0.3311
  516loPI   C3A 8249  14.772   7.282   8.882 -0.3962  0.0331 -0.0333
  516loPI   C4A 8250  14.587   7.107   8.448 -0.2750 -0.1804  0.1706
  516loPI   C5A 8251  14.300   7.050   8.190  0.1349 -0.0227 -0.1424
  516loPI   C6A 8252  14.054   6.684   7.982 -0.1418 -0.1539  0.1173
  516loPI   C1B 8253  14.427   6.724   9.758  0.0551 -0.1676  0.1739
  516loPI   C2B 8254  14.521   6.819   9.409  0.2186 -0.1195 -0.2859
  516loPI   C3B 8255  14.427   6.714   8.921  0.1049 -0.2517 -0.2065
  516loPI   C4B 8256  14.397   6.611   8.499  0.1016 -0.2656 -0.0560
  517loPI    C1 8257   3.818  10.314   9.976  0.0954 -0.0199  0.0517
  517loPI    C2 8258   3.448  10.334   9.825  0.0976 -0.1089  0.0339
  517loPI    C3 8259   3.640  10.669   9.930  0.1083 -0.0434 -0.1897
  517loPI   PO4 8260   3.931  10.091   9.859  0.2941  0.2042 -0.2843
  517loPI   GL1 8261   4.297  10.165   9.543 -0.0130  0.1354 -0.3751
  517loPI   GL2 8262   4.156  10.225   9.328 -0.0812 -0.0008  0.1867
  517loPI   C1A 8263   4.268   9.803   9.123  0.1815 -0.0870  0.0954
  517loPI   C2A 8264   4.262   9.786   8.718 -0.1725  0.1287 -0.1213
  517loPI   C3A 8265   4.317   9.723   8.254 -0.0272  0.2198  0.0448
  517loPI   C4A 8266   4.240   9.749   7.787 -0.2645  0.1644  0.3758
  517loPI   C5A 8267   4.018   9.704   7.408  0.1609  0.0460  0.0129
  517loPI   C6A 8268   3.999   9.971   7.070  0.0375  0.1071 -0.0026
  517loPI   C1B 8269   4.186  10.261   8.889  0.2292 -0.0224  0.2149
  517loPI   C2B 8270   4.185  10.260   8.370 -0.3615 -0.0376  0.1387
  517loPI   C3B 8271   4.179  10.289   7.955  0.0548  0.1930  0.1201
  517loPI   C4B 8272   4.135  10.188   7.610  0.1179  0.1203 -0.1034
  518loPI    C1 8273  17.602   6.642   9.800  0.1241 -0.2150 -0.1775
  518loPI    C2 8274  17.736   6.974   9.979  0.0619 -0.1459 -0.2582
  518loPI    C3 8275  17.556   6.689  10.195 -0.1799  0.0203 -0.2370
  518loPI   PO4 8276  17.745   6.699   9.562 -0.2221 -0.0562 -0.1106
  518loPI   GL1 8277  17.685   6.998   9.184  0.1365  0.1906  0.0160
  518loPI   GL2 8278  17.309   6.945   9.174  0.1561 -0.0778  0.2533
  518loPI   C1A 8279  17.734   7.201   8.794  0.4869 -0.1501  0.1337
  518loPI   C2A 8280  17.653   7.277   8.419  0.1016  0.2196  0.0285
  518loPI   C3A 8281  17.381   7.476   8.060 -0.0210 -0.1374  0.2375
  518loPI   C4A 8282  17.323   7.661   7.660 -0.0831  0.2261 -0.0149
  518loPI   C5A 8283  17.301   7.957   7.321  0.1405  0.0155 -0.0426
  518loPI   C6A 8284  17.365   8.329   7.425 -0.0661  0.1445  0.1516
  518loPI   C1B 8285  17.340   6.853   8.669 -0.0760  0.3888 -0.5023
  518loPI   C2B 8286  17.288   6.913   8.188  0.4448  0.1855 -0.3373
  518loPI   C3B 8287  16.934   6.913   7.944  0.3836 -0.0853  0.1655
  518loPI   C4B 8288  16.905   6.900   7.446  0.2406  0.1668  0.2554
  519loPI    C1 8289   8.833   6.003  10.981  0.2886  0.0115  0.0654
  519loPI    C2 8290   8.518   6.184  11.150  0.1803  0.1003 -0.2248
  519loPI    C3 8291   8.784   5.990  11.378 -0.0515  0.0745  0.0292
  519loPI   PO4 8292   8.926   6.179  10.815 -0.1157  0.0930 -0.2447
  519loPI   GL1 8293   8.941   6.246  10.495 -0.1226 -0.0907 -0.0372
  519loPI   GL2 8294   8.721   6.405  10.341  0.3527  0.1774  0.3669
  519loPI   C1A 8295   8.965   5.994  10.137  0.2576  0.3033  0.0959
  519loPI   C2A 8296   9.013   6.087   9.810  0.1968 -0.0330 -0.1952
  519loPI   C3A 8297   9.033   6.008   9.445 -0.0052  0.1463 -0.0802
  519loPI   C4A 8298   8.922   6.068   9.090 -0.0515  0.3343 -0.1400
  519loPI   C5A 8299   9.024   6.047   8.631  0.0992 -0.1829  0.0654
  519loPI   C6A 8300   9.270   5.943   8.196 -0.0098  0.0693  0.2675
  519loPI   C1B 8301   8.845   6.493   9.970  0.0379 -0.0568  0.2015
  519loPI   C2B 8302   8.831   6.453   9.526 -0.1531  0.1154  0.1913
  519loPI   C3B 8303   8.770   6.597   9.182  0.0621 -0.1381 -0.2122
  519loPI   C4B 8304   8.831   6.531   8.723 -0.0463 -0.0422 -0.1603
  520loPI    C1 8305   2.390   7.586  10.129 -0.1230 -0.2661  0.2720
  520loPI    C2 8306   2.762   7.451  10.189  0.0253  0.0110  0.0026
  520loPI    C3 8307   2.501   7.457  10.492  0.2602 -0.1210  0.2121
  520loPI   PO4 8308   2.355   7.417   9.852 -0.2949 -0.0101 -0.2267
  520loPI   GL1 8309   2.502   7.436   9.529 -0.0218  0.0616  0.0568
  520loPI   GL2 8310   2.506   7.649   9.256 -0.1859  0.0362 -0.0315
  520loPI   C1A 8311   2.785   7.242   9.270 -0.2757 -0.0567 -0.1511
  520loPI   C2A 8312   2.974   7.231   8.830 -0.0209 -0.0425 -0.3114
  520loPI   C3A 8313   3.047   7.258   8.485  0.0723  0.0635  0.0382
  520loPI   C4A 8314   3.007   7.282   8.031 -0.1979 -0.2691  0.0309
  520loPI   C5A 8315   2.865   7.208   7.633 -0.2366  0.0791 -0.0969
  520loPI   C6A 8316   2.936   7.431   7.349  0.0459 -0.2663 -0.0913
  520loPI   C1B 8317   2.653   7.583   8.853 -0.0250  0.1697 -0.1530
  520loPI   C2B 8318   2.881   7.682   8.581  0.0461  0.0917  0.3154
  520loPI   C3B 8319   2.866   7.820   8.160 -0.1014  0.0949  0.1152
  520loPI   C4B 8320   2.671   7.652   7.761 -0.0502 -0.0814 -0.0393
  521loPI    C1 8321  15.240  13.823  10.032 -0.5940  0.1247  0.2187
  521loPI    C2 8322  15.415  13.958  10.366  0.0349 -0.0086 -0.0420
  521loPI    C3 8323  15.318  13.571  10.334  0.1344 -0.0309 -0.0773
  521loPI   PO4 8324  15.363  13.871   9.758 -0.0588  0.2525  0.0797
  521loPI   GL1 8325  15.394  14.038   9.310 -0.1599  0.0944  0.1925
  521loPI   GL2 8326  15.049  14.168   9.460  0.3634  0.4258 -0.2791
  521loPI   C1A 8327  15.471  14.131   8.938  0.3473 -0.1874 -0.0598
  521loPI   C2A 8328  15.352  14.086   8.552  0.1818 -0.0624  0.0822
  521loPI   C3A 8329  15.313  14.088   8.111 -0.0480 -0.0613  0.1441
  521loPI   C4A 8330  15.385  13.829   7.744 -0.1798 -0.0494  0.1307
  521loPI   C5A 8331  15.416  13.444   7.716  0.0530  0.0540  0.1725
  521loPI   C6A 8332  15.171  13.118   7.913  0.2145  0.0863 -0.0197
  521loPI   C1B 8333  15.013  14.255   9.006 -0.0610  0.2088 -0.2619
  521loPI   C2B 8334  14.889  14.277   8.589 -0.2027 -0.0392 -0.1601
  521loPI   C3B 8335  14.803  14.146   8.193  0.1839 -0.0089  0.0765
  521loPI   C4B 8336  14.949  14.224   7.661 -0.0620 -0.2672 -0.2841
  522loPI    C1 8337  12.528   7.706  10.991 -0.0295 -0.1091  0.0233
  522loPI    C2 8338  12.149   7.657  11.108  0.0669 -0.0251  0.3833
  522loPI    C3 8339  12.409   7.843  11.348  0.2871  0.1044  0.0506
  522loPI   PO4 8340  12.597   7.800  10.715  0.0604 -0.1086 -0.3061
  522loPI   GL1 8341  12.670   7.857  10.354  0.2529  0.1232 -0.2236
  522loPI   GL2 8342  12.956   7.861  10.274 -0.1352 -0.1034 -0.2729
  522loPI   C1A 8343  12.456   7.888   9.984  0.0078  0.1119 -0.0284
  522loPI   C2A 8344  12.411   7.911   9.605  0.1394 -0.1530  0.0045
  522loPI   C3A 8345  12.320   7.957   9.168 -0.0329 -0.0544  0.2199
  522loPI   C4A 8346  12.118   7.796   8.703  0.1317  0.0242  0.0957
  522loPI   C5A 8347  12.105   7.669   8.297 -0.0670  0.3824  0.2237
  522loPI   C6A 8348  11.690   7.374   8.203 -0.1675 -0.3351  0.3075
  522loPI   C1B 8349  12.918   7.727   9.913  0.0737  0.3871  0.3040
  522loPI   C2B 8350  12.918   7.795   9.520  0.0725  0.2885  0.0236
  522loPI   C3B 8351  12.792   7.754   9.105  0.3312  0.2101 -0.0842
  522loPI   C4B 8352  12.727   7.697   8.704  0.0802  0.1622 -0.4474
  523loPI    C1 8353   7.817   8.921  10.496  0.0762 -0.0657  0.1489
  523loPI    C2 8354   8.023   9.261  10.453  0.2353 -0.1945 -0.1376
  523loPI    C3 8355   8.155   8.925  10.283  0.1394 -0.4273  0.2365
  523loPI   PO4 8356   7.632   8.841  10.336  0.1310 -0.1734 -0.2727
  523loPI   GL1 8357   7.761   8.782   9.917  0.1477 -0.1432 -0.0887
  523loPI   GL2 8358   7.630   9.177   9.749 -0.1567  0.0208  0.0151
  523loPI   C1A 8359   7.818   8.633   9.438  0.1265 -0.0291  0.2458
  523loPI   C2A 8360   7.833   8.540   8.844  0.1503 -0.1762 -0.0691
  523loPI   C3A 8361   7.753   8.662   8.548 -0.0545 -0.1987 -0.0245
  523loPI   C4A 8362   7.791   8.702   8.159  0.1227  0.0082 -0.0195
  523loPI   C5A 8363   7.982   8.563   7.820 -0.1248  0.1454  0.0371
  523loPI   C6A 8364   8.106   8.462   7.434  0.0921 -0.0656  0.1793
  523loPI   C1B 8365   7.715   9.131   9.433 -0.2637 -0.1025 -0.1525
  523loPI   C2B 8366   7.678   9.147   9.009  0.0522  0.2130 -0.1930
  523loPI   C3B 8367   7.660   9.120   8.663 -0.1183 -0.3540 -0.0604
  523loPI   C4B 8368   7.593   9.159   8.165  0.0075 -0.1336 -0.1407
  524loPI    C1 8369  11.588   0.156  11.074 -0.0901  0.1450 -0.0172
  524loPI    C2 8370  11.838   0.461  11.139  0.0277  0.1036 -0.2632
  524loPI    C3 8371  11.555   0.490  10.857 -0.2618  0.1576  0.0268
  524loPI   PO4 8372  11.666  -0.014  11.045  0.1758  0.0675  0.0603
  524loPI   GL1 8373  11.794   0.098  10.603 -0.0177  0.0624  0.1771
  524loPI   GL2 8374  12.151   0.048  10.424  0.3706  0.0552  0.0546
  524loPI   C1A 8375  11.684   0.080  10.200 -0.0495  0.1697  0.0749
  524loPI   C2A 8376  11.650   0.123   9.809 -0.0924  0.0543  0.1798
  524loPI   C3A 8377  11.509   0.088   9.317  0.1393  0.1135  0.1492
  524loPI   C4A 8378  11.452   0.153   8.824  0.1479  0.0955 -0.1258
  524loPI   C5A 8379  11.439   0.218   8.426 -0.1116  0.2721 -0.3022
  524loPI   C6A 8380  11.620   0.372   8.092  0.1886  0.4145  0.0964
  524loPI   C1B 8381  12.167  -0.068  10.008  0.2472  0.2495 -0.3522
  524loPI   C2B 8382  12.053  -0.133   9.591  0.3147  0.1594  0.1069
  524loPI   C3B 8383  12.023  -0.148   9.155 -0.0444 -0.2158  0.1333
  524loPI   C4B 8384  11.923  -0.005   8.801  0.2917 -0.1593  0.0430
  525loPI    C1 8385  13.014   9.636  10.860  0.2307 -0.1269 -0.0529
  525loPI    C2 8386  12.753   9.831  10.628  0.1857  0.1868  0.2522
  525loPI    C3 8387  12.633   9.515  10.842  0.0946  0.2344  0.2716
  525loPI   PO4 8388  13.236   9.528  10.682 -0.0988 -0.2515 -0.0041
  525loPI   GL1 8389  13.245   9.680  10.297  0.2323  0.2464 -0.0544
  525loPI   GL2 8390  13.505   9.531  10.207 -0.0967  0.1462 -0.2148
  525loPI   C1A 8391  13.221  10.038   9.967 -0.3337  0.1099 -0.1871
  525loPI   C2A 8392  13.306   9.962   9.611 -0.2265  0.2693  0.0585
  525loPI   C3A 8393  13.214   9.985   9.212  0.1502  0.2275 -0.1163
  525loPI   C4A 8394  13.106   9.955   8.733 -0.0088  0.1436  0.2473
  525loPI   C5A 8395  13.147   9.991   8.317 -0.0365 -0.1514  0.0501
  525loPI   C6A 8396  13.027   9.688   7.952 -0.2683  0.2393 -0.1258
  525loPI   C1B 8397  13.384   9.499   9.828 -0.3255 -0.1714  0.1529
  525loPI   C2B 8398  13.347   9.464   9.313  0.0872  0.1549  0.1271
  525loPI   C3B 8399  13.263   9.428   8.848 -0.0109 -0.1323  0.2124
  525loPI   C4B 8400  13.189   9.520   8.413 -0.0355 -0.1048 -0.0581
  526loPI    C1 8401  11.970  11.166  10.929  0.1340 -0.0928  0.3086
  526loPI    C2 8402  11.620  11.279  11.087 -0.0499 -0.1149 -0.0712
  526loPI    C3 8403  11.820  10.970  11.244 -0.1328 -0.0195  0.2298
  526loPI   PO4 8404  11.940  11.068  10.735  0.0560 -0.1088 -0.2236
  526loPI   GL1 8405  11.942  11.036  10.316 -0.2243  0.4902 -0.0812
  526loPI   GL2 8406  11.776  11.272  10.318 -0.0630 -0.1648 -0.0836
  526loPI   C1A 8407  12.059  10.792  10.059 -0.3339 -0.0771 -0.0582
  526loPI   C2A 8408  12.096  10.882   9.556 -0.3653 -0.0962 -0.2662
  526loPI   C3A 8409  12.068  10.782   9.130  0.3518  0.1747 -0.1106
  526loPI   C4A 8410  12.030  10.779   8.734 -0.2325  0.1615 -0.0640
  526loPI   C5A 8411  11.918  10.744   8.245  0.0286  0.3105  0.2393
  526loPI   C6A 8412  12.108  10.705   7.886 -0.0309 -0.0560  0.1406
  526loPI   C1B 8413  11.988  11.389   9.920 -0.1202  0.1854  0.1902
  526loPI   C2B 8414  11.842  11.333   9.482 -0.1601 -0.1890  0.0377
  526loPI   C3B 8415  11.807  11.369   9.042 -0.4842  0.1050  0.0595
  526loPI   C4B 8416  11.805  11.255   8.619 -0.0387  0.0367  0.3489
  527loPI    C1 8417   5.796   4.751  10.486  0.2832  0.2617  0.2890
  527loPI    C2 8418   5.511   5.021  10.560 -0.1640 -0.1796  0.2327
  527loPI    C3 8419   5.638   4.780  10.852  0.3096  0.1498  0.3096
  527loPI   PO4 8420   5.719   4.652  10.317 -0.1340  0.1063  0.2862
  527loPI   GL1 8421   5.575   4.733   9.930  0.1951 -0.0506  0.0425
  527loPI   GL2 8422   5.735   4.547   9.709 -0.0870 -0.0194 -0.0598
  527loPI   C1A 8423   5.433   4.964   9.613  0.1902  0.0181  0.0615
  527loPI   C2A 8424   5.400   5.018   9.178 -0.0382  0.0824 -0.1617
  527loPI   C3A 8425   5.320   5.142   8.649  0.2180  0.1028 -0.0427
  527loPI   C4A 8426   5.235   5.185   8.266 -0.0464 -0.2330 -0.0151
  527loPI   C5A 8427   5.287   5.268   7.835 -0.1212  0.0427  0.4187
  527loPI   C6A 8428   5.287   5.495   7.434  0.1229 -0.1945  0.3135
  527loPI   C1B 8429   5.656   4.627   9.317  0.2417  0.2788 -0.1040
  527loPI   C2B 8430   5.689   4.794   8.832  0.2406  0.3844  0.2660
  527loPI   C3B 8431   5.767   4.803   8.361  0.4678  0.0071  0.3191
  527loPI   C4B 8432   5.568   4.833   8.005 -0.2493  0.2006  0.1529
  528loPI    C1 8433  18.327   1.019  10.202  0.0896  0.0429  0.0587
  528loPI    C2 8434  18.563   1.106  10.514 -0.1688  0.2509  0.2006
  528loPI    C3 8435  18.166   1.152  10.544 -0.2304 -0.0863 -0.0379
  528loPI   PO4 8436  18.423   1.159  10.020 -0.1802 -0.0967  0.1014
  528loPI   GL1 8437  18.656   1.104   9.671 -0.0782 -0.0043 -0.3402
  528loPI   GL2 8438  18.973   1.216   9.740  0.1665 -0.1066  0.0200
  528loPI   C1A 8439  18.396   0.910   9.279 -0.0620  0.2918 -0.3679
  528loPI   C2A 8440  18.354   1.088   8.872 -0.1327 -0.3680 -0.0332
  528loPI   C3A 8441  18.290   1.144   8.493 -0.1087  0.1431 -0.0366
  528loPI   C4A 8442  18.119   1.356   8.229  0.0728 -0.1772  0.2817
  528loPI   C5A 8443  18.056   1.512   7.814 -0.2565 -0.0081 -0.1200
  528loPI   C6A 8444  17.765   1.805   7.568 -0.0639 -0.0475  0.0117
  528loPI   C1B 8445  19.011   1.212   9.312  0.0049 -0.1124  0.1343
  528loPI   C2B 8446  19.205   1.124   8.900  0.1567 -0.2482 -0.0419
  528loPI   C3B 8447  19.230   1.230   8.537  0.0480  0.2046 -0.2007
  528loPI   C4B 8448  19.248   1.250   8.216 -0.0388 -0.4084  0.0759
  529loPI    C1 8449  16.795  12.250   9.907 -0.1161 -0.0774 -0.1823
  529loPI    C2 8450  16.431  12.139  10.030 -0.0897 -0.1819 -0.1978
  529loPI    C3 8451  16.507  12.524   9.956 -0.1668 -0.1459 -0.0927
  529loPI   PO4 8452  16.906  12.144   9.636  0.1092  0.2956  0.0426
  529loPI   GL1 8453  17.118  12.102   9.223 -0.1495  0.0684 -0.4700
  529loPI   GL2 8454  16.814  12.241   9.155  0.0685  0.1517  0.1089
  529loPI   C1A 8455  17.161  11.905   8.784 -0.2879 -0.2993  0.0168
  529loPI   C2A 8456  17.217  11.821   8.349  0.1361 -0.0382 -0.0775
  529loPI   C3A 8457  16.946  11.869   8.047  0.0385 -0.0169  0.0318
  529loPI   C4A 8458  16.920  11.674   7.708  0.2055 -0.0628 -0.2529
  529loPI   C5A 8459  16.899  11.207   7.326  0.3756  0.0737  0.2764
  529loPI   C6A 8460  17.257  10.904   7.313 -0.1275 -0.2274  0.1675
  529loPI   C1B 8461  16.829  12.239   8.744  0.2043  0.3019  0.0441
  529loPI   C2B 8462  16.800  12.279   8.402 -0.3798 -0.4441  0.1990
  529loPI   C3B 8463  16.885  12.413   8.069 -0.2590  0.1164 -0.0898
  529loPI   C4B 8464  16.944  12.128   7.570  0.1427 -0.1853 -0.2487
  530loPI    C1 8465  13.246  10.777  10.999  0.0522  0.1031 -0.0457
  530loPI    C2 8466  13.260  11.176  11.023  0.1668  0.0979 -0.0183
  530loPI    C3 8467  13.219  10.956  11.355 -0.1770  0.0960 -0.0580
  530loPI   PO4 8468  13.237  10.791  10.718 -0.2746  0.1362  0.1608
  530loPI   GL1 8469  12.966  10.717  10.445 -0.0893  0.0428  0.0729
  530loPI   GL2 8470  13.211  10.446  10.325 -0.3480  0.0991 -0.1341
  530loPI   C1A 8471  12.943  11.052  10.062 -0.1522  0.2244 -0.1385
  530loPI   C2A 8472  13.029  11.058   9.549 -0.0601  0.1903 -0.1083
  530loPI   C3A 8473  12.948  11.078   9.057  0.1730 -0.2160 -0.1212
  530loPI   C4A 8474  12.869  11.135   8.622  0.3769  0.2787 -0.0721
  530loPI   C5A 8475  12.793  11.287   8.205 -0.0489  0.2609 -0.0379
  530loPI   C6A 8476  13.110  11.464   7.963 -0.0787  0.0371 -0.2663
  530loPI   C1B 8477  13.210  10.552   9.943 -0.1293  0.0255  0.0178
  530loPI   C2B 8478  13.160  10.493   9.462 -0.0164 -0.0005  0.1764
  530loPI   C3B 8479  13.028  10.578   8.990 -0.0190  0.1117 -0.0650
  530loPI   C4B 8480  12.952  10.635   8.540  0.2180 -0.1832 -0.0539
  531loPI    C1 8481  18.120   1.672  10.073  0.1872 -0.2156  0.0008
  531loPI    C2 8482  18.340   1.607  10.401  0.1697 -0.7166 -0.0792
  531loPI    C3 8483  17.941   1.603  10.424  0.1664 -0.4279 -0.0501
  531loPI   PO4 8484  18.340   1.605   9.876  0.2164 -0.1248 -0.2154
  531loPI   GL1 8485  18.645   1.620   9.673 -0.2627  0.0044  0.0156
  531loPI   GL2 8486  18.469   1.568   9.426  0.1911  0.0891 -0.1506
  531loPI   C1A 8487  18.940   1.721   9.506  0.0553 -0.0057 -0.1628
  531loPI   C2A 8488  19.220   1.797   9.163  0.1128 -0.1597 -0.1979
  531loPI   C3A 8489  19.177   1.746   8.782 -0.2097 -0.0400 -0.0446
  531loPI   C4A 8490  19.248   1.707   8.433 -0.0715 -0.0802  0.1323
  531loPI   C5A 8491  19.363   1.790   8.065 -0.1050 -0.0293  0.0648
  531loPI   C6A 8492  19.360   1.938   7.597  0.0275  0.3117  0.1391
  531loPI   C1B 8493  18.678   1.500   9.071  0.1858  0.2298  0.0995
  531loPI   C2B 8494  18.761   1.483   8.616  0.2147 -0.1902 -0.4041
  531loPI   C3B 8495  18.852   1.632   8.121  0.0732  0.1262  0.1482
  531loPI   C4B 8496  18.884   1.718   7.692  0.0673  0.0002  0.0794
  532loPI    C1 8497  10.906   1.297  10.863 -0.1795 -0.2202 -0.0395
  532loPI    C2 8498  11.171   1.079  10.657  0.0287  0.0434 -0.0548
  532loPI    C3 8499  11.267   1.223  11.018 -0.1645 -0.0206  0.0233
  532loPI   PO4 8500  10.849   1.433  10.677  0.3136 -0.0588 -0.0873
  532loPI   GL1 8501  11.057   1.433  10.301 -0.3418 -0.1201 -0.1983
  532loPI   GL2 8502  11.231   1.631  10.137  0.0037  0.1459 -0.2573
  532loPI   C1A 8503  10.666   1.676  10.105  0.1633  0.3039 -0.1341
  532loPI   C2A 8504  10.657   1.796   9.742  0.2204 -0.1328  0.1191
  532loPI   C3A 8505  10.501   1.802   9.280 -0.3366 -0.0259 -0.2111
  532loPI   C4A 8506  10.517   1.776   8.813 -0.1794 -0.2463  0.1941
  532loPI   C5A 8507  10.494   1.657   8.323  0.4289  0.0649  0.1545
  532loPI   C6A 8508  10.686   1.203   8.197  0.0864 -0.0963 -0.0502
  532loPI   C1B 8509  11.113   1.602   9.734 -0.3382  0.1933  0.0894
  532loPI   C2B 8510  11.083   1.675   9.404 -0.2368 -0.2025 -0.0130
  532loPI   C3B 8511  11.004   1.629   9.004 -0.0379 -0.1086 -0.1707
  532loPI   C4B 8512  11.007   1.630   8.601  0.2216 -0.0877 -0.0970
  533loPI    C1 8513   7.048   4.442  10.747 -0.5650  0.0202 -0.0419
  533loPI    C2 8514   7.035   4.092  10.554  0.1110  0.0592 -0.1836
  533loPI    C3 8515   7.110   4.102  10.947  0.1779  0.0485 -0.1961
  533loPI   PO4 8516   6.888   4.580  10.528 -0.0357 -0.1508  0.0984
  533loPI   GL1 8517   6.731   4.747  10.174 -0.0846  0.2038 -0.0325
  533loPI   GL2 8518   6.699   4.293  10.147  0.1304 -0.0715 -0.1864
  533loPI   C1A 8519   6.960   4.750   9.783  0.4172 -0.0866  0.2455
  533loPI   C2A 8520   7.122   4.719   9.429 -0.2790 -0.0434 -0.3545
  533loPI   C3A 8521   7.008   4.655   8.975 -0.1415  0.0351  0.0824
  533loPI   C4A 8522   7.011   4.600   8.550  0.1972  0.2700  0.0740
  533loPI   C5A 8523   6.774   4.580   8.146  0.1733  0.0752 -0.0886
  533loPI   C6A 8524   6.625   4.573   7.715 -0.1287  0.1139  0.1342
  533loPI   C1B 8525   6.670   4.339   9.753  0.2130  0.0970  0.3845
  533loPI   C2B 8526   6.720   4.401   9.368  0.1630  0.0863 -0.0083
  533loPI   C3B 8527   6.661   4.279   8.926  0.1470 -0.0580  0.2713
  533loPI   C4B 8528   6.553   4.333   8.513 -0.0297  0.1625  0.1038
  534loPI    C1 8529  15.032   3.097  10.398  0.1812  0.1099 -0.0151
  534loPI    C2 8530  14.805   3.022  10.720 -0.1090 -0.4140 -0.3274
  534loPI    C3 8531  14.693   3.302  10.456  0.0377 -0.1078 -0.0714
  534loPI   PO4 8532  15.124   2.827  10.391  0.2632  0.0485  0.1154
  534loPI   GL1 8533  15.017   2.545  10.020  0.2821  0.1973  0.1330
  534loPI   GL2 8534  14.695   2.546   9.893 -0.1536  0.2667 -0.4569
  534loPI   C1A 8535  15.219   2.363   9.764 -0.1168  0.4148 -0.0376
  534loPI   C2A 8536  15.156   2.428   9.375 -0.0653 -0.0209  0.1740
  534loPI   C3A 8537  15.085   2.362   9.014 -0.0101  0.0550  0.1733
  534loPI   C4A 8538  15.005   2.295   8.583  0.1909 -0.2405 -0.2961
  534loPI   C5A 8539  15.066   2.242   8.131 -0.0348 -0.0923  0.3195
  534loPI   C6A 8540  14.758   2.285   7.731 -0.1184  0.1088  0.0002
  534loPI   C1B 8541  14.542   2.451   9.436  0.1202  0.1205 -0.0134
  534loPI   C2B 8542  14.544   2.471   8.935  0.3558  0.1251  0.2143
  534loPI   C3B 8543  14.500   2.359   8.503 -0.1435  0.0355  0.0159
  534loPI   C4B 8544  14.597   2.512   8.155  0.0066 -0.3457  0.2666
  535loPI    C1 8545   8.717  17.196  11.004  0.1497  0.0019  0.1552
  535loPI    C2 8546   8.718  17.553  10.823  0.1298 -0.1659 -0.1848
  535loPI    C3 8547   8.482  17.489  11.141  0.1051  0.1099 -0.1455
  535loPI   PO4 8548   8.970  17.032  10.729  0.0531  0.3661 -0.1614
  535loPI   GL1 8549   9.024  17.060  10.356  0.1567 -0.3521  0.3503
  535loPI   GL2 8550   8.949  16.703  10.342  0.2270  0.2060  0.0805
  535loPI   C1A 8551   9.420  17.219  10.219  0.1414  0.0680 -0.0563
  535loPI   C2A 8552   9.403  17.243   9.705 -0.1798 -0.2657 -0.0525
  535loPI   C3A 8553   9.425  17.265   9.277  0.0539 -0.2298  0.1238
  535loPI   C4A 8554   9.473  17.257   8.780 -0.0231 -0.1523 -0.1805
  535loPI   C5A 8555   9.366  17.212   8.379 -0.2078 -0.0440  0.3442
  535loPI   C6A 8556   9.568  17.349   8.036  0.1630  0.2243  0.0841
  535loPI   C1B 8557   9.061  16.861   9.911  0.0910 -0.2557  0.0669
  535loPI   C2B 8558   9.036  16.915   9.475 -0.0268 -0.1633  0.1407
  535loPI   C3B 8559   9.076  16.973   9.006  0.2685  0.2340 -0.2660
  535loPI   C4B 8560   9.195  16.815   8.623  0.1576  0.3687  0.1098
  536loPI    C1 8561   1.710  16.318  10.479  0.1815  0.0772 -0.0448
  536loPI    C2 8562   2.066  16.160  10.567  0.1167  0.0772  0.2263
  536loPI    C3 8563   1.901  16.430  10.812 -0.0801  0.0603  0.1142
  536loPI   PO4 8564   1.755  16.467  10.219 -0.0427  0.1096  0.0318
  536loPI   GL1 8565   1.721  16.340   9.755  0.1237 -0.0630 -0.0172
  536loPI   GL2 8566   1.744  16.748   9.783 -0.2651  0.0849 -0.0401
  536loPI   C1A 8567   1.439  16.420   9.420 -0.0744 -0.0602 -0.0262
  536loPI   C2A 8568   1.537  16.488   8.989  0.4205 -0.1003  0.0049
  536loPI   C3A 8569   1.667  16.426   8.509 -0.3100  0.0043 -0.0309
  536loPI   C4A 8570   1.810  16.440   8.123  0.3329  0.1748  0.0726
  536loPI   C5A 8571   2.236  16.233   8.004 -0.0899 -0.0267  0.2977
  536loPI   C6A 8572   2.616  16.078   7.788 -0.1403 -0.4766  0.2712
  536loPI   C1B 8573   1.843  16.773   9.370 -0.0080 -0.1716 -0.1641
  536loPI   C2B 8574   1.915  16.801   8.828  0.0602 -0.0048  0.0144
  536loPI   C3B 8575   2.035  16.808   8.454  0.1041 -0.0157  0.0593
  536loPI   C4B 8576   2.290  16.755   8.077 -0.0950  0.1162  0.1754
  537loPI    C1 8577   9.841   5.242  10.921 -0.0156 -0.2141  0.0038
  537loPI    C2 8578  10.082   5.434  11.175 -0.2130  0.0112  0.0243
  537loPI    C3 8579   9.823   5.162  11.313 -0.5044  0.3228  0.1043
  537loPI   PO4 8580   9.972   5.153  10.745  0.1051 -0.0593 -0.2513
  537loPI   GL1 8581  10.096   5.344  10.402 -0.0269  0.1738  0.4256
  537loPI   GL2 8582  10.117   5.117  10.243 -0.3979 -0.1804 -0.0017
  537loPI   C1A 8583  10.007   5.665  10.055  0.0037  0.3224  0.1044
  537loPI   C2A 8584   9.996   5.605   9.684  0.2386  0.0745  0.0713
  537loPI   C3A 8585   9.990   5.682   9.235 -0.1092  0.0221 -0.0176
  537loPI   C4A 8586   9.883   5.722   8.832  0.0828  0.2526 -0.0777
  537loPI   C5A 8587   9.814   5.584   8.393  0.2551  0.1076 -0.0414
  537loPI   C6A 8588  10.099   5.361   8.100 -0.1005 -0.0509  0.1844
  537loPI   C1B 8589  10.163   5.160   9.852  0.3155 -0.3581  0.0349
  537loPI   C2B 8590  10.197   5.188   9.508  0.0890  0.0035 -0.1397
  537loPI   C3B 8591  10.075   5.199   9.051 -0.3623 -0.2210  0.2201
  537loPI   C4B 8592  10.072   5.139   8.563 -0.2983  0.2550 -0.5122
  538loPI    C1 8593   5.148  17.596  10.588 -0.1596 -0.0201  0.0516
  538loPI    C2 8594   4.923  17.679  10.908 -0.2654  0.1018 -0.0535
  538loPI    C3 8595   5.123  17.972  10.723 -0.1701  0.0242 -0.0734
  538loPI   PO4 8596   5.009  17.488  10.430 -0.0367 -0.1701  0.0597
  538loPI   GL1 8597   5.090  17.359  10.016 -0.2604 -0.1035  0.0023
  538loPI   GL2 8598   4.907  17.127  10.014 -0.2759 -0.1469 -0.6341
  538loPI   C1A 8599   5.176  17.721   9.720 -0.1502  0.0130  0.0719
  538loPI   C2A 8600   5.182  17.684   9.262  0.2181  0.0007  0.1017
  538loPI   C3A 8601   5.220  17.613   8.813  0.1890 -0.1321  0.1325
  538loPI   C4A 8602   5.236  17.599   8.355  0.2882  0.1976 -0.1681
  538loPI   C5A 8603   5.108  17.924   8.047  0.2863 -0.0406 -0.2920
  538loPI   C6A 8604   4.726  18.177   7.981 -0.0102 -0.2128 -0.2098
  538loPI   C1B 8605   4.827  17.227   9.570  0.3844  0.0358 -0.2517
  538loPI   C2B 8606   4.752  17.169   9.176  0.3364  0.1036  0.2018
  538loPI   C3B 8607   4.884  17.290   8.768  0.4830 -0.2724  0.1537
  538loPI   C4B 8608   5.034  17.112   8.404  0.3702  0.0523 -0.0456
  539loPI    C1 8609   5.308  18.436  10.589 -0.1947 -0.0018  0.1812
  539loPI    C2 8610   5.591  18.260  10.809 -0.0841 -0.0091  0.0345
  539loPI    C3 8611   5.563  18.659  10.802 -0.1596 -0.0119  0.1498
  539loPI   PO4 8612   5.315  18.346  10.354  0.2808  0.1923 -0.2997
  539loPI   GL1 8613   5.255  18.286   9.892 -0.1039 -0.0708  0.0091
  539loPI   GL2 8614   5.553  18.110   9.906  0.1766 -0.0851  0.1135
  539loPI   C1A 8615   5.152  18.530   9.527 -0.3175 -0.0381 -0.0725
  539loPI   C2A 8616   5.286  18.589   9.061 -0.1579  0.2368 -0.0085
  539loPI   C3A 8617   5.377  18.613   8.674  0.1301  0.1629  0.2694
  539loPI   C4A 8618   5.469  18.427   8.321 -0.0652 -0.1495  0.0746
  539loPI   C5A 8619   5.216  18.388   7.919  0.2038 -0.1019  0.1500
  539loPI   C6A 8620   5.390  18.682   7.629  0.1104  0.2845 -0.1793
  539loPI   C1B 8621   5.394  18.117   9.425 -0.0353 -0.1346  0.0027
  539loPI   C2B 8622   5.485  18.081   9.011 -0.0447  0.0879 -0.0390
  539loPI   C3B 8623   5.585  17.938   8.639 -0.0062 -0.0580 -0.0323
  539loPI   C4B 8624   5.620  17.982   8.124 -0.1442  0.2747  0.0990
  540loPI    C1 8625   4.761  15.742  10.273  0.0283  0.2303  0.2407
  540loPI    C2 8626   4.424  15.646  10.467 -0.2285  0.0178 -0.2892
  540loPI    C3 8627   4.713  15.373  10.420 -0.2037  0.0425 -0.2807
  540loPI   PO4 8628   4.711  15.833  10.029  0.4347  0.1298  0.0075
  540loPI   GL1 8629   4.749  16.090   9.755 -0.0444 -0.1253  0.0425
  540loPI   GL2 8630   4.583  16.348   9.765  0.1798 -0.1728 -0.1184
  540loPI   C1A 8631   4.937  16.144   9.395 -0.1143 -0.0425 -0.0538
  540loPI   C2A 8632   5.052  16.194   8.880  0.1100 -0.1030 -0.0627
  540loPI   C3A 8633   5.060  16.122   8.389 -0.2907  0.1384 -0.2167
  540loPI   C4A 8634   5.258  16.278   7.991 -0.0785 -0.2585 -0.3837
  540loPI   C5A 8635   5.379  16.683   7.756 -0.1643  0.2822  0.1136
  540loPI   C6A 8636   5.540  16.938   7.449  0.1068 -0.2801  0.0543
  540loPI   C1B 8637   4.509  16.339   9.281  0.0175 -0.0554 -0.0413
  540loPI   C2B 8638   4.552  16.366   8.961  0.1025 -0.0128 -0.1135
  540loPI   C3B 8639   4.691  16.445   8.551 -0.1575  0.3995 -0.0580
  540loPI   C4B 8640   4.777  16.364   8.088 -0.0956 -0.1213  0.0586
  541POPI    C1 8641   2.620  10.496   9.913  0.3751 -0.0951 -0.2319
  541POPI    C2 8642   2.968  10.382  10.075  0.2052 -0.0674  0.1643
  541POPI    C3 8643   2.766  10.690  10.231 -0.0961 -0.2098  0.0643
  541POPI   PO4 8644   2.663  10.460   9.657 -0.1912  0.1252  0.0211
  541POPI   GL1 8645   2.874  10.570   9.243 -0.0917  0.2756  0.2854
  541POPI   GL2 8646   2.723  10.852   9.351 -0.1498 -0.0445 -0.1256
  541POPI   C1A 8647   3.164  10.439   8.890  0.1494 -0.0805 -0.2191
  541POPI   D2A 8648   3.283  10.348   8.459  0.1316  0.2746 -0.1888
  541POPI   C3A 8649   3.313  10.198   8.061 -0.0901 -0.1400  0.0984
  541POPI   C4A 8650   3.231  10.237   7.647 -0.1596  0.0098 -0.0084
  541POPI   C1B 8651   2.989  10.925   8.882  0.0781 -0.0695  0.0725
  541POPI   C2B 8652   3.031  10.936   8.512  0.0303 -0.1131  0.2108
  541POPI   C3B 8653   2.955  10.727   8.157 -0.1272  0.1076 -0.1423
  541POPI   C4B 8654   2.995  10.735   7.720  0.5240  0.1338 -0.2821
  542POPI    C1 8655   8.238   9.994  10.968 -0.3850 -0.1881 -0.1399
  542POPI    C2 8656   8.016  10.327  10.964 -0.1393 -0.0147  0.1880
  542POPI    C3 8657   8.048  10.111  11.300  0.1657 -0.0507  0.1383
  542POPI   PO4 8658   8.354  10.056  10.721 -0.3803  0.2658  0.4383
  542POPI   GL1 8659   8.397  10.128  10.240  0.2525  0.3568 -0.1607
  542POPI   GL2 8660   8.102   9.980  10.084  0.2132 -0.2894 -0.3142
  542POPI   C1A 8661   8.409  10.389   9.883 -0.2053 -0.1450  0.0839
  542POPI   D2A 8662   8.352  10.513   9.451 -0.2340  0.0271 -0.0566
  542POPI   C3A 8663   8.278  10.487   8.974  0.0452  0.0470 -0.2060
  542POPI   C4A 8664   8.391  10.477   8.578 -0.2493 -0.0626 -0.0905
  542POPI   C1B 8665   8.003  10.031   9.653 -0.1443  0.0217  0.0717
  542POPI   C2B 8666   7.994  10.113   9.177 -0.0217 -0.1291  0.0683
  542POPI   C3B 8667   7.899  10.004   8.749 -0.3178 -0.1004 -0.0163
  542POPI   C4B 8668   8.004  10.045   8.354  0.2215 -0.1945  0.3928
  543POPI    C1 8669  16.773  16.911  10.274  0.1772 -0.0239  0.3742
  543POPI    C2 8670  17.036  16.614  10.328 -0.0473 -0.2381  0.3112
  543POPI    C3 8671  16.670  16.588  10.488 -0.1265 -0.0731  0.1605
  543POPI   PO4 8672  16.766  16.922   9.970 -0.0180 -0.1215  0.2982
  543POPI   GL1 8673  16.611  16.868   9.544 -0.2611 -0.3536  0.0007
  543POPI   GL2 8674  16.346  16.643   9.567  0.2401 -0.0904  0.0227
  543POPI   C1A 8675  16.613  16.979   9.134  0.0341 -0.3143  0.0444
  543POPI   D2A 8676  16.578  17.268   8.836 -0.0681  0.0249  0.4126
  543POPI   C3A 8677  16.678  17.249   8.499  0.1695  0.0853 -0.0815
  543POPI   C4A 8678  16.879  17.177   8.065 -0.0526  0.2868 -0.2078
  543POPI   C1B 8679  16.210  16.666   9.130 -0.0167 -0.0494  0.1043
  543POPI   C2B 8680  16.162  16.742   8.640  0.0665 -0.0058 -0.2890
  543POPI   C3B 8681  16.253  16.929   8.291  0.1300 -0.0556 -0.1892
  543POPI   C4B 8682  16.387  17.290   8.031 -0.0314 -0.0953  0.2451
  544POPI    C1 8683   3.863  15.484   9.912 -0.0025 -0.0602 -0.0485
  544POPI    C2 8684   4.040  15.380  10.255 -0.0258  0.0083 -0.0156
  544POPI    C3 8685   3.651  15.305  10.200 -0.0398  0.0663  0.0032
  544POPI   PO4 8686   4.040  15.460   9.738  0.0366 -0.3976 -0.0607
  544POPI   GL1 8687   4.127  15.380   9.384  0.3974 -0.1233  0.1315
  544POPI   GL2 8688   4.406  15.185   9.405  0.3618 -0.2492  0.0943
  544POPI   C1A 8689   4.005  15.355   8.984 -0.0620 -0.1171  0.2400
  544POPI   D2A 8690   4.199  15.577   8.617 -0.0449  0.0996  0.1823
  544POPI   C3A 8691   3.991  15.460   8.274  0.0324 -0.0207  0.1219
  544POPI   C4A 8692   3.846  15.376   7.948 -0.1307  0.1708 -0.0326
  544POPI   C1B 8693   4.504  15.138   8.880 -0.0831  0.3244 -0.1212
  544POPI   C2B 8694   4.586  15.291   8.399 -0.2366  0.0706 -0.2302
  544POPI   C3B 8695   4.714  15.431   8.022 -0.1989 -0.1020 -0.2419
  544POPI   C4B 8696   4.602  15.632   7.671  0.1754 -0.1457 -0.3413
  545POPI    C1 8697   3.939  12.083   9.770  0.2810 -0.2418 -0.0578
  545POPI    C2 8698   3.575  11.931   9.840  0.1092  0.0734 -0.2424
  545POPI    C3 8699   3.794  12.074  10.143  0.0698 -0.0917 -0.1346
  545POPI   PO4 8700   3.949  12.025   9.549 -0.1399 -0.1365 -0.1460
  545POPI   GL1 8701   3.880  11.887   9.229 -0.1573 -0.0409 -0.0706
  545POPI   GL2 8702   4.135  11.653   9.259 -0.0956  0.2412  0.0814
  545POPI   C1A 8703   3.894  11.893   8.711  0.0579  0.3275 -0.2881
  545POPI   D2A 8704   3.930  11.804   8.314 -0.0033  0.2729  0.2208
  545POPI   C3A 8705   3.586  11.690   8.117 -0.0785 -0.2375 -0.2047
  545POPI   C4A 8706   3.526  11.436   7.805  0.0806  0.1662 -0.2218
  545POPI   C1B 8707   4.384  11.720   8.912  0.1181 -0.2146 -0.3438
  545POPI   C2B 8708   4.362  11.661   8.521  0.3152  0.2242  0.2664
  545POPI   C3B 8709   4.422  11.665   8.113 -0.3712  0.6330  0.2807
  545POPI   C4B 8710   4.466  11.670   7.663  0.3282 -0.0160 -0.1520
  546POPI    C1 8711   2.015  13.118  10.133  0.1992 -0.0019 -0.0275
  546POPI    C2 8712   1.810  12.911  10.407  0.1424  0.0733 -0.0131
  546POPI    C3 8713   1.961  13.270  10.499  0.3613 -0.0222  0.0056
  546POPI   PO4 8714   1.916  13.019   9.869  0.1867  0.0966 -0.2930
  546POPI   GL1 8715   1.875  13.230   9.410  0.0410 -0.1252  0.1648
  546POPI   GL2 8716   1.561  13.425   9.268  0.0507  0.0415 -0.0905
  546POPI   C1A 8717   1.817  13.122   8.933  0.3221 -0.0479 -0.1861
  546POPI   D2A 8718   1.514  13.165   8.630  0.0076  0.5085  0.2140
  546POPI   C3A 8719   1.647  13.123   8.161  0.2065 -0.0754  0.0118
  546POPI   C4A 8720   1.763  12.988   7.746 -0.0144 -0.1512 -0.2717
  546POPI   C1B 8721   1.619  13.584   8.806  0.1907  0.0224 -0.0672
  546POPI   C2B 8722   1.835  13.511   8.422 -0.2118  0.2069 -0.1383
  546POPI   C3B 8723   2.045  13.517   8.027  0.1496  0.5966  0.1068
  546POPI   C4B 8724   1.970  13.398   7.576  0.2535 -0.0484 -0.0560
  547POPI    C1 8725  17.667   9.240   9.816  0.1148  0.0726  0.1256
  547POPI    C2 8726  17.955   8.991   9.938  0.0814  0.0314  0.1195
  547POPI    C3 8727  17.779   9.236  10.200  0.0161 -0.0516  0.1535
  547POPI   PO4 8728  17.536   9.033   9.694  0.1239  0.3110  0.0853
  547POPI   GL1 8729  17.323   8.921   9.348 -0.1504 -0.2145  0.1537
  547POPI   GL2 8730  17.046   9.129   9.372 -0.1173 -0.1039  0.0869
  547POPI   C1A 8731  17.393   8.970   8.950  0.0699 -0.0863  0.0347
  547POPI   D2A 8732  17.424   8.928   8.457 -0.1704  0.0041 -0.0731
  547POPI   C3A 8733  17.163   8.785   8.063 -0.1328 -0.0466 -0.1228
  547POPI   C4A 8734  17.046   8.616   7.712 -0.2147  0.1801  0.1968
  547POPI   C1B 8735  16.928   9.056   8.887 -0.1270 -0.3303  0.2919
  547POPI   C2B 8736  16.700   8.911   8.565 -0.2858  0.0599  0.0519
  547POPI   C3B 8737  16.668   8.844   8.137  0.1752 -0.1720  0.3335
  547POPI   C4B 8738  16.591   9.077   7.776 -0.1056  0.3634 -0.1819
  548POPI    C1 8739   6.025   1.653  10.446  0.0581 -0.1620 -0.0587
  548POPI    C2 8740   6.302   1.578  10.725 -0.0464  0.0871  0.1164
  548POPI    C3 8741   5.931   1.434  10.767  0.0095 -0.1051 -0.0338
  548POPI   PO4 8742   6.151   1.518  10.219 -0.0606  0.3031 -0.1007
  548POPI   GL1 8743   6.391   1.525   9.914  0.1034  0.0526 -0.1318
  548POPI   GL2 8744   6.541   1.915   9.819 -0.0991  0.0512  0.2346
  548POPI   C1A 8745   6.440   1.644   9.388 -0.2444 -0.1893 -0.2061
  548POPI   D2A 8746   6.348   1.602   8.910  0.1513  0.0243 -0.0188
  548POPI   C3A 8747   6.453   1.541   8.505 -0.1711  0.2308 -0.0207
  548POPI   C4A 8748   6.568   1.685   8.178 -0.1029  0.0912  0.1695
  548POPI   C1B 8749   6.700   2.041   9.494  0.0602 -0.0022  0.3958
  548POPI   C2B 8750   6.722   1.919   9.046  0.1074  0.2033  0.0383
  548POPI   C3B 8751   6.753   1.974   8.649  0.1707 -0.0768 -0.1200
  548POPI   C4B 8752   6.916   2.023   8.272 -0.1177 -0.0312  0.0519
  549POPI    C1 8753   0.533  12.736  10.182 -0.0134 -0.1410  0.0897
  549POPI    C2 8754   0.885  12.551  10.222  0.0375 -0.0657 -0.0040
  549POPI    C3 8755   0.547  12.337  10.209  0.0733 -0.1338  0.1545
  549POPI   PO4 8756   0.492  12.818   9.948  0.7007  0.0064  0.3580
  549POPI   GL1 8757   0.477  12.720   9.538  0.1179  0.2177  0.1102
  549POPI   GL2 8758   0.714  12.603   9.335 -0.1827 -0.2108 -0.3445
  549POPI   C1A 8759   0.296  12.731   9.171 -0.0560  0.2137 -0.1037
  549POPI   D2A 8760   0.234  12.624   8.788  0.0973 -0.0267  0.3688
  549POPI   C3A 8761  -0.051  12.595   8.366 -0.1522  0.2177 -0.0646
  549POPI   C4A 8762  -0.166  12.299   8.055  0.2456  0.0372 -0.1014
  549POPI   C1B 8763   0.746  12.605   8.932 -0.2090 -0.0314 -0.4035
  549POPI   C2B 8764   0.827  12.639   8.435 -0.0324  0.0159 -0.0180
  549POPI   C3B 8765   0.933  12.773   8.036  0.3592 -0.1340  0.3253
  549POPI   C4B 8766   1.204  13.111   7.968 -0.2989 -0.0790 -0.1759
  550POPI    C1 8767   6.866  14.556  10.608  0.0767 -0.1241  0.0266
  550POPI    C2 8768   6.617  14.834  10.753  0.2440  0.0840 -0.0787
  550POPI    C3 8769   6.673  14.491  10.952  0.0379  0.1259  0.0542
  550POPI   PO4 8770   7.091  14.814  10.467  0.1530  0.2243 -0.2863
  550POPI   GL1 8771   7.184  14.799  10.022 -0.0169  0.0608  0.2893
  550POPI   GL2 8772   7.342  14.584   9.856 -0.1047 -0.1524 -0.1487
  550POPI   C1A 8773   7.153  15.016   9.572 -0.2781  0.1738 -0.1600
  550POPI   D2A 8774   7.321  15.082   9.270  0.2309 -0.1230 -0.1691
  550POPI   C3A 8775   7.170  15.031   8.849 -0.2097 -0.0563  0.1275
  550POPI   C4A 8776   7.205  15.119   8.363 -0.1431  0.2413 -0.2633
  550POPI   C1B 8777   7.358  14.539   9.458  0.0410 -0.2651 -0.2911
  550POPI   C2B 8778   7.286  14.589   9.048  0.2299  0.1219  0.3676
  550POPI   C3B 8779   7.281  14.553   8.620  0.2863 -0.0952  0.2448
  550POPI   C4B 8780   7.534  14.609   8.282 -0.1155 -0.4590 -0.0518
  551POPI    C1 8781   3.258  16.297  10.106 -0.3684 -0.3727 -0.2082
  551POPI    C2 8782   3.044  16.328  10.443 -0.0368  0.0488 -0.0252
  551POPI    C3 8783   3.302  16.025  10.396  0.0628  0.0988  0.1892
  551POPI   PO4 8784   3.130  16.427   9.955  0.0039 -0.0965  0.0206
  551POPI   GL1 8785   3.035  16.298   9.485  0.1965 -0.1604  0.2550
  551POPI   GL2 8786   3.366  16.247   9.546 -0.0317 -0.0333 -0.0211
  551POPI   C1A 8787   3.119  16.403   9.046 -0.1860 -0.0777  0.0888
  551POPI   D2A 8788   3.166  16.432   8.551  0.2987 -0.0667 -0.1863
  551POPI   C3A 8789   3.171  16.630   8.161  0.2494  0.4352  0.1970
  551POPI   C4A 8790   3.425  16.901   7.838  0.0120 -0.0661  0.2526
  551POPI   C1B 8791   3.710  16.461   9.238 -0.2805 -0.1129 -0.2865
  551POPI   C2B 8792   3.928  16.476   8.892  0.1497  0.4750  0.0625
  551POPI   C3B 8793   4.069  16.501   8.462  0.1183  0.1123 -0.2351
  551POPI   C4B 8794   4.243  16.463   8.019 -0.0501  0.1783 -0.0459
  552POPI    C1 8795   2.737  13.320   9.571 -0.0217 -0.1413  0.1018
  552POPI    C2 8796   2.901  13.298   9.935  0.0130 -0.2034  0.0827
  552POPI    C3 8797   2.538  13.460   9.889  0.0366 -0.1349  0.1357
  552POPI   PO4 8798   2.989  13.319   9.417 -0.0892 -0.0242 -0.0151
  552POPI   GL1 8799   3.148  13.194   9.048  0.3197  0.0147  0.0821
  552POPI   GL2 8800   3.478  13.091   9.130  0.0632 -0.0798 -0.1518
  552POPI   C1A 8801   3.477  13.518   8.910 -0.1062  0.1964  0.2516
  552POPI   D2A 8802   3.614  13.923   8.899 -0.1215  0.0087 -0.0948
  552POPI   C3A 8803   3.831  14.031   8.590 -0.0283 -0.0605  0.2818
  552POPI   C4A 8804   4.117  14.047   8.303 -0.0688  0.0676 -0.0280
  552POPI   C1B 8805   3.382  12.985   8.712  0.1543  0.0666 -0.0705
  552POPI   C2B 8806   3.387  12.906   8.339 -0.1685  0.0437  0.0282
  552POPI   C3B 8807   3.548  12.673   7.944 -0.1260  0.1160 -0.1260
  552POPI   C4B 8808   3.542  12.495   7.533 -0.1656 -0.1619  0.2865
  553POPI    C1 8809  16.343   2.077  10.714 -0.0225 -0.1489 -0.0009
  553POPI    C2 8810  16.534   2.278  11.002 -0.0254  0.0274 -0.1205
  553POPI    C3 8811  16.223   2.044  11.094  0.1226 -0.1055  0.0493
  553POPI   PO4 8812  16.361   2.233  10.459 -0.1580  0.1606 -0.0072
  553POPI   GL1 8813  16.249   2.164   9.962  0.1277 -0.0627  0.2189
  553POPI   GL2 8814  15.951   2.291  10.015  0.0307 -0.1205 -0.0418
  553POPI   C1A 8815  16.298   2.121   9.508  0.2487 -0.1400 -0.0948
  553POPI   D2A 8816  16.077   2.071   9.158 -0.1406  0.3252  0.0264
  553POPI   C3A 8817  15.972   2.024   8.776 -0.1169  0.1471 -0.3571
  553POPI   C4A 8818  16.055   2.033   8.311  0.1606  0.2414  0.2018
  553POPI   C1B 8819  15.648   2.132   9.755  0.2034 -0.1591  0.0717
  553POPI   C2B 8820  15.644   2.237   9.402  0.2224 -0.0681 -0.1645
  553POPI   C3B 8821  15.589   2.326   9.032  0.0327  0.0172 -0.2838
  553POPI   C4B 8822  15.474   2.189   8.676 -0.2113  0.0063 -0.2832
  554POPI    C1 8823  17.451   1.613  10.438 -0.0805 -0.0904  0.3850
  554POPI    C2 8824  17.628   1.970  10.397 -0.0413 -0.1639 -0.1628
  554POPI    C3 8825  17.360   1.912  10.688  0.0614  0.2642  0.0252
  554POPI   PO4 8826  17.508   1.522  10.160  0.0335  0.0203  0.1193
  554POPI   GL1 8827  17.499   1.347   9.808  0.0027 -0.0171  0.2108
  554POPI   GL2 8828  17.671   1.706   9.754 -0.2079  0.0054  0.0802
  554POPI   C1A 8829  17.407   1.255   9.353  0.0292 -0.1414 -0.1256
  554POPI   D2A 8830  17.303   1.270   8.862 -0.1478 -0.0056 -0.0641
  554POPI   C3A 8831  17.156   1.243   8.404 -0.1830 -0.3211  0.1402
  554POPI   C4A 8832  17.142   1.171   7.953 -0.0918 -0.7047 -0.1459
  554POPI   C1B 8833  17.691   1.710   9.352 -0.0436  0.0496  0.1779
  554POPI   C2B 8834  17.728   1.840   8.906 -0.0102  0.2036 -0.0004
  554POPI   C3B 8835  17.855   1.730   8.539  0.0985 -0.0412 -0.0002
  554POPI   C4B 8836  17.967   1.883   8.137 -0.1417  0.1614 -0.1948
  555POPI    C1 8837  11.653   9.770  11.394  0.0380  0.1255 -0.2776
  555POPI    C2 8838  11.478  10.043  11.160  0.0145  0.1501 -0.2314
  555POPI    C3 8839  11.368  10.007  11.543 -0.1745 -0.1072 -0.3065
  555POPI   PO4 8840  11.745   9.563  11.092  0.1863 -0.0956 -0.1105
  555POPI   GL1 8841  11.742   9.646  10.558 -0.0607  0.0893  0.0210
  555POPI   GL2 8842  11.474   9.551  10.389  0.2996 -0.2397  0.0960
  555POPI   C1A 8843  12.023   9.446  10.141 -0.0228  0.1281  0.1756
  555POPI   D2A 8844  12.038   9.314   9.722  0.1253 -0.4015 -0.0016
  555POPI   C3A 8845  11.965   9.477   9.417  0.0166  0.0587  0.0284
  555POPI   C4A 8846  11.960   9.450   9.063  0.2041  0.5121  0.2597
  555POPI   C1B 8847  11.523   9.614   9.839 -0.0065 -0.1346 -0.2794
  555POPI   C2B 8848  11.502   9.636   9.430  0.1297  0.1590  0.1705
  555POPI   C3B 8849  11.391   9.678   9.064  0.1462  0.0571 -0.0025
  555POPI   C4B 8850  11.338   9.590   8.642 -0.0411  0.2770  0.1919
  556POPI    C1 8851   4.274   1.707  10.378  0.0505  0.2898 -0.0959
  556POPI    C2 8852   4.086   2.050  10.462  0.1729  0.3212  0.0524
  556POPI    C3 8853   4.310   1.871  10.741  0.0272  0.0666  0.0091
  556POPI   PO4 8854   4.264   1.729  10.164 -0.0303  0.3571  0.2877
  556POPI   GL1 8855   4.127   2.071   9.785 -0.0453  0.0703  0.5088
  556POPI   GL2 8856   3.946   1.908   9.642 -0.0530 -0.2788 -0.1179
  556POPI   C1A 8857   4.300   2.231   9.395 -0.2054 -0.2066  0.2529
  556POPI   D2A 8858   4.366   2.352   9.071  0.0513  0.0673 -0.1004
  556POPI   C3A 8859   4.294   2.207   8.685  0.0127  0.1866  0.1359
  556POPI   C4A 8860   4.434   2.194   8.227 -0.2852 -0.0476  0.2192
  556POPI   C1B 8861   3.874   1.838   9.266 -0.2157 -0.2260 -0.1258
  556POPI   C2B 8862   3.867   1.786   8.868 -0.1054  0.1024 -0.0854
  556POPI   C3B 8863   3.951   1.878   8.520  0.0736  0.2028  0.2662
  556POPI   C4B 8864   4.041   1.884   8.048 -0.2040 -0.1224 -0.1445
  557POPI    C1 8865   1.811  13.682   9.613 -0.3777 -0.1517  0.3581
  557POPI    C2 8866   1.905  13.911   9.927 -0.1426 -0.2012  0.3258
  557POPI    C3 8867   2.028  13.531   9.913  0.2152 -0.0788 -0.0198
  557POPI   PO4 8868   1.823  13.838   9.404  0.2108  0.0641  0.0471
  557POPI   GL1 8869   1.988  13.982   9.131  0.2259 -0.0406  0.2331
  557POPI   GL2 8870   2.402  13.968   9.138 -0.2036  0.0202 -0.3655
  557POPI   C1A 8871   1.974  13.885   8.735  0.2197  0.0059  0.1437
  557POPI   D2A 8872   1.951  14.001   8.367  0.3024  0.0937 -0.1917
  557POPI   C3A 8873   2.342  13.870   8.118  0.1112 -0.0081  0.2091
  557POPI   C4A 8874   2.634  13.672   7.874  0.0435  0.2192  0.0095
  557POPI   C1B 8875   2.515  13.912   8.692 -0.0743 -0.1075  0.2879
  557POPI   C2B 8876   2.793  13.815   8.338 -0.1199 -0.0645  0.2795
  557POPI   C3B 8877   3.117  13.634   8.102 -0.1652 -0.0691  0.0286
  557POPI   C4B 8878   3.493  13.551   7.827  0.2252  0.1874 -0.1683
  558POPI    C1 8879  18.041   7.809   9.831  0.1647  0.0173  0.0705
  558POPI    C2 8880  18.391   7.695   9.987  0.1496  0.0943  0.1606
  558POPI    C3 8881  18.060   7.483  10.061  0.1739  0.0320  0.0905
  558POPI   PO4 8882  18.045   7.778   9.586 -0.1560 -0.0916  0.0236
  558POPI   GL1 8883  17.801   7.676   9.145 -0.1378 -0.1960 -0.0953
  558POPI   GL2 8884  17.769   8.048   9.101  0.0588 -0.2605  0.1459
  558POPI   C1A 8885  17.557   7.702   8.767 -0.1395  0.0542 -0.0113
  558POPI   D2A 8886  17.527   7.717   8.498 -0.2856  0.0703 -0.1667
  558POPI   C3A 8887  17.624   7.912   8.139 -0.2313  0.0506  0.1546
  558POPI   C4A 8888  17.712   7.978   7.647  0.1242 -0.2043 -0.3716
  558POPI   C1B 8889  17.932   8.195   8.716 -0.0184 -0.0049  0.0148
  558POPI   C2B 8890  17.939   8.244   8.408 -0.2757  0.0481 -0.1080
  558POPI   C3B 8891  17.968   8.252   7.983 -0.0788 -0.0312 -0.0973
  558POPI   C4B 8892  17.840   8.490   7.607 -0.0875  0.0190 -0.0518
  559POPI    C1 8893   0.046  15.584  10.181 -0.0527 -0.2829  0.1672
  559POPI    C2 8894   0.012  15.882  10.445  0.0672 -0.0699 -0.0535
  559POPI    C3 8895   0.016  15.502  10.571 -0.1183  0.0183  0.2276
  559POPI   PO4 8896   0.115  15.833   9.918  0.2209 -0.0655 -0.0077
  559POPI   GL1 8897  -0.207  16.095   9.616  0.1137  0.2733  0.1811
  559POPI   GL2 8898  -0.213  15.819   9.468  0.1432  0.1745  0.3550
  559POPI   C1A 8899  -0.149  16.419   9.281 -0.0902  0.0734  0.4409
  559POPI   D2A 8900  -0.528  16.458   8.882 -0.1325 -0.1247 -0.2072
  559POPI   C3A 8901  -0.561  16.460   8.436 -0.0237  0.0443  0.1058
  559POPI   C4A 8902  -0.566  16.371   8.007 -0.2810 -0.0461 -0.3551
  559POPI   C1B 8903  -0.344  16.008   9.095  0.0740  0.2246  0.2122
  559POPI   C2B 8904  -0.325  16.101   8.641 -0.2672 -0.0819  0.0793
  559POPI   C3B 8905  -0.144  16.106   8.217  0.2656  0.0028 -0.1474
  559POPI   C4B 8906   0.262  15.973   8.122 -0.1379 -0.1110  0.3065
  560POPI    C1 8907  10.540  11.348  10.869 -0.1054  0.1395 -0.0007
  560POPI    C2 8908  10.739  11.523  11.169  0.0668 -0.0050 -0.0292
  560POPI    C3 8909  10.342  11.482  11.190  0.0464  0.2224  0.0597
  560POPI   PO4 8910  10.576  11.422  10.664 -0.2051  0.1315  0.1192
  560POPI   GL1 8911  10.561  11.498  10.256  0.1202  0.3076  0.1419
  560POPI   GL2 8912  10.543  11.153   9.998 -0.1778 -0.3490  0.0105
  560POPI   C1A 8913  10.502  11.752   9.912 -0.0978 -0.2611 -0.0499
  560POPI   D2A 8914  10.401  11.699   9.553  0.0395 -0.0376  0.0523
  560POPI   C3A 8915  10.381  11.789   9.154  0.0648 -0.3663  0.0608
  560POPI   C4A 8916  10.326  11.772   8.737  0.1318 -0.0672 -0.1138
  560POPI   C1B 8917  10.589  11.156   9.672  0.2697 -0.1066 -0.1248
  560POPI   C2B 8918  10.516  11.236   9.291 -0.0067  0.2074 -0.2495
  560POPI   C3B 8919  10.397  11.237   8.802 -0.0962 -0.1253 -0.1986
  560POPI   C4B 8920  10.320  11.318   8.370  0.0131  0.1385 -0.1221
  561POPI    C1 8921   2.698  13.843   9.640 -0.1561 -0.1529  0.1519
  561POPI    C2 8922   3.058  13.761   9.794 -0.0742 -0.0429  0.0216
  561POPI    C3 8923   2.842  14.063   9.942 -0.0192  0.0282 -0.0424
  561POPI   PO4 8924   2.746  13.784   9.406  0.3018  0.1100 -0.2179
  561POPI   GL1 8925   2.704  13.543   8.998 -0.0526  0.2269 -0.1644
  561POPI   GL2 8926   2.577  13.333   9.119 -0.0328  0.2071  0.0638
  561POPI   C1A 8927   3.014  13.404   8.628  0.0111 -0.1635 -0.1020
  561POPI   D2A 8928   3.344  13.374   8.407 -0.1341 -0.4459  0.0313
  561POPI   C3A 8929   3.666  13.619   8.303  0.2114 -0.5321  0.1681
  561POPI   C4A 8930   3.934  13.761   7.943 -0.3627  0.1453  0.1584
  561POPI   C1B 8931   2.685  12.989   8.841 -0.1966 -0.0804 -0.0719
  561POPI   C2B 8932   2.892  12.832   8.436  0.1126  0.0070  0.0111
  561POPI   C3B 8933   3.009  12.689   8.082  0.2457  0.0423  0.2132
  561POPI   C4B 8934   3.102  12.720   7.656  0.0021 -0.3323 -0.2716
  562POPI    C1 8935   8.152  16.406  11.031 -0.2436 -0.0536 -0.0260
  562POPI    C2 8936   8.366  16.625  11.288 -0.2341  0.0557 -0.1264
  562POPI    C3 8937   8.123  16.338  11.424 -0.2716  0.1500  0.0080
  562POPI   PO4 8938   8.311  16.282  10.814  0.0712 -0.1575 -0.2459
  562POPI   GL1 8939   8.259  16.025  10.523  0.0586 -0.3541 -0.2354
  562POPI   GL2 8940   7.955  16.119  10.237 -0.2141 -0.0248  0.1771
  562POPI   C1A 8941   8.348  16.142   9.985 -0.0004  0.2434 -0.0401
  562POPI   D2A 8942   8.286  16.220   9.579 -0.0913  0.1900  0.2575
  562POPI   C3A 8943   8.330  16.093   9.126 -0.1734  0.0741 -0.2158
  562POPI   C4A 8944   8.419  16.173   8.632 -0.2249  0.1417 -0.1036
  562POPI   C1B 8945   7.715  16.328   9.968 -0.0865  0.1037 -0.3202
  562POPI   C2B 8946   7.796  16.303   9.494  0.0904  0.1244  0.1735
  562POPI   C3B 8947   7.882  16.284   9.083 -0.0014 -0.0724 -0.1695
  562POPI   C4B 8948   7.917  16.281   8.644  0.1790  0.0513  0.2130
  563POPI    C1 8949  17.775  15.423  10.141  0.1679 -0.0318 -0.0634
  563POPI    C2 8950  17.547  15.539  10.449  0.1899  0.1223 -0.1044
  563POPI    C3 8951  17.775  15.212  10.481 -0.0924 -0.0765 -0.0889
  563POPI   PO4 8952  17.680  15.425   9.949  0.0004  0.2160 -0.0885
  563POPI   GL1 8953  17.558  15.121   9.592  0.1202  0.5321  0.0304
  563POPI   GL2 8954  17.791  14.900   9.378  0.0926  0.0465  0.0813
  563POPI   C1A 8955  17.457  15.207   9.214  0.0352  0.0175 -0.1526
  563POPI   D2A 8956  17.474  15.352   8.840  0.1365 -0.0356  0.1054
  563POPI   C3A 8957  17.448  15.394   8.376 -0.2076  0.0682  0.2518
  563POPI   C4A 8958  17.560  15.471   7.928 -0.1635  0.0633  0.3486
  563POPI   C1B 8959  17.905  15.116   8.941 -0.1074  0.1853  0.1496
  563POPI   C2B 8960  17.968  15.239   8.577 -0.0517 -0.2209 -0.2000
  563POPI   C3B 8961  18.106  15.278   8.080 -0.2144 -0.1392 -0.0242
  563POPI   C4B 8962  18.112  15.261   7.566  0.1596 -0.2282  0.0510
  564POPI    C1 8963  18.332   7.312   9.677  0.2485 -0.0439  0.0253
  564POPI    C2 8964  18.153   6.956   9.706  0.1688 -0.0073 -0.0139
  564POPI    C3 8965  18.397   7.081   9.997 -0.1009  0.0696  0.1832
  564POPI   PO4 8966  18.412   7.363   9.545  0.0319 -0.2758 -0.0915
  564POPI   GL1 8967  18.135   7.320   9.170  0.0489  0.1493 -0.4301
  564POPI   GL2 8968  18.183   6.980   9.201 -0.1897  0.0648 -0.0799
  564POPI   C1A 8969  18.256   7.193   8.733  0.1767  0.1413 -0.0330
  564POPI   D2A 8970  18.170   7.118   8.408  0.2321  0.0296 -0.0846
  564POPI   C3A 8971  17.927   7.272   8.029  0.0543  0.0154 -0.3434
  564POPI   C4A 8972  17.796   7.328   7.613  0.1438 -0.1888  0.3923
  564POPI   C1B 8973  17.975   6.780   8.783 -0.1128 -0.2484 -0.0871
  564POPI   C2B 8974  17.719   6.754   8.386 -0.2912  0.1148  0.0874
  564POPI   C3B 8975  17.624   6.914   7.855 -0.0748  0.0114 -0.0022
  564POPI   C4B 8976  17.317   7.179   7.680 -0.5165 -0.0116  0.1647
  565POPI    C1 8977  12.871  12.978  10.967  0.1636 -0.0456  0.0306
  565POPI    C2 8978  13.043  12.707  11.205 -0.0712 -0.0509  0.1970
  565POPI    C3 8979  12.646  12.707  11.156 -0.0120 -0.1727 -0.3489
  565POPI   PO4 8980  13.004  12.885  10.648 -0.1564  0.0992  0.1822
  565POPI   GL1 8981  12.921  12.870  10.249  0.1378  0.1947  0.0118
  565POPI   GL2 8982  12.658  12.636  10.326  0.0826 -0.0390 -0.2663
  565POPI   C1A 8983  13.039  12.926   9.856 -0.1401 -0.2362 -0.2954
  565POPI   D2A 8984  12.838  12.959   9.450 -0.2005  0.0982  0.0878
  565POPI   C3A 8985  12.885  12.945   9.002 -0.3889 -0.0300 -0.1710
  565POPI   C4A 8986  12.775  13.029   8.582  0.1029 -0.0989  0.1997
  565POPI   C1B 8987  12.524  12.589   9.962  0.3353  0.1396 -0.2424
  565POPI   C2B 8988  12.539  12.592   9.603  0.1085  0.0713 -0.0912
  565POPI   C3B 8989  12.487  12.503   9.169 -0.2922 -0.0959  0.1368
  565POPI   C4B 8990  12.400  12.684   8.734  0.1241  0.0651 -0.1785
  566POPI    C1 8991  11.049   8.021  10.959 -0.1862 -0.1703  0.0545
  566POPI    C2 8992  11.113   7.655  11.108 -0.0132 -0.0968  0.1638
  566POPI    C3 8993  10.747   7.816  11.124 -0.0982 -0.2791  0.0820
  566POPI   PO4 8994  11.168   7.977  10.699 -0.0676  0.2313 -0.1529
  566POPI   GL1 8995  11.581   8.019  10.522  0.1150 -0.1246 -0.2246
  566POPI   GL2 8996  11.601   7.777  10.417  0.1108 -0.1520  0.1532
  566POPI   C1A 8997  11.751   8.156  10.130  0.1009  0.1394 -0.2069
  566POPI   D2A 8998  12.013   8.149   9.780 -0.0521  0.4030  0.1991
  566POPI   C3A 8999  11.936   8.036   9.407 -0.1592 -0.0145 -0.0447
  566POPI   C4A 9000  11.778   8.159   9.014  0.0311 -0.2007 -0.2085
  566POPI   C1B 9001  11.435   7.701   9.956 -0.0872 -0.1028  0.0010
  566POPI   C2B 9002  11.455   7.660   9.490  0.1895  0.0208  0.0067
  566POPI   C3B 9003  11.322   7.666   9.152 -0.2236  0.0390  0.1667
  566POPI   C4B 9004  11.508   7.661   8.708  0.0613  0.1282 -0.2372
  567POPI    C1 9005   3.281  18.265  10.482 -0.0945 -0.0826  0.0535
  567POPI    C2 9006   3.470  17.961  10.660  0.0501  0.0105  0.0607
  567POPI    C3 9007   3.145  18.122  10.830  0.1999  0.1132  0.2538
  567POPI   PO4 9008   3.194  18.239  10.244 -0.1805 -0.2949 -0.1797
  567POPI   GL1 9009   3.189  18.296   9.772 -0.1237  0.2191 -0.0724
  567POPI   GL2 9010   2.955  18.496   9.814 -0.3228  0.1247  0.2223
  567POPI   C1A 9011   3.040  18.206   9.330  0.1300 -0.3531 -0.1085
  567POPI   D2A 9012   2.968  18.094   9.002  0.2966 -0.1900  0.1778
  567POPI   C3A 9013   3.072  18.155   8.568 -0.0055 -0.0767  0.0529
  567POPI   C4A 9014   3.274  18.200   8.184  0.2333 -0.1156  0.1988
  567POPI   C1B 9015   2.907  18.687   9.492 -0.1499  0.1097  0.0365
  567POPI   C2B 9016   3.017  18.644   9.063  0.3287 -0.1981 -0.0830
  567POPI   C3B 9017   2.992  18.685   8.629  0.0489 -0.0317  0.2831
  567POPI   C4B 9018   2.961  18.598   8.231  0.0494 -0.0160 -0.3593
  568POPI    C1 9019   4.840   3.322  10.392  0.0922  0.0769  0.0123
  568POPI    C2 9020   4.641   3.025  10.571  0.0133 -0.0235 -0.2381
  568POPI    C3 9021   5.040   3.043  10.598  0.0223 -0.1772 -0.2569
  568POPI   PO4 9022   4.695   3.400  10.093 -0.1230  0.2528 -0.0438
  568POPI   GL1 9023   4.721   3.194   9.750 -0.0559  0.0305 -0.2229
  568POPI   GL2 9024   4.464   3.085   9.683  0.1392 -0.3064 -0.1555
  568POPI   C1A 9025   4.964   3.062   9.353 -0.2437 -0.4051  0.3179
  568POPI   D2A 9026   5.137   2.946   8.953  0.0400 -0.3399 -0.2431
  568POPI   C3A 9027   5.107   2.957   8.450  0.1288 -0.0669  0.1546
  568POPI   C4A 9028   5.285   2.947   8.044  0.0089 -0.0626 -0.1294
  568POPI   C1B 9029   4.456   3.076   9.268  0.1578  0.2936  0.2857
  568POPI   C2B 9030   4.645   2.976   8.870 -0.1619 -0.0487  0.2204
  568POPI   C3B 9031   4.496   3.115   8.460  0.0270  0.2533 -0.4082
  568POPI   C4B 9032   4.293   3.440   8.255 -0.1669  0.0207  0.2222
  569POPI    C1 9033  17.147  10.547   9.881  0.1616 -0.1576 -0.0624
  569POPI    C2 9034  17.256  10.634  10.256  0.1715 -0.1278 -0.0721
  569POPI    C3 9035  16.893  10.483  10.183  0.0157  0.2460 -0.0929
  569POPI   PO4 9036  17.255  10.762   9.729  0.1961  0.1915 -0.1436
  569POPI   GL1 9037  17.423  10.682   9.379  0.0588  0.3215 -0.1544
  569POPI   GL2 9038  17.317  10.541   9.276 -0.1355  0.4678 -0.1764
  569POPI   C1A 9039  17.166  10.980   8.982 -0.0800  0.0314  0.1617
  569POPI   D2A 9040  17.071  10.991   8.549  0.1902 -0.1147  0.1192
  569POPI   C3A 9041  17.043  10.858   8.108  0.2023 -0.2530  0.1198
  569POPI   C4A 9042  17.023  10.701   7.745 -0.1825  0.1710  0.1426
  569POPI   C1B 9043  17.149  10.327   9.035 -0.1509  0.4587  0.2285
  569POPI   C2B 9044  16.987  10.041   8.777  0.4180 -0.0894 -0.0284
  569POPI   C3B 9045  16.846   9.837   8.440 -0.3477  0.2418  0.0791
  569POPI   C4B 9046  16.839   9.779   8.032  0.0375 -0.1923  0.3248
  570POPI    C1 9047   3.155  17.322  10.450  0.1581 -0.3123  0.1516
  570POPI    C2 9048   2.849  17.324  10.708  0.1411 -0.2613  0.1311
  570POPI    C3 9049   3.148  17.587  10.750  0.1035 -0.2065  0.0576
  570POPI   PO4 9050   2.978  17.337  10.171 -0.1259  0.3362 -0.1805
  570POPI   GL1 9051   2.981  17.486   9.710  0.5258  0.0627  0.0150
  570POPI   GL2 9052   2.901  17.288   9.530  0.0758 -0.0027  0.1985
  570POPI   C1A 9053   3.047  17.645   9.187 -0.2030 -0.0055 -0.1146
  570POPI   D2A 9054   2.999  17.657   8.764  0.2989  0.1256  0.0227
  570POPI   C3A 9055   3.171  17.680   8.315  0.0338 -0.0942  0.3430
  570POPI   C4A 9056   3.173  17.791   7.858 -0.1886 -0.0497 -0.0117
  570POPI   C1B 9057   2.903  17.142   9.075 -0.0120 -0.3098 -0.3070
  570POPI   C2B 9058   3.029  17.084   8.684 -0.0677 -0.1330 -0.0683
  570POPI   C3B 9059   3.090  17.128   8.259  0.0940 -0.1865 -0.0886
  570POPI   C4B 9060   3.039  17.230   7.786 -0.1680  0.1975 -0.0072
  571POPI    C1 9061   2.156  12.346   9.580  0.0985 -0.0248  0.1373
  571POPI    C2 9062   1.973  12.692   9.495  0.0110 -0.1033  0.0020
  571POPI    C3 9063   1.757  12.360   9.552  0.0906 -0.1223  0.1996
  571POPI   PO4 9064   2.341  12.314   9.411  0.1164  0.1718 -0.2177
  571POPI   GL1 9065   2.666  11.948   9.193  0.2216  0.1654 -0.0821
  571POPI   GL2 9066   2.706  12.165   8.957 -0.0266  0.1156  0.0197
  571POPI   C1A 9067   2.951  11.748   8.917  0.0312 -0.1900  0.1045
  571POPI   D2A 9068   3.200  11.380   8.767 -0.0515  0.2998  0.0838
  571POPI   C3A 9069   3.311  11.307   8.369  0.0661 -0.0786 -0.3645
  571POPI   C4A 9070   3.204  11.107   8.014 -0.1573  0.1203 -0.1452
  571POPI   C1B 9071   2.695  12.009   8.531  0.0601 -0.0847  0.0969
  571POPI   C2B 9072   2.794  12.302   8.268  0.1938  0.2451  0.0007
  571POPI   C3B 9073   2.677  12.365   7.856 -0.2429 -0.0083 -0.0583
  571POPI   C4B 9074   2.512  12.362   7.399  0.0787 -0.1059 -0.0534
  572POPI    C1 9075   3.742   5.661  10.227 -0.3678 -0.2812 -0.1839
  572POPI    C2 9076   3.371   5.747  10.348 -0.2570  0.0179 -0.0465
  572POPI    C3 9077   3.662   5.695  10.617 -0.0703  0.3970 -0.1689
  572POPI   PO4 9078   3.657   5.504   9.973 -0.1496  0.0233 -0.0369
  572POPI   GL1 9079   3.398   5.378   9.647  0.1737 -0.1160 -0.0660
  572POPI   GL2 9080   3.239   5.680   9.538 -0.0786  0.0171  0.1185
  572POPI   C1A 9081   3.363   5.195   9.291  0.0987 -0.0669 -0.1111
  572POPI   D2A 9082   3.214   5.181   8.915  0.0271 -0.0992  0.1581
  572POPI   C3A 9083   3.405   5.156   8.585 -0.1437 -0.1533  0.0436
  572POPI   C4A 9084   3.596   5.127   8.153  0.0657 -0.2208 -0.1300
  572POPI   C1B 9085   3.247   5.679   9.138  0.1357 -0.0561  0.0370
  572POPI   C2B 9086   3.084   5.868   8.759 -0.0955 -0.1734  0.0061
  572POPI   C3B 9087   2.810   5.931   8.438 -0.2988 -0.3360  0.2582
  572POPI   C4B 9088   2.699   5.854   8.006 -0.1085 -0.0798 -0.0537
  573POPI    C1 9089  16.750   9.215  10.280  0.0554 -0.0166 -0.0418
  573POPI    C2 9090  16.587   9.190  10.644  0.2190  0.0282  0.0356
  573POPI    C3 9091  16.975   9.107  10.592  0.1374 -0.2358 -0.1742
  573POPI   PO4 9092  16.479   9.282  10.085  0.3905  0.0979 -0.1408
  573POPI   GL1 9093  16.248   9.309   9.569  0.1341 -0.1274 -0.0101
  573POPI   GL2 9094  16.532   9.167   9.515 -0.0505 -0.2432  0.1365
  573POPI   C1A 9095  15.962   9.197   9.250  0.0270 -0.2273 -0.2129
  573POPI   D2A 9096  15.856   9.106   8.839  0.3399  0.0654 -0.1056
  573POPI   C3A 9097  15.651   9.274   8.465  0.2464  0.0554 -0.2815
  573POPI   C4A 9098  15.623   9.125   8.002 -0.1736  0.1280  0.0860
  573POPI   C1B 9099  16.512   9.130   9.113  0.2563 -0.2325  0.0345
  573POPI   C2B 9100  16.337   9.084   8.896 -0.1488 -0.0295 -0.1521
  573POPI   C3B 9101  16.189   9.079   8.417  0.0200 -0.0077  0.0952
  573POPI   C4B 9102  16.076   9.267   8.077 -0.0890 -0.1241  0.0406
  574DPPI    C1 9103  15.977   3.712  10.620 -0.2150  0.3254 -0.0706
  574DPPI    C2 9104  15.736   3.732  10.938 -0.0749  0.1304  0.0505
  574DPPI    C3 9105  16.096   3.563  10.971 -0.0939  0.0283 -0.2342
  574DPPI   PO4 9106  15.853   3.956  10.483  0.2376 -0.1450 -0.0133
  574DPPI   GL1 9107  15.598   4.001  10.211 -0.2559  0.0729 -0.0407
  574DPPI   GL2 9108  15.877   4.027   9.958 -0.0162 -0.2070 -0.0856
  574DPPI   C1A 9109  15.411   3.918   9.836  0.4458  0.3700  0.4108
  574DPPI   C2A 9110  15.242   3.790   9.439 -0.0073 -0.0165  0.1476
  574DPPI   C3A 9111  15.260   3.739   9.018 -0.1381 -0.1055 -0.4522
  574DPPI   C4A 9112  15.335   3.688   8.633  0.2272 -0.1977  0.5805
  574DPPI   C1B 9113  15.841   3.890   9.579  0.4427  0.1254 -0.0162
  574DPPI   C2B 9114  15.750   3.644   9.145 -0.0918 -0.1063  0.2639
  574DPPI   C3B 9115  15.817   3.504   8.745  0.2370 -0.1942  0.0700
  574DPPI   C4B 9116  15.963   3.367   8.438 -0.1425 -0.2077 -0.0593
  575DPPI    C1 9117   2.063  11.376   9.743  0.1046  0.1419  0.0041
  575DPPI    C2 9118   1.976  11.717   9.933  0.0385  0.0578  0.1261
  575DPPI    C3 9119   2.321  11.529  10.008  0.0338  0.0496  0.1272
  575DPPI   PO4 9120   1.926  11.423   9.538 -0.0324  0.0339 -0.0689
  575DPPI   GL1 9121   1.608  11.400   9.123 -0.2545 -0.1808 -0.1224
  575DPPI   GL2 9122   1.367  11.640   9.085  0.0771  0.2961 -0.1169
  575DPPI   C1A 9123   1.785  11.315   8.844 -0.1918  0.1422  0.1995
  575DPPI   C2A 9124   1.815  11.258   8.450 -0.1399  0.0641  0.0248
  575DPPI   C3A 9125   1.842  11.145   8.009  0.0746  0.2583 -0.3338
  575DPPI   C4A 9126   2.063  11.063   7.713 -0.0515  0.0264 -0.0016
  575DPPI   C1B 9127   1.357  11.862   8.716  0.1760 -0.0078 -0.0491
  575DPPI   C2B 9128   1.279  11.793   8.228  0.0994 -0.2387 -0.2135
  575DPPI   C3B 9129   1.059  11.561   7.785  0.0348 -0.0320 -0.1928
  575DPPI   C4B 9130   0.964  11.693   7.361 -0.1358  0.2819 -0.2479
  576DPPI    C1 9131   5.640   8.031  10.432 -0.0618 -0.0441 -0.1147
  576DPPI    C2 9132   5.518   7.663  10.333 -0.1827 -0.0560  0.0737
  576DPPI    C3 9133   5.677   7.730  10.694  0.0567  0.0297 -0.0456
  576DPPI   PO4 9134   5.504   8.175  10.243  0.0745 -0.1495 -0.4946
  576DPPI   GL1 9135   5.170   8.158  10.062  0.0771  0.1951  0.0629
  576DPPI   GL2 9136   5.005   8.022  10.089 -0.2301  0.0768  0.3204
  576DPPI   C1A 9137   5.343   8.168   9.560 -0.4374 -0.0280  0.0211
  576DPPI   C2A 9138   5.368   8.292   9.265  0.2261  0.0027 -0.0886
  576DPPI   C3A 9139   5.535   8.379   8.858 -0.1279  0.0599 -0.0528
  576DPPI   C4A 9140   5.523   8.433   8.533  0.1522  0.1837 -0.0389
  576DPPI   C1B 9141   4.936   7.928   9.675 -0.0610  0.1978  0.1530
  576DPPI   C2B 9142   5.057   7.982   9.178 -0.0201 -0.0165 -0.0534
  576DPPI   C3B 9143   5.138   8.004   8.875  0.2117 -0.0617 -0.0280
  576DPPI   C4B 9144   5.201   8.060   8.440 -0.0133 -0.0462  0.3101
  577DPPI    C1 9145   8.715   4.229  10.862  0.1440  0.0298  0.1344
  577DPPI    C2 9146   8.730   4.058  11.223  0.2778 -0.0232  0.1044
  577DPPI    C3 9147   8.387   4.213  11.090  0.1338 -0.3375  0.0997
  577DPPI   PO4 9148   8.744   4.039  10.707 -0.0388 -0.1561  0.1374
  577DPPI   GL1 9149   8.470   3.877  10.344  0.0422 -0.1784  0.3144
  577DPPI   GL2 9150   8.370   3.629  10.272  0.1991  0.0724 -0.0760
  577DPPI   C1A 9151   8.203   3.866   9.890  0.1471  0.3171  0.1254
  577DPPI   C2A 9152   8.134   3.860   9.487 -0.0482 -0.0738  0.3745
  577DPPI   C3A 9153   8.177   3.962   9.218 -0.1854 -0.3455  0.0275
  577DPPI   C4A 9154   8.251   3.846   8.884  0.2256  0.0932 -0.0503
  577DPPI   C1B 9155   8.402   3.194  10.070  0.1643  0.0030 -0.0242
  577DPPI   C2B 9156   8.337   3.322   9.587  0.1035  0.2756 -0.1550
  577DPPI   C3B 9157   8.277   3.443   9.182 -0.0738  0.2148  0.1066
  577DPPI   C4B 9158   8.364   3.341   8.836  0.2980  0.0148 -0.1167
  578DPPI    C1 9159   9.372   3.565  11.037 -0.0320 -0.0379  0.0073
  578DPPI    C2 9160   9.647   3.835  11.142  0.0558 -0.1575  0.0873
  578DPPI    C3 9161   9.354   3.739  11.397 -0.0948  0.0117 -0.0196
  578DPPI   PO4 9162   9.335   3.605  10.806  0.0119 -0.3591 -0.1825
  578DPPI   GL1 9163   9.519   3.847  10.487 -0.1025 -0.0314  0.1274
  578DPPI   GL2 9164   9.641   4.040  10.652  0.0787  0.1117 -0.1938
  578DPPI   C1A 9165   9.589   3.825   9.947 -0.0358 -0.1724 -0.0724
  578DPPI   C2A 9166   9.604   4.001   9.493 -0.0778  0.3031 -0.1613
  578DPPI   C3A 9167   9.558   3.930   9.088  0.1568  0.0047  0.1020
  578DPPI   C4A 9168   9.534   3.967   8.577  0.1910  0.1709  0.1260
  578DPPI   C1B 9169   9.833   4.211  10.212  0.1818 -0.1055 -0.0516
  578DPPI   C2B 9170   9.970   4.297   9.737 -0.2589  0.3684  0.0213
  578DPPI   C3B 9171   9.911   4.346   9.280  0.1383 -0.0773  0.0600
  578DPPI   C4B 9172   9.819   4.340   8.829 -0.3097  0.0641  0.2541
  579DPPI    C1 9173   2.677  11.991   9.674 -0.0167  0.3945  0.2047
  579DPPI    C2 9174   2.398  12.048   9.955 -0.1835  0.0759  0.1073
  579DPPI    C3 9175   2.784  12.099  10.044 -0.2608  0.3743  0.2831
  579DPPI   PO4 9176   2.614  11.651   9.613 -0.1608 -0.3330 -0.2574
  579DPPI   GL1 9177   2.391  11.351   9.407  0.0691 -0.1392  0.2029
  579DPPI   GL2 9178   2.206  11.156   9.088 -0.0602  0.1449 -0.4182
  579DPPI   C1A 9179   2.691  11.325   9.021  0.2464  0.2606  0.0933
  579DPPI   C2A 9180   2.737  11.439   8.544 -0.1466  0.1375 -0.1110
  579DPPI   C3A 9181   2.774  11.278   8.163  0.0047  0.0280 -0.0999
  579DPPI   C4A 9182   2.963  11.444   7.722 -0.0537  0.2696  0.3203
  579DPPI   C1B 9183   2.065  10.866   8.694  0.1437  0.4461  0.0727
  579DPPI   C2B 9184   1.951  10.737   8.351 -0.1059  0.1540  0.2145
  579DPPI   C3B 9185   1.914  10.646   7.892 -0.4365 -0.1001 -0.2852
  579DPPI   C4B 9186   1.882  10.646   7.508  0.2267  0.0117 -0.0106
  580DPPI    C1 9187   0.774   7.906   9.885  0.0052  0.0203  0.0927
  580DPPI    C2 9188   0.420   7.922  10.070 -0.0608 -0.0993 -0.0211
  580DPPI    C3 9189   0.662   8.240  10.075 -0.0422 -0.1145  0.3054
  580DPPI   PO4 9190   0.649   7.874   9.602  0.0346 -0.1868  0.0061
  580DPPI   GL1 9191   0.639   8.124   9.260  0.3664 -0.1515  0.1109
  580DPPI   GL2 9192   0.224   8.064   9.079 -0.0772  0.2778  0.0673
  580DPPI   C1A 9193   0.645   8.231   8.772 -0.0459 -0.0870  0.0111
  580DPPI   C2A 9194   0.463   8.266   8.323 -0.1707 -0.2692 -0.3456
  580DPPI   C3A 9195   0.458   8.141   7.926  0.0148 -0.1128  0.0261
  580DPPI   C4A 9196   0.227   8.168   7.494  0.2435 -0.3582  0.0554
  580DPPI   C1B 9197   0.148   8.030   8.698 -0.2104 -0.0306  0.0175
  580DPPI   C2B 9198   0.218   7.841   8.240 -0.1034 -0.0229  0.3560
  580DPPI   C3B 9199   0.189   7.694   7.838 -0.0443  0.4880 -0.0444
  580DPPI   C4B 9200   0.470   7.752   7.460 -0.1648  0.1815 -0.0027
  581DPPI    C1 9201   6.898  13.506  10.884  0.4190  0.1855  0.1048
  581DPPI    C2 9202   6.893  13.131  11.022 -0.1480  0.1196 -0.0668
  581DPPI    C3 9203   7.076  13.418  11.231 -0.0436 -0.1779  0.2619
  581DPPI   PO4 9204   6.963  13.515  10.624 -0.0257 -0.0578  0.1169
  581DPPI   GL1 9205   7.288  13.415  10.329  0.0887 -0.3970 -0.0971
  581DPPI   GL2 9206   7.624  13.563  10.337  0.3066  0.0350 -0.1217
  581DPPI   C1A 9207   7.548  13.564   9.810  0.0676 -0.1217 -0.3030
  581DPPI   C2A 9208   7.630  13.594   9.351  0.0161 -0.1519  0.1166
  581DPPI   C3A 9209   7.637  13.578   8.901  0.1879 -0.0409  0.4332
  581DPPI   C4A 9210   7.576  13.523   8.495 -0.0415  0.4782  0.1815
  581DPPI   C1B 9211   7.938  13.604  10.114  0.1959 -0.0918  0.0958
  581DPPI   C2B 9212   7.953  13.869   9.634  0.0704 -0.2993  0.0734
  581DPPI   C3B 9213   8.011  13.902   9.163 -0.1360  0.0734  0.3145
  581DPPI   C4B 9214   7.962  13.814   8.644 -0.0661 -0.3159 -0.1052
  582DPPI    C1 9215  10.480  12.344  11.160 -0.2733 -0.0258  0.0725
  582DPPI    C2 9216  10.446  11.979  11.320  0.0863 -0.1076 -0.0278
  582DPPI    C3 9217  10.251  12.288  11.483 -0.1780 -0.3320  0.0904
  582DPPI   PO4 9218  10.507  12.344  10.881  0.2416  0.3470  0.0402
  582DPPI   GL1 9219  10.258  12.283  10.599  0.0200 -0.1861  0.1867
  582DPPI   GL2 9220  10.462  12.520  10.401  0.1143  0.2615 -0.0702
  582DPPI   C1A 9221  10.209  12.085  10.239  0.2074  0.2087 -0.0459
  582DPPI   C2A 9222  10.318  12.298   9.849  0.0519  0.1516 -0.1044
  582DPPI   C3A 9223  10.240  12.275   9.456  0.0873 -0.0257 -0.1267
  582DPPI   C4A 9224  10.228  12.234   9.015 -0.1958  0.3142 -0.0179
  582DPPI   C1B 9225  10.667  12.580  10.076 -0.2366 -0.1366 -0.0744
  582DPPI   C2B 9226  10.649  12.675   9.616  0.2665 -0.2879 -0.3096
  582DPPI   C3B 9227  10.737  12.566   9.163 -0.0259 -0.1250 -0.2542
  582DPPI   C4B 9228  10.573  12.532   8.754 -0.1447 -0.2629 -0.0563
  583DPPI    C1 9229   7.878   4.327  11.197  0.1676 -0.2752  0.0241
  583DPPI    C2 9230   7.779   4.661  11.394  0.1256 -0.1467 -0.2114
  583DPPI    C3 9231   7.695   4.303  11.551 -0.1744 -0.0441 -0.1316
  583DPPI   PO4 9232   7.889   4.530  10.921  0.0329 -0.0063 -0.2466
  583DPPI   GL1 9233   7.901   4.660  10.511  0.2753 -0.2825 -0.1280
  583DPPI   GL2 9234   7.838   4.880  10.289 -0.0946 -0.1103 -0.1481
  583DPPI   C1A 9235   8.032   4.418  10.270  0.0490  0.0008  0.1765
  583DPPI   C2A 9236   8.004   4.435   9.789 -0.1849 -0.2892  0.1570
  583DPPI   C3A 9237   8.045   4.403   9.349  0.1353 -0.0983 -0.2976
  583DPPI   C4A 9238   8.061   4.451   8.851 -0.0625  0.0377  0.1512
  583DPPI   C1B 9239   7.880   4.955   9.887  0.1781  0.0020  0.1243
  583DPPI   C2B 9240   7.877   4.861   9.362  0.0821  0.1571 -0.2345
  583DPPI   C3B 9241   7.855   4.935   8.904 -0.1942  0.1131 -0.1550
  583DPPI   C4B 9242   7.951   4.800   8.436  0.3228 -0.0147  0.0973
  584DPPI    C1 9243  13.735   0.589  10.607  0.1448  0.4235  0.0147
  584DPPI    C2 9244  13.831   0.244  10.786  0.2548  0.4552  0.0177
  584DPPI    C3 9245  13.528   0.464  10.926 -0.2279  0.0556 -0.3577
  584DPPI   PO4 9246  13.706   0.555  10.342  0.2396  0.0730  0.0707
  584DPPI   GL1 9247  13.645   0.755  10.030  0.0249  0.1148  0.0026
  584DPPI   GL2 9248  13.683   1.078  10.105  0.0013  0.0947  0.0838
  584DPPI   C1A 9249  13.692   0.747   9.594 -0.1909  0.1590  0.3317
  584DPPI   C2A 9250  13.629   0.769   9.165 -0.0872 -0.0592  0.2327
  584DPPI   C3A 9251  13.625   0.948   8.725  0.1253 -0.0838  0.1374
  584DPPI   C4A 9252  13.324   0.897   8.366  0.3883 -0.0602  0.2077
  584DPPI   C1B 9253  13.560   1.308   9.747 -0.2422 -0.0212  0.5169
  584DPPI   C2B 9254  13.558   1.396   9.318 -0.1971 -0.1668  0.0276
  584DPPI   C3B 9255  13.432   1.378   8.887 -0.1654  0.0361  0.1243
  584DPPI   C4B 9256  13.284   1.377   8.395 -0.0093 -0.1885 -0.0994
  585DPPI    C1 9257  13.948   7.801  10.686 -0.3294  0.0947  0.0321
  585DPPI    C2 9258  13.810   8.013  10.377 -0.2543 -0.0312 -0.0886
  585DPPI    C3 9259  13.841   8.183  10.737 -0.3125  0.1255 -0.1567
  585DPPI   PO4 9260  13.990   7.557  10.502  0.4082 -0.1553 -0.1967
  585DPPI   GL1 9261  13.848   7.640  10.089  0.0595  0.0330  0.0529
  585DPPI   GL2 9262  14.085   7.790   9.887  0.2599 -0.2092 -0.2092
  585DPPI   C1A 9263  13.888   7.491   9.583  0.1276  0.0866  0.0683
  585DPPI   C2A 9264  13.885   7.579   9.232 -0.0418 -0.2036  0.2308
  585DPPI   C3A 9265  13.825   7.411   8.826 -0.1122 -0.0426 -0.0188
  585DPPI   C4A 9266  13.903   7.255   8.401 -0.2063  0.0376 -0.1012
  585DPPI   C1B 9267  13.787   7.987   9.584 -0.1030 -0.2830  0.2021
  585DPPI   C2B 9268  13.647   8.007   9.134  0.2215  0.0433 -0.1946
  585DPPI   C3B 9269  13.581   7.981   8.732  0.1595  0.0614  0.1409
  585DPPI   C4B 9270  13.823   7.864   8.252 -0.0135 -0.0903 -0.0810
  586DPPI    C1 9271   2.049  17.133  10.260 -0.2803  0.1500  0.0776
  586DPPI    C2 9272   1.692  16.955  10.237 -0.1393 -0.1222 -0.0618
  586DPPI    C3 9273   1.949  16.851  10.526 -0.0435 -0.1693 -0.1632
  586DPPI   PO4 9274   2.168  17.256  10.073  0.2787 -0.2575  0.5993
  586DPPI   GL1 9275   2.117  17.052   9.757 -0.0135 -0.0220 -0.0009
  586DPPI   GL2 9276   1.932  17.325   9.551 -0.1967 -0.1406  0.1541
  586DPPI   C1A 9277   2.367  17.062   9.424 -0.0450 -0.0575  0.4643
  586DPPI   C2A 9278   2.360  16.983   8.952  0.2277  0.3237  0.3058
  586DPPI   C3A 9279   2.427  17.059   8.502  0.1063  0.2362 -0.1737
  586DPPI   C4A 9280   2.579  17.132   8.132 -0.1414  0.2134 -0.0321
  586DPPI   C1B 9281   1.978  17.268   9.165 -0.1162  0.4350 -0.1237
  586DPPI   C2B 9282   2.019  17.278   8.715 -0.3564  0.2731  0.0383
  586DPPI   C3B 9283   2.137  17.453   8.326 -0.0015 -0.0626 -0.1282
  586DPPI   C4B 9284   2.170  17.480   7.847  0.1457 -0.2081 -0.1618
  587DPPI    C1 9285  12.562   2.210  10.677 -0.1060 -0.0368 -0.0520
  587DPPI    C2 9286  12.179   2.108  10.623 -0.0901 -0.0370 -0.1660
  587DPPI    C3 9287  12.296   2.487  10.565 -0.1457  0.0471  0.2412
  587DPPI   PO4 9288  12.631   1.921  10.584  0.1260 -0.1124  0.0015
  587DPPI   GL1 9289  12.506   1.792  10.191  0.0309  0.0124  0.2782
  587DPPI   GL2 9290  12.438   2.144  10.183 -0.1239 -0.2058  0.1944
  587DPPI   C1A 9291  12.620   1.615   9.782 -0.1167 -0.2851 -0.1453
  587DPPI   C2A 9292  12.483   1.647   9.370  0.3307 -0.1068  0.1230
  587DPPI   C3A 9293  12.421   1.667   9.067  0.2613 -0.0686 -0.0017
  587DPPI   C4A 9294  12.358   1.792   8.596 -0.1343 -0.1390  0.0932
  587DPPI   C1B 9295  12.315   2.083   9.777  0.4058 -0.1240 -0.0778
  587DPPI   C2B 9296  12.365   2.114   9.301 -0.0785  0.1678  0.2329
  587DPPI   C3B 9297  12.251   2.227   8.825  0.1246 -0.0196 -0.2132
  587DPPI   C4B 9298  12.143   2.443   8.449 -0.2903  0.1750 -0.3155
  588DPPI    C1 9299  16.592  10.914  10.138 -0.2388 -0.1451 -0.1327
  588DPPI    C2 9300  16.942  10.959  10.326 -0.0307 -0.3524 -0.4594
  588DPPI    C3 9301  16.610  10.886  10.536  0.1237 -0.1765 -0.1477
  588DPPI   PO4 9302  16.562  11.048  10.025  0.1494  0.0679  0.0265
  588DPPI   GL1 9303  16.487  11.146   9.542 -0.0799 -0.0114 -0.0367
  588DPPI   GL2 9304  16.394  10.925   9.340  0.0697  0.0639 -0.2383
  588DPPI   C1A 9305  16.712  11.305   9.160  0.1701  0.2225  0.2291
  588DPPI   C2A 9306  16.624  11.221   8.671 -0.1363 -0.2208 -0.2399
  588DPPI   C3A 9307  16.546  11.056   8.339 -0.3792  0.0133  0.2044
  588DPPI   C4A 9308  16.515  10.767   7.972 -0.3915  0.0204  0.0050
  588DPPI   C1B 9309  16.222  11.036   8.939 -0.0324 -0.0848 -0.1783
  588DPPI   C2B 9310  16.171  10.933   8.679  0.1005  0.0375  0.2820
  588DPPI   C3B 9311  16.070  11.055   8.224 -0.1865  0.2162 -0.2872
  588DPPI   C4B 9312  16.198  11.233   7.919 -0.0475 -0.0574 -0.0221
  589DPPI    C1 9313   5.411  11.523  10.540 -0.0149 -0.0125 -0.0397
  589DPPI    C2 9314   5.378  11.133  10.622  0.1073 -0.0358 -0.0992
  589DPPI    C3 9315   5.578  11.373  10.871  0.1955 -0.0463 -0.1596
  589DPPI   PO4 9316   5.205  11.642  10.231 -0.1837 -0.0631 -0.1704
  589DPPI   GL1 9317   5.176  11.589   9.851 -0.0275  0.2554  0.2876
  589DPPI   GL2 9318   5.195  11.324   9.526  0.2651  0.3859  0.1773
  589DPPI   C1A 9319   5.556  11.686   9.547 -0.0305  0.1046  0.0868
  589DPPI   C2A 9320   5.711  11.750   9.121  0.0097 -0.4757  0.0962
  589DPPI   C3A 9321   5.744  11.699   8.623  0.1951 -0.0075  0.1902
  589DPPI   C4A 9322   5.726  11.717   8.074  0.0712  0.1682 -0.0482
  589DPPI   C1B 9323   5.355  11.338   9.088 -0.2260 -0.0828 -0.0702
  589DPPI   C2B 9324   5.278  11.310   8.572 -0.1949 -0.0631  0.2757
  589DPPI   C3B 9325   5.361  11.388   8.189  0.4574  0.0979  0.0243
  589DPPI   C4B 9326   5.322  11.436   7.787  0.0034 -0.0236  0.2764
  590DPPI    C1 9327   8.063   2.040  10.874  0.1128  0.0766  0.0887
  590DPPI    C2 9328   8.405   2.183  11.025  0.1410  0.0729  0.0286
  590DPPI    C3 9329   8.129   2.026  11.268  0.1296  0.1868  0.0902
  590DPPI   PO4 9330   8.000   2.269  10.673 -0.1807 -0.0232  0.3285
  590DPPI   GL1 9331   8.050   2.449  10.274 -0.2834  0.0892 -0.0577
  590DPPI   GL2 9332   8.175   2.677  10.218  0.1644  0.0451  0.0062
  590DPPI   C1A 9333   7.964   2.500   9.803  0.0279 -0.1828 -0.2721
  590DPPI   C2A 9334   8.144   2.609   9.425  0.0758 -0.1628  0.2264
  590DPPI   C3A 9335   8.063   2.543   9.068  0.1105  0.3690 -0.0824
  590DPPI   C4A 9336   8.083   2.563   8.612  0.2043 -0.0969 -0.2868
  590DPPI   C1B 9337   8.396   2.725   9.918 -0.1243 -0.3707 -0.3452
  590DPPI   C2B 9338   8.547   2.881   9.523 -0.2150  0.2816 -0.0404
  590DPPI   C3B 9339   8.404   2.944   9.164 -0.1083  0.3984  0.4970
  590DPPI   C4B 9340   8.453   2.845   8.729  0.2170  0.0210 -0.0742
  591DPPI    C1 9341   7.296   5.434  11.044  0.1294 -0.1982  0.1330
  591DPPI    C2 9342   7.422   5.522  11.413  0.2035  0.0393  0.0531
  591DPPI    C3 9343   7.371   5.814  11.144 -0.0747 -0.1056 -0.0558
  591DPPI   PO4 9344   7.461   5.308  10.886  0.0023 -0.3508 -0.2477
  591DPPI   GL1 9345   7.535   5.275  10.467  0.1042 -0.0275  0.0577
  591DPPI   GL2 9346   7.279   5.412  10.317  0.0799  0.0102 -0.1475
  591DPPI   C1A 9347   7.784   5.357  10.110  0.0163 -0.0807  0.1249
  591DPPI   C2A 9348   7.735   5.404   9.697  0.0085  0.0154 -0.1821
  591DPPI   C3A 9349   7.765   5.395   9.260 -0.1700 -0.0594  0.0129
  591DPPI   C4A 9350   7.671   5.441   8.777 -0.1920  0.4271  0.0694
  591DPPI   C1B 9351   7.233   5.464   9.962 -0.1819  0.2700 -0.1811
  591DPPI   C2B 9352   7.230   5.525   9.583 -0.2772 -0.2928 -0.0101
  591DPPI   C3B 9353   7.266   5.490   9.080  0.1601  0.0337  0.1456
  591DPPI   C4B 9354   7.133   5.652   8.627  0.0746  0.0476  0.1244
  592DPPI    C1 9355  10.804   2.583  10.900 -0.2622  0.0337  0.2394
  592DPPI    C2 9356  11.057   2.777  11.141 -0.0679 -0.1503  0.1860
  592DPPI    C3 9357  10.987   2.387  11.196 -0.0628 -0.1818 -0.0217
  592DPPI   PO4 9358  10.869   2.647  10.656 -0.0689  0.1689  0.0256
  592DPPI   GL1 9359  11.157   2.642  10.322  0.1827 -0.2607  0.0225
  592DPPI   GL2 9360  11.403   2.528  10.280  0.0783 -0.0662 -0.3439
  592DPPI   C1A 9361  10.991   2.576   9.966 -0.0336 -0.2245  0.0532
  592DPPI   C2A 9362  10.943   2.580   9.548  0.0493 -0.3511 -0.0574
  592DPPI   C3A 9363  10.805   2.563   9.151  0.1096  0.0986 -0.1410
  592DPPI   C4A 9364  10.689   2.588   8.761  0.2467 -0.2428  0.0114
  592DPPI   C1B 9365  11.481   2.455   9.914  0.2306 -0.1023  0.1782
  592DPPI   C2B 9366  11.416   2.435   9.451 -0.0489  0.1251 -0.0877
  592DPPI   C3B 9367  11.292   2.532   9.057 -0.1096 -0.1401  0.2459
  592DPPI   C4B 9368  11.235   2.488   8.648  0.0667 -0.0067  0.0337
  593DPPI    C1 9369  14.654   4.501  10.910  0.0508  0.0327 -0.0173
  593DPPI    C2 9370  14.705   4.888  11.000  0.0510 -0.0351  0.2842
  593DPPI    C3 9371  15.023   4.649  10.959  0.0434 -0.0484  0.3036
  593DPPI   PO4 9372  14.466   4.609  10.611  0.0308 -0.5233  0.2032
  593DPPI   GL1 9373  14.526   4.395  10.229  0.2318  0.1241  0.1533
  593DPPI   GL2 9374  14.320   4.161  10.020 -0.0889  0.0644  0.1135
  593DPPI   C1A 9375  14.635   4.445   9.679  0.1627  0.2942 -0.2615
  593DPPI   C2A 9376  14.575   4.432   9.283 -0.0691 -0.2821  0.1678
  593DPPI   C3A 9377  14.544   4.289   8.902  0.0358 -0.2897  0.2024
  593DPPI   C4A 9378  14.475   4.284   8.481 -0.2301  0.0768 -0.3753
  593DPPI   C1B 9379  14.287   4.090   9.659 -0.3198 -0.1260  0.1034
  593DPPI   C2B 9380  14.257   4.039   9.254 -0.2882  0.1554  0.0448
  593DPPI   C3B 9381  14.154   3.970   8.794  0.2880 -0.0446  0.2056
  593DPPI   C4B 9382  13.992   3.976   8.323 -0.0966  0.0924  0.0901
  594PYPI    C1 9383   3.255   2.422  10.609 -0.1050 -0.0883  0.0596
  594PYPI    C2 9384   3.541   2.437  10.888  0.0150 -0.1200 -0.0607
  594PYPI    C3 9385   3.156   2.460  10.995  0.0685  0.1747  0.0811
  594PYPI   PO4 9386   3.409   2.542  10.372 -0.0018 -0.1849  0.0893
  594PYPI   GL1 9387   3.446   2.493  10.011 -0.1861 -0.0086 -0.2096
  594PYPI   GL2 9388   3.306   2.769   9.867  0.1394  0.2408 -0.0495
  594PYPI   C1A 9389   3.704   2.500   9.693  0.2889 -0.0562  0.0902
  594PYPI   C2A 9390   3.762   2.297   9.373  0.0362 -0.0141 -0.1381
  594PYPI   D3A 9391   3.863   2.292   8.953 -0.1603  0.0067  0.2576
  594PYPI   C4A 9392   3.664   2.313   8.581  0.1904 -0.0023 -0.3183
  594PYPI   C1B 9393   3.552   2.884   9.361 -0.0219  0.0754 -0.3106
  594PYPI   C2B 9394   3.505   2.978   8.900 -0.0391  0.2585  0.0051
  594PYPI   C3B 9395   3.596   2.780   8.476  0.2992 -0.1857 -0.3648
  594PYPI   C4B 9396   3.627   2.696   8.033 -0.0589  0.1361  0.1356
  595PYPI    C1 9397  17.463   3.259   9.931  0.3636  0.5287  0.0278
  595PYPI    C2 9398  17.268   3.198  10.275  0.3588  0.0605 -0.0514
  595PYPI    C3 9399  17.647   3.328  10.280  0.3133  0.1896  0.1252
  595PYPI   PO4 9400  17.545   3.046   9.818  0.1401  0.0584 -0.0149
  595PYPI   GL1 9401  17.845   3.012   9.445  0.2884  0.2143  0.1396
  595PYPI   GL2 9402  17.662   3.188   9.232  0.1668 -0.1277  0.1113
  595PYPI   C1A 9403  17.940   2.646   9.150  0.1893 -0.0491  0.0810
  595PYPI   C2A 9404  17.860   2.671   8.698 -0.0055  0.0510 -0.0102
  595PYPI   D3A 9405  17.837   2.755   8.283 -0.3411  0.0894 -0.0312
  595PYPI   C4A 9406  17.749   2.577   7.912 -0.0410 -0.0838  0.2382
  595PYPI   C1B 9407  17.623   3.250   8.813 -0.0070 -0.2113 -0.0373
  595PYPI   C2B 9408  17.493   3.189   8.394 -0.2021  0.2403  0.0970
  595PYPI   C3B 9409  17.495   3.291   8.119  0.0315  0.2477 -0.1982
  595PYPI   C4B 9410  17.369   3.264   7.648  0.1697  0.1490  0.0765
  596PYPI    C1 9411  16.444  13.078   9.933 -0.1022 -0.1040  0.0517
  596PYPI    C2 9412  16.129  13.317   9.994 -0.0985 -0.0836 -0.0093
  596PYPI    C3 9413  16.479  13.399  10.169 -0.0263  0.1019 -0.2341
  596PYPI   PO4 9414  16.426  13.068   9.640  0.0378  0.3367 -0.1927
  596PYPI   GL1 9415  16.178  13.214   9.383 -0.0733 -0.1424  0.1378
  596PYPI   GL2 9416  16.193  13.453   9.182 -0.0287  0.2868  0.2746
  596PYPI   C1A 9417  16.333  12.932   8.992 -0.0035 -0.0699 -0.3518
  596PYPI   C2A 9418  16.158  12.981   8.497  0.0565  0.0043 -0.2799
  596PYPI   D3A 9419  16.203  13.075   8.101  0.4522 -0.0545 -0.0933
  596PYPI   C4A 9420  16.194  12.842   7.798 -0.0032 -0.0180 -0.2291
  596PYPI   C1B 9421  16.108  13.397   8.809 -0.0867 -0.1935 -0.0921
  596PYPI   C2B 9422  15.998  13.440   8.412 -0.0441 -0.1416 -0.2013
  596PYPI   C3B 9423  15.966  13.507   7.993 -0.1385  0.1059  0.3132
  596PYPI   C4B 9424  15.849  13.593   7.553 -0.1774  0.3150  0.2001
  597PYPI    C1 9425  11.260  12.790  10.922 -0.2777 -0.0798 -0.1853
  597PYPI    C2 9426  10.918  12.616  11.034 -0.1141 -0.1788  0.1747
  597PYPI    C3 9427  11.014  12.978  11.175  0.0304 -0.2455  0.2495
  597PYPI   PO4 9428  11.236  12.709  10.677 -0.4589  0.1754  0.1472
  597PYPI   GL1 9429  11.073  12.761  10.287 -0.2346 -0.1712  0.2290
  597PYPI   GL2 9430  11.048  13.006  10.093 -0.1472  0.1976  0.2146
  597PYPI   C1A 9431  11.125  12.357  10.007  0.0052 -0.0075 -0.1744
  597PYPI   C2A 9432  11.130  12.527   9.527  0.0087  0.0283  0.2219
  597PYPI   D3A 9433  11.209  12.380   9.191  0.2396  0.0345  0.0020
  597PYPI   C4A 9434  11.091  12.430   8.798 -0.0494  0.0262  0.0201
  597PYPI   C1B 9435  11.119  13.116   9.611  0.1586  0.1428  0.1495
  597PYPI   C2B 9436  11.023  12.952   9.286  0.4660 -0.0844 -0.0663
  597PYPI   C3B 9437  10.961  12.960   8.828  0.2245 -0.0309  0.2415
  597PYPI   C4B 9438  10.971  12.721   8.410  0.0934  0.1415  0.2358
  598PYPI    C1 9439  11.691  12.530  10.834 -0.2250 -0.1473 -0.1050
  598PYPI    C2 9440  11.684  12.538  11.234 -0.2015  0.0531 -0.1076
  598PYPI    C3 9441  11.389  12.358  11.032 -0.2636  0.0363 -0.0024
  598PYPI   PO4 9442  11.961  12.623  10.672  0.1230 -0.0875  0.1756
  598PYPI   GL1 9443  12.178  12.453  10.336  0.2056  0.0492 -0.2310
  598PYPI   GL2 9444  12.189  12.169  10.164  0.0471 -0.0374 -0.2821
  598PYPI   C1A 9445  11.995  12.624  10.031  0.0070 -0.0223 -0.0586
  598PYPI   C2A 9446  12.029  12.714   9.569  0.3286  0.0615  0.0239
  598PYPI   D3A 9447  12.017  12.727   9.063 -0.0747 -0.3659 -0.3329
  598PYPI   C4A 9448  11.918  12.788   8.748  0.1450  0.0182  0.2515
  598PYPI   C1B 9449  12.189  12.218   9.721 -0.1957 -0.0840  0.2533
  598PYPI   C2B 9450  12.119  12.139   9.270  0.0843  0.3680  0.1729
  598PYPI   C3B 9451  12.105  12.303   8.834  0.0840  0.0966 -0.2681
  598PYPI   C4B 9452  12.307  12.106   8.441 -0.0261  0.2190  0.4678
  599PYPI    C1 9453   9.032   8.817  10.380  0.0850 -0.0415  0.0313
  599PYPI    C2 9454   8.813   8.690  10.690 -0.0150  0.1276  0.0313
  599PYPI    C3 9455   9.100   8.963  10.746 -0.1727  0.3138 -0.0569
  599PYPI   PO4 9456   9.108   8.584  10.250 -0.0820 -0.4227 -0.2095
  599PYPI   GL1 9457   9.270   8.419   9.895  0.1355 -0.2143 -0.0263
  599PYPI   GL2 9458   9.380   8.773   9.876  0.2485 -0.1269 -0.0094
  599PYPI   C1A 9459   9.350   8.316   9.503 -0.0338 -0.3039 -0.0659
  599PYPI   C2A 9460   9.203   8.314   9.170 -0.1541 -0.2845  0.0883
  599PYPI   D3A 9461   9.271   8.379   8.788  0.2143  0.1045  0.0731
  599PYPI   C4A 9462   9.331   8.433   8.306  0.3133  0.0508  0.0791
  599PYPI   C1B 9463   9.207   8.789   9.439  0.4164 -0.3321 -0.3548
  599PYPI   C2B 9464   9.161   8.777   9.051 -0.0918 -0.0102 -0.2538
  599PYPI   C3B 9465   9.049   8.852   8.669  0.1275 -0.3471 -0.0623
  599PYPI   C4B 9466   9.083   8.893   8.244  0.1734 -0.0217  0.0335
  600PYPI    C1 9467   9.502   0.915  11.184 -0.0054 -0.2631 -0.0124
  600PYPI    C2 9468   9.835   0.757  11.028  0.0665  0.0018 -0.1332
  600PYPI    C3 9469   9.767   0.732  11.421  0.3850  0.2176 -0.0607
  600PYPI   PO4 9470   9.310   0.843  11.057 -0.0700  0.3371 -0.3298
  600PYPI   GL1 9471   9.394   0.670  10.671  0.0863  0.1195  0.1374
  600PYPI   GL2 9472   9.114   0.687  10.469 -0.1942  0.1278  0.1960
  600PYPI   C1A 9473   9.570   0.476  10.318 -0.1399  0.1460  0.2095
  600PYPI   C2A 9474   9.551   0.446   9.829  0.0663  0.1239  0.0624
  600PYPI   D3A 9475   9.386   0.607   9.510  0.1578 -0.0002 -0.0018
  600PYPI   C4A 9476   9.430   0.745   9.087  0.3597  0.0201  0.2443
  600PYPI   C1B 9477   9.030   0.722  10.075 -0.1401 -0.1320 -0.0789
  600PYPI   C2B 9478   8.800   0.770   9.709  0.3078  0.0837  0.1261
  600PYPI   C3B 9479   8.841   0.764   9.301  0.0452  0.1644 -0.1467
  600PYPI   C4B 9480   8.964   0.771   8.882  0.0159  0.1034 -0.2215
  601PYPI    C1 9481  13.612  18.051  10.462  0.3173  0.2416 -0.3138
  601PYPI    C2 9482  13.487  18.385  10.644  0.1983  0.1273 -0.1824
  601PYPI    C3 9483  13.781  18.166  10.806  0.0390 -0.0168 -0.0841
  601PYPI   PO4 9484  13.405  18.036  10.302 -0.2248  0.2229  0.1174
  601PYPI   GL1 9485  13.186  18.055   9.984  0.3421 -0.2053  0.0144
  601PYPI   GL2 9486  13.296  17.682  10.022 -0.0872 -0.0065  0.1903
  601PYPI   C1A 9487  13.032  18.060   9.471 -0.0300  0.0559 -0.2243
  601PYPI   C2A 9488  13.011  18.092   9.107 -0.1269  0.0064  0.1177
  601PYPI   D3A 9489  12.908  18.200   8.632  0.0455  0.2640  0.1598
  601PYPI   C4A 9490  12.848  17.981   8.270 -0.2230  0.2503  0.1532
  601PYPI   C1B 9491  13.147  17.603   9.656 -0.1169 -0.0319  0.0077
  601PYPI   C2B 9492  13.236  17.611   9.233  0.0180 -0.2939  0.0717
  601PYPI   C3B 9493  13.119  17.613   8.839  0.0259 -0.3803  0.0769
  601PYPI   C4B 9494  13.087  17.539   8.395  0.0034 -0.1115 -0.3713
  602PYPI    C1 9495   1.991   3.092  10.599  0.0934  0.3551 -0.0385
  602PYPI    C2 9496   1.643   3.270  10.682 -0.0919 -0.0758  0.1424
  602PYPI    C3 9497   1.769   2.964  10.906  0.3475 -0.0048  0.0021
  602PYPI   PO4 9498   2.019   3.199  10.324 -0.1186  0.2541  0.2426
  602PYPI   GL1 9499   2.151   3.140   9.947 -0.3990 -0.0468 -0.0503
  602PYPI   GL2 9500   2.276   2.863   9.844 -0.0963  0.1750  0.2535
  602PYPI   C1A 9501   2.017   3.412   9.660 -0.0049 -0.3508 -0.1673
  602PYPI   C2A 9502   1.855   3.314   9.282 -0.1818  0.1715 -0.1940
  602PYPI   D3A 9503   1.669   3.173   8.846  0.0980  0.0426  0.3475
  602PYPI   C4A 9504   2.064   3.255   8.549  0.1658  0.2308 -0.0564
  602PYPI   C1B 9505   2.340   3.094   9.408  0.0222  0.1382 -0.1397
  602PYPI   C2B 9506   2.328   3.064   8.959 -0.1006 -0.0500  0.1548
  602PYPI   C3B 9507   2.571   3.066   8.562  0.2251 -0.1078  0.0015
  602PYPI   C4B 9508   2.748   3.028   8.105 -0.0927  0.0002 -0.2087
  603PYPI    C1 9509  18.164  13.355   9.942 -0.2147  0.0039 -0.0851
  603PYPI    C2 9510  18.002  13.498  10.278 -0.0232  0.2245 -0.0843
  603PYPI    C3 9511  18.166  13.749  10.013 -0.3286  0.0704 -0.4277
  603PYPI   PO4 9512  18.037  13.162   9.822 -0.0007 -0.1164  0.2050
  603PYPI   GL1 9513  17.753  13.091   9.422  0.0494  0.0524  0.1027
  603PYPI   GL2 9514  17.994  13.319   9.324 -0.0157  0.1383 -0.1167
  603PYPI   C1A 9515  17.484  13.043   9.076 -0.0612 -0.0126 -0.1375
  603PYPI   C2A 9516  17.184  13.154   8.688 -0.1845 -0.1749  0.2126
  603PYPI   D3A 9517  17.231  13.295   8.223  0.4248  0.0804  0.0490
  603PYPI   C4A 9518  16.996  13.540   8.063 -0.0947 -0.0415  0.2398
  603PYPI   C1B 9519  17.880  13.273   8.980 -0.1221  0.0957  0.3126
  603PYPI   C2B 9520  17.768  13.328   8.600  0.2508 -0.1562 -0.0441
  603PYPI   C3B 9521  17.728  13.355   8.157  0.2877  0.0603 -0.3437
  603PYPI   C4B 9522  17.497  13.553   7.869  0.2306  0.0647 -0.0233
  604PYPI    C1 9523   8.568  14.257  11.165  0.0679 -0.1191  0.0603
  604PYPI    C2 9524   8.290  13.971  11.195  0.0501 -0.0808  0.2768
  604PYPI    C3 9525   8.664  13.900  11.318  0.0607 -0.0309  0.2733
  604PYPI   PO4 9526   8.409  14.393  10.913 -0.3398 -0.0268 -0.0155
  604PYPI   GL1 9527   8.500  14.395  10.530  0.2072  0.1254  0.1076
  604PYPI   GL2 9528   8.690  14.690  10.414 -0.3504 -0.1023 -0.1592
  604PYPI   C1A 9529   8.724  14.187  10.207  0.3736 -0.0454  0.0961
  604PYPI   C2A 9530   8.831  14.193   9.754  0.0591 -0.0223 -0.0447
  604PYPI   D3A 9531   8.861  14.076   9.356 -0.0856 -0.0802  0.2608
  604PYPI   C4A 9532   8.789  14.158   8.991 -0.1295  0.0992 -0.1199
  604PYPI   C1B 9533   8.715  14.654   9.980 -0.3231  0.1922  0.0491
  604PYPI   C2B 9534   8.711  14.625   9.524  0.1494  0.1594  0.0384
  604PYPI   C3B 9535   8.695  14.700   9.110 -0.0408  0.1974  0.0826
  604PYPI   C4B 9536   8.617  14.586   8.723  0.2983 -0.0385 -0.1728
  605PYPI    C1 9537  17.310  14.728  10.051  0.0878  0.0024  0.2133
  605PYPI    C2 9538  17.360  15.112  10.151 -0.0152  0.0526  0.0765
  605PYPI    C3 9539  17.455  14.823  10.411 -0.2023  0.1775  0.2872
  605PYPI   PO4 9540  17.405  14.703   9.871 -0.0254  0.2697  0.2556
  605PYPI   GL1 9541  17.257  14.798   9.416  0.0691 -0.0831 -0.0827
  605PYPI   GL2 9542  17.335  14.517   9.436  0.3602  0.3899 -0.0941
  605PYPI   C1A 9543  17.177  14.833   8.970  0.0380  0.1916  0.0169
  605PYPI   C2A 9544  17.533  14.913   8.650  0.2777  0.3244 -0.1788
  605PYPI   D3A 9545  17.732  14.949   8.252 -0.0642  0.0332 -0.0426
  605PYPI   C4A 9546  17.720  14.985   7.852  0.1225  0.0225  0.1419
  605PYPI   C1B 9547  17.632  14.551   9.011 -0.0125 -0.1082  0.0339
  605PYPI   C2B 9548  17.780  14.278   8.588 -0.0730  0.1026  0.0082
  605PYPI   C3B 9549  17.837  14.225   8.188 -0.0633 -0.2324  0.2049
  605PYPI   C4B 9550  17.730  14.151   7.799  0.1059  0.1905 -0.2416
  606PYPI    C1 9551   3.712  16.047  10.134 -0.2280  0.1239  0.0168
  606PYPI    C2 9552   3.733  15.746  10.396 -0.1812  0.0555 -0.0651
  606PYPI    C3 9553   3.981  16.058  10.429 -0.2690  0.1135  0.0546
  606PYPI   PO4 9554   3.607  15.903   9.892 -0.1410 -0.1536  0.1510
  606PYPI   GL1 9555   3.730  15.776   9.512 -0.0992 -0.4280 -0.2331
  606PYPI   GL2 9556   3.958  16.083   9.549 -0.0148  0.2033  0.2142
  606PYPI   C1A 9557   3.615  15.970   9.193 -0.0991 -0.1705  0.2773
  606PYPI   C2A 9558   3.509  16.152   8.780  0.2141  0.0251  0.0010
  606PYPI   D3A 9559   3.540  16.105   8.337 -0.0075  0.3051 -0.0953
  606PYPI   C4A 9560   3.636  16.437   8.024  0.1035  0.0710 -0.1802
  606PYPI   C1B 9561   4.078  15.964   9.139  0.0058 -0.0435  0.0045
  606PYPI   C2B 9562   4.015  16.048   8.727 -0.3598  0.4712  0.0316
  606PYPI   C3B 9563   4.045  15.987   8.255  0.0633  0.0569  0.3812
  606PYPI   C4B 9564   4.063  15.818   7.809  0.0036  0.2095  0.1376
  607ERGO   ROH 9565   9.122   6.805  10.330  0.0250  0.1481 -0.0922
  607ERGO    R1 9566   9.181   6.920  10.078  0.1366  0.0988 -0.0887
  607ERGO    R2 9567   9.345   6.795   9.893  0.1057 -0.0025 -0.0473
  607ERGO    R3 9568   9.131   6.830   9.729  0.1568  0.1024 -0.0929
  607ERGO    R4 9569   9.362   6.829   9.549  0.1942 -0.0437 -0.0473
  607ERGO    R5 9570   9.208   6.982   9.561  0.2766  0.0447 -0.0918
  607ERGO    C1 9571   9.171   6.881   9.195  0.2938  0.0308 -0.0900
  607ERGO    C2 9572   9.143   6.897   8.911 -0.2919  0.2729 -0.1508
  608ERGO   ROH 9573   5.291   5.557   9.839  0.2191 -0.0080 -0.1951
  608ERGO    R1 9574   5.266   5.496   9.564  0.0230 -0.0316 -0.1728
  608ERGO    R2 9575   5.080   5.619   9.401  0.0248  0.0802 -0.0883
  608ERGO    R3 9576   5.298   5.675   9.249 -0.0166 -0.1043 -0.2194
  608ERGO    R4 9577   5.073   5.676   9.060 -0.1579  0.2079 -0.0647
  608ERGO    R5 9578   5.257   5.560   9.042 -0.2906  0.0093 -0.2350
  608ERGO    C1 9579   5.274   5.762   8.719 -0.3032  0.1091 -0.1740
  608ERGO    C2 9580   5.241   5.778   8.438 -0.0198 -0.0873 -0.1135
  609ERGO   ROH 9581   4.951   4.993   9.804 -0.1249  0.0691  0.0437
  609ERGO    R1 9582   4.959   4.984   9.521 -0.1321 -0.0076  0.0456
  609ERGO    R2 9583   4.744   5.055   9.364 -0.1013  0.0536  0.0286
  609ERGO    R3 9584   4.925   5.221   9.247 -0.0236 -0.0610 -0.0148
  609ERGO    R4 9585   4.735   5.157   9.034 -0.0017 -0.1002 -0.0222
  609ERGO    R5 9586   4.952   5.134   9.026 -0.0077 -0.1752  0.0315
  609ERGO    C1 9587   4.900   5.373   8.732  0.1292 -0.2974 -0.0927
  609ERGO    C2 9588   4.769   5.658   8.496 -0.1624 -0.0538  0.0543
  610ERGO   ROH 9589   2.027  13.023   6.270  0.2697  0.0971 -0.0202
  610ERGO    R1 9590   1.913  12.923   6.509  0.1178 -0.0661 -0.1580
  610ERGO    R2 9591   2.026  12.967   6.757  0.0221 -0.3274 -0.0644
  610ERGO    R3 9592   1.779  13.063   6.817  0.0331 -0.2783 -0.0966
  610ERGO    R4 9593   1.901  13.007   7.077  0.0334 -0.1817 -0.0773
  610ERGO    R5 9594   1.709  12.934   7.006  0.0250 -0.1923 -0.0410
  610ERGO    C1 9595   1.597  13.120   7.319  0.0504 -0.0508 -0.1150
  610ERGO    C2 9596   1.487  13.321   7.483  0.0443 -0.0335 -0.2062
  611ERGO   ROH 9597  15.787  12.468   8.926  0.1625 -0.1919  0.0146
  611ERGO    R1 9598  15.831  12.588   8.674  0.1118 -0.1158  0.0414
  611ERGO    R2 9599  15.991  12.473   8.480  0.0950 -0.0451 -0.0163
  611ERGO    R3 9600  15.769  12.502   8.325  0.0677 -0.0242  0.0266
  611ERGO    R4 9601  15.993  12.495   8.135  0.0258 -0.0669 -0.0181
  611ERGO    R5 9602  15.839  12.649   8.149  0.0507 -0.0454  0.0033
  611ERGO    C1 9603  15.786  12.535   7.789 -0.0401 -0.0599  0.0212
  611ERGO    C2 9604  15.997  12.462   7.506 -0.1617 -0.0803 -0.0389
  612ERGO   ROH 9605   4.304  16.536   6.210  0.1504  0.1437  0.0002
  612ERGO    R1 9606   4.326  16.445   6.478  0.0242  0.1277  0.0045
  612ERGO    R2 9607   4.562  16.460   6.621  0.0349 -0.1600  0.0125
  612ERGO    R3 9608   4.407  16.593   6.800  0.1916  0.0416  0.0039
  612ERGO    R4 9609   4.630  16.487   6.959  0.1915 -0.0184 -0.0276
  612ERGO    R5 9610   4.418  16.459   6.998  0.1848  0.1404  0.0748
  612ERGO    C1 9611   4.524  16.627   7.324  0.4297  0.2534 -0.0591
  612ERGO    C2 9612   4.397  16.733   7.611 -0.0709  0.0023  0.0444
  613ERGO   ROH 9613  11.072  10.197  10.085 -0.0522 -0.0276 -0.1051
  613ERGO    R1 9614  11.011  10.368   9.867  0.0330  0.1473  0.0074
  613ERGO    R2 9615  11.207  10.489   9.714  0.0959 -0.0355 -0.0487
  613ERGO    R3 9616  11.074  10.372   9.508 -0.1779  0.2285 -0.0319
  613ERGO    R4 9617  11.239  10.579   9.382  0.3286 -0.1567 -0.0620
  613ERGO    R5 9618  11.023  10.552   9.359  0.2483  0.3382 -0.0651
  613ERGO    C1 9619  11.133  10.521   8.995  0.2071  0.0205 -0.0539
  613ERGO    C2 9620  11.054  10.576   8.621  0.0813 -0.0410 -0.2354
  614ERGO   ROH 9621  12.659   3.457  10.279  0.0200  0.0112  0.0513
  614ERGO    R1 9622  12.514   3.518  10.044 -0.0477 -0.1020  0.0624
  614ERGO    R2 9623  12.610   3.692   9.850 -0.2415  0.0553  0.1029
  614ERGO    R3 9624  12.564   3.481   9.686  0.0050  0.0359  0.0547
  614ERGO    R4 9625  12.516   3.715   9.518 -0.2200  0.0204  0.0944
  614ERGO    R5 9626  12.380   3.550   9.550 -0.0502 -0.1321  0.0425
  614ERGO    C1 9627  12.418   3.531   9.171  0.0241 -0.0183  0.0442
  614ERGO    C2 9628  12.413   3.561   8.789  0.2360 -0.0288  0.0862
  615ERGO   ROH 9629   2.406  16.876   6.294 -0.1075  0.0427 -0.0058
  615ERGO    R1 9630   2.183  16.908   6.467 -0.1200 -0.0717 -0.0000
  615ERGO    R2 9631   1.948  16.766   6.434 -0.0587 -0.1720 -0.0111
  615ERGO    R3 9632   1.993  16.696   6.693 -0.0251 -0.1781 -0.0188
  615ERGO    R4 9633   1.702  16.722   6.672 -0.0250 -0.1469  0.0283
  615ERGO    R5 9634   1.831  16.821   6.817  0.0085 -0.1619  0.0079
  615ERGO    C1 9635   1.600  16.631   7.054  0.0261 -0.1379  0.0440
  615ERGO    C2 9636   1.336  16.619   7.172  0.1266  0.5031 -0.0071
  616ERGO   ROH 9637  10.156   3.745   6.966 -0.0818 -0.0252  0.0239
  616ERGO    R1 9638   9.902   3.745   7.090 -0.0305 -0.1035  0.1308
  616ERGO    R2 9639   9.855   3.622   7.333  0.1461  0.0169  0.2274
  616ERGO    R3 9640   9.759   3.868   7.402  0.0267  0.0026  0.1158
  616ERGO    R4 9641   9.615   3.681   7.576  0.0305 -0.0005  0.1184
  616ERGO    R5 9642   9.527   3.831   7.445  0.0228 -0.0733  0.0374
  616ERGO    C1 9643   9.387   3.945   7.782 -0.1491 -0.0239 -0.0498
  616ERGO    C2 9644   9.291   4.088   8.079 -0.0071 -0.0738  0.0626
  617ERGO   ROH 9645   9.521   1.062  10.069 -0.2279 -0.0720  0.1725
  617ERGO    R1 9646   9.339   1.045   9.852 -0.2296 -0.0682  0.1725
  617ERGO    R2 9647   9.277   1.262   9.692 -0.2008 -0.0718  0.1482
  617ERGO    R3 9648   9.352   1.095   9.492 -0.2181 -0.1031  0.1693
  617ERGO    R4 9649   9.235   1.326   9.355 -0.0335 -0.0372  0.1338
  617ERGO    R5 9650   9.179   1.117   9.328 -0.1388 -0.0010  0.1033
  617ERGO    C1 9651   9.281   1.206   8.971  0.0477 -0.0464  0.1453
  617ERGO    C2 9652   9.395   1.194   8.583  0.2461 -0.3913  0.0973
  618ERGO   ROH 9653  10.378   2.679  10.280  0.2001 -0.0777  0.0014
  618ERGO    R1 9654  10.378   2.816  10.033 -0.1663  0.0305  0.0574
  618ERGO    R2 9655  10.524   2.730   9.814  0.0989  0.5207  0.0337
  618ERGO    R3 9656  10.283   2.742   9.690  0.0587 -0.1004  0.0196
  618ERGO    R4 9657  10.477   2.740   9.472  0.1188  0.5951  0.0321
  618ERGO    R5 9658  10.319   2.885   9.502 -0.3230  0.1348  0.1092
  618ERGO    C1 9659  10.224   2.756   9.156  0.0927  0.0554  0.0180
  618ERGO    C2 9660  10.219   2.797   8.794 -0.0148  0.2223  0.2282
  619ERGO   ROH 9661   8.705   5.242  10.257  0.2350 -0.0845  0.0143
  619ERGO    R1 9662   8.831   5.195  10.008  0.0883 -0.2561 -0.0299
  619ERGO    R2 9663   8.741   5.003   9.830 -0.2988 -0.0729 -0.0477
  619ERGO    R3 9664   8.736   5.213   9.657  0.0177 -0.0214  0.0008
  619ERGO    R4 9665   8.734   4.976   9.485 -0.2172  0.0278 -0.0572
  619ERGO    R5 9666   8.873   5.143   9.474 -0.0079 -0.1412  0.0306
  619ERGO    C1 9667   8.725   5.156   9.122  0.1275  0.1348 -0.0174
  619ERGO    C2 9668   8.674   5.257   8.879 -0.0576 -0.2042 -0.0911
  620ERGO   ROH 9669  17.875  13.390   5.977 -0.1215 -0.0684 -0.1138
  620ERGO    R1 9670  17.714  13.360   6.208 -0.0429 -0.0751 -0.0602
  620ERGO    R2 9671  17.617  13.116   6.291  0.0435 -0.0838  0.0031
  620ERGO    R3 9672  17.737  13.184   6.526  0.0959 -0.0242 -0.0397
  620ERGO    R4 9673  17.524  12.996   6.601  0.0797  0.0214  0.0557
  620ERGO    R5 9674  17.555  13.196   6.682  0.1205  0.0471 -0.0116
  620ERGO    C1 9675  17.581  12.990   7.002  0.1501  0.1386  0.0462
  620ERGO    C2 9676  17.395  12.951   7.230  0.1283 -0.0479 -0.3132
  621ERGO   ROH 9677   2.782  15.187   6.051  0.3406  0.0641 -0.0165
  621ERGO    R1 9678   2.954  15.120   6.266  0.1418  0.0968  0.1568
  621ERGO    R2 9679   2.945  15.249   6.510 -0.0642  0.1585  0.1223
  621ERGO    R3 9680   2.916  14.997   6.606 -0.1811  0.1839  0.1543
  621ERGO    R4 9681   3.129  15.115   6.769  0.0343  0.0217 -0.0174
  621ERGO    R5 9682   3.139  14.928   6.659 -0.1956  0.0119 -0.0168
  621ERGO    C1 9683   3.210  14.799   7.011 -0.0180 -0.0338 -0.0687
  621ERGO    C2 9684   3.191  14.619   7.311 -0.1229  0.1596 -0.1812
  622ERGO   ROH 9685  10.404  14.427  10.596 -0.2232  0.2088  0.0020
  622ERGO    R1 9686  10.543  14.556  10.386 -0.1036  0.0692 -0.0068
  622ERGO    R2 9687  10.676  14.417  10.188 -0.1882 -0.0663  0.0284
  622ERGO    R3 9688  10.522  14.568  10.023 -0.0596  0.0238 -0.0105
  622ERGO    R4 9689  10.698  14.417   9.843 -0.1014 -0.0748  0.0338
  622ERGO    R5 9690  10.670  14.633   9.847  0.0220 -0.0595  0.0276
  622ERGO    C1 9691  10.565  14.559   9.488  0.0699  0.0049  0.0005
  622ERGO    C2 9692  10.552  14.572   9.167 -0.1423 -0.2823  0.2094
  623ERGO   ROH 9693  13.464   3.895   6.576 -0.1059  0.1331  0.0635
  623ERGO    R1 9694  13.442   3.715   6.794 -0.0166 -0.0075 -0.0412
  623ERGO    R2 9695  13.422   3.801   7.056  0.1569 -0.1766  0.0302
  623ERGO    R3 9696  13.199   3.646   7.056  0.1218 -0.1262  0.0577
  623ERGO    R4 9697  13.308   3.618   7.326  0.0650 -0.0324  0.0906
  623ERGO    R5 9698  13.258   3.456   7.189  0.0538 -0.0814  0.1525
  623ERGO    C1 9699  13.032   3.366   7.483 -0.0214  0.0989  0.1515
  623ERGO    C2 9700  13.088   3.091   7.656 -0.1225  0.0254  0.0255
  624ERGO   ROH 9701   4.433   4.887   6.395  0.0719 -0.0832  0.1497
  624ERGO    R1 9702   4.313   4.988   6.632  0.0830 -0.0510  0.1417
  624ERGO    R2 9703   4.447   5.155   6.806  0.0560  0.0599  0.0586
  624ERGO    R3 9704   4.230   5.315   6.768 -0.0147 -0.0373  0.0493
  624ERGO    R4 9705   4.369   5.432   6.998  0.0380  0.1515 -0.0799
  624ERGO    R5 9706   4.159   5.374   6.989  0.0551  0.0741  0.0417
  624ERGO    C1 9707   4.121   5.744   7.073 -0.0389  0.1137 -0.1694
  624ERGO    C2 9708   4.310   6.054   7.159 -0.1395  0.1379  0.0570
  625ERGO   ROH 9709  10.464  17.591   9.905 -0.1059 -0.1602 -0.0088
  625ERGO    R1 9710  10.520  17.453   9.665 -0.1370 -0.1360 -0.0322
  625ERGO    R2 9711  10.322  17.376   9.487 -0.1656 -0.0706 -0.0407
  625ERGO    R3 9712  10.474  17.513   9.309 -0.1366 -0.0633 -0.0208
  625ERGO    R4 9713  10.256  17.401   9.149 -0.1412 -0.0150 -0.0406
  625ERGO    R5 9714  10.469  17.379   9.110 -0.1410 -0.0364 -0.0371
  625ERGO    C1 9715  10.359  17.544   8.785 -0.0999  0.0241 -0.0216
  625ERGO    C2 9716  10.367  17.560   8.429 -0.0304 -0.2933 -0.2037
  626ERGO   ROH 9717  13.962   8.813  10.162 -0.0402  0.1883  0.0462
  626ERGO    R1 9718  14.024   8.905   9.902 -0.0019  0.0854  0.0182
  626ERGO    R2 9719  14.105   8.735   9.699 -0.1001 -0.0143  0.0587
  626ERGO    R3 9720  13.898   8.849   9.565 -0.0469  0.0602  0.0399
  626ERGO    R4 9721  14.067   8.733   9.356 -0.1224 -0.0806  0.0615
  626ERGO    R5 9722  13.997   8.939   9.367 -0.0125 -0.0430  0.0117
  626ERGO    C1 9723  13.851   8.839   9.030 -0.0855 -0.0492  0.0455
  626ERGO    C2 9724  13.710   8.802   8.650 -0.1659  0.1250 -0.2162
  627ERGO   ROH 9725  16.238   4.270   9.699 -0.1586  0.0895  0.0499
  627ERGO    R1 9726  16.090   4.272   9.458 -0.2044  0.1770  0.0784
  627ERGO    R2 9727  16.035   4.505   9.320  0.0004  0.2005  0.0312
  627ERGO    R3 9728  16.148   4.370   9.113 -0.1722  0.0332  0.0427
  627ERGO    R4 9729  15.943   4.537   8.988 -0.1879  0.0280  0.0651
  627ERGO    R5 9730  15.966   4.322   8.966 -0.2779  0.0057  0.1821
  627ERGO    C1 9731  15.995   4.429   8.601 -0.4594 -0.2296  0.0956
  627ERGO    C2 9732  15.858   4.300   8.235 -0.3135  0.1948 -0.1009
  628ERGO   ROH 9733   6.817   0.063   9.961 -0.3381  0.0257 -0.1491
  628ERGO    R1 9734   6.713   0.014   9.703 -0.2483  0.1947 -0.2206
  628ERGO    R2 9735   6.760   0.182   9.488  0.0961  0.1705 -0.1757
  628ERGO    R3 9736   6.847  -0.047   9.370 -0.1205  0.0709 -0.1457
  628ERGO    R4 9737   6.799   0.137   9.148  0.1138  0.1012 -0.1638
  628ERGO    R5 9738   6.718  -0.064   9.170 -0.0984  0.1892 -0.1663
  628ERGO    C1 9739   6.904  -0.105   8.839 -0.0792 -0.0327 -0.1289
  628ERGO    C2 9740   6.795  -0.086   8.517  0.2925 -0.0298 -0.2320
  629ERGO   ROH 9741   5.331  13.219   9.143 -0.1670  0.1912 -0.0924
  629ERGO    R1 9742   5.247  13.269   8.877 -0.1110 -0.0190 -0.1500
  629ERGO    R2 9743   5.398  13.416   8.698 -0.1840  0.0390 -0.1553
  629ERGO    R3 9744   5.370  13.195   8.543  0.0911 -0.0628 -0.0688
  629ERGO    R4 9745   5.417  13.413   8.353 -0.0067 -0.1010 -0.1473
  629ERGO    R5 9746   5.251  13.272   8.350  0.1155 -0.2539 -0.1670
  629ERGO    C1 9747   5.402  13.204   8.006  0.3550 -0.2780 -0.0614
  629ERGO    C2 9748   5.504  13.087   7.680  0.4327  0.0658 -0.4106
  630ERGO   ROH 9749   2.845  17.866   5.893  0.2423 -0.1256  0.1200
  630ERGO    R1 9750   2.804  17.840   6.171  0.1182 -0.1915  0.0950
  630ERGO    R2 9751   2.786  18.058   6.340  0.1777 -0.2384  0.1532
  630ERGO    R3 9752   2.550  17.942   6.412  0.0823 -0.1255  0.0321
  630ERGO    R4 9753   2.564  18.187   6.572  0.1839 -0.1801  0.1279
  630ERGO    R5 9754   2.532  17.985   6.646  0.0366 -0.1954  0.0467
  630ERGO    C1 9755   2.214  18.154   6.774  0.0980 -0.0400 -0.0004
  630ERGO    C2 9756   2.053  18.303   6.879  0.1920  0.3908 -0.1199
  631ERGO   ROH 9757  11.372  10.712   6.479  0.1774 -0.1821  0.1494
  631ERGO    R1 9758  11.349  10.814   6.742  0.1767 -0.2263  0.1663
  631ERGO    R2 9759  11.480  10.702   6.958  0.4868 -0.0302  0.0836
  631ERGO    R3 9760  11.572  10.956   6.992  0.1132  0.1192  0.0338
  631ERGO    R4 9761  11.594  10.832   7.257  0.5970  0.0892 -0.0090
  631ERGO    R5 9762  11.493  11.019   7.209  0.2363 -0.0585  0.1348
  631ERGO    C1 9763  11.747  11.146   7.463  0.3102  0.2990 -0.1096
  631ERGO    C2 9764  12.036  11.179   7.609 -0.2296  0.3657  0.1893
  632ERGO   ROH 9765  14.208  15.439   9.627 -0.3326  0.0294 -0.1315
  632ERGO    R1 9766  14.295  15.372   9.366 -0.2112 -0.2179 -0.0288
  632ERGO    R2 9767  14.124  15.268   9.175 -0.1983 -0.0638 -0.1096
  632ERGO    R3 9768  14.216  15.476   9.027  0.2203 -0.2683 -0.1536
  632ERGO    R4 9769  14.081  15.301   8.834 -0.4599  0.0905 -0.0655
  632ERGO    R5 9770  14.286  15.376   8.821 -0.2448 -0.4439 -0.2479
  632ERGO    C1 9771  14.143  15.516   8.496 -0.2193 -0.0117 -0.0810
  632ERGO    C2 9772  14.049  15.472   8.285  0.3191 -0.0544 -0.4278
  633ERGO   ROH 9773  11.204   9.108  10.172 -0.1059  0.0801  0.1086
  633ERGO    R1 9774  11.051   9.142   9.936 -0.0620 -0.0948  0.0518
  633ERGO    R2 9775  11.110   9.336   9.748 -0.2562  0.0262  0.1063
  633ERGO    R3 9776  11.111   9.124   9.578  0.1143  0.0488  0.0740
  633ERGO    R4 9777  11.055   9.357   9.408 -0.2053 -0.0164  0.0962
  633ERGO    R5 9778  10.938   9.174   9.420  0.0754 -0.2021  0.0392
  633ERGO    C1 9779  11.025   9.170   9.049  0.1722 -0.0197  0.0599
  633ERGO    C2 9780  11.060   9.193   8.648 -0.1921  0.0084 -0.0810
  634ERGO   ROH 9781  11.792  13.624   6.323  0.2665  0.0076  0.0142
  634ERGO    R1 9782  11.622  13.559   6.540  0.1580 -0.1060 -0.1032
  634ERGO    R2 9783  11.557  13.298   6.606  0.3976 -0.1602 -0.0657
  634ERGO    R3 9784  11.649  13.371   6.851  0.1162  0.0360 -0.0137
  634ERGO    R4 9785  11.466  13.149   6.904  0.4073 -0.2252 -0.0949
  634ERGO    R5 9786  11.460  13.347   6.995  0.0479 -0.2101 -0.1420
  634ERGO    C1 9787  11.499  13.131   7.308  0.1488 -0.0789 -0.0631
  634ERGO    C2 9788  11.463  12.927   7.557 -0.0434  0.4181 -0.0387
  635ERGO   ROH 9789  14.685   9.231  10.380  0.2915 -0.3521 -0.1813
  635ERGO    R1 9790  14.620   9.139  10.121  0.1252 -0.1515 -0.2144
  635ERGO    R2 9791  14.367   9.163  10.012  0.0670 -0.0199 -0.0541
  635ERGO    R3 9792  14.502   9.286   9.810 -0.0226  0.0993 -0.0429
  635ERGO    R4 9793  14.284   9.142   9.677  0.0495  0.0001 -0.0512
  635ERGO    R5 9794  14.496   9.128   9.630  0.0532  0.1327 -0.0742
  635ERGO    C1 9795  14.362   9.245   9.293 -0.0447  0.1237 -0.0389
  635ERGO    C2 9796  14.181   9.176   8.902  0.1655 -0.0984 -0.0701
  636ERGO   ROH 9797   1.202   4.147   5.933 -0.1767 -0.0378  0.0001
  636ERGO    R1 9798   1.184   3.977   6.159  0.0480  0.1101  0.1316
  636ERGO    R2 9799   1.187   4.074   6.418 -0.2921  0.3388  0.0500
  636ERGO    R3 9800   0.956   3.933   6.439 -0.0220 -0.1275  0.0423
  636ERGO    R4 9801   1.060   3.949   6.714 -0.1797  0.3439  0.1009
  636ERGO    R5 9802   1.003   3.767   6.606  0.2487  0.1119  0.2222
  636ERGO    C1 9803   0.769   3.743   6.907  0.1394 -0.0909  0.1233
  636ERGO    C2 9804   0.677   3.574   7.262  0.2540 -0.0248  0.0433
  637ERGO   ROH 9805  12.976  12.481   9.883  0.1115  0.0841 -0.0411
  637ERGO    R1 9806  13.107  12.471   9.632  0.1554  0.1009 -0.0191
  637ERGO    R2 9807  13.052  12.277   9.443  0.2837  0.0345  0.0102
  637ERGO    R3 9808  13.009  12.492   9.283  0.1983 -0.0186 -0.0386
  637ERGO    R4 9809  12.996  12.262   9.103  0.1983 -0.0704  0.0287
  637ERGO    R5 9810  13.121  12.438   9.078  0.1561 -0.0515 -0.0525
  637ERGO    C1 9811  12.922  12.455   8.754  0.0684 -0.1814 -0.0064
  637ERGO    C2 9812  12.796  12.350   8.469  0.0435  0.0539 -0.2259
  638ERGO   ROH 9813  17.617   3.733   9.265 -0.1196 -0.3262 -0.1398
  638ERGO    R1 9814  17.507   3.643   9.020 -0.3062 -0.1579 -0.1197
  638ERGO    R2 9815  17.273   3.747   8.916 -0.1357  0.2540 -0.1097
  638ERGO    R3 9816  17.428   3.789   8.696 -0.0749 -0.0490 -0.1290
  638ERGO    R4 9817  17.160   3.739   8.589 -0.2019  0.4827 -0.0943
  638ERGO    R5 9818  17.343   3.636   8.533 -0.4062  0.1144 -0.1206
  638ERGO    C1 9819  17.240   3.774   8.193 -0.1830  0.3315 -0.1034
  638ERGO    C2 9820  17.296   3.679   7.901  0.0132 -0.2496  0.0994
  639ERGO   ROH 9821   9.522  15.283  10.607 -0.1501  0.2441  0.0419
  639ERGO    R1 9822   9.415  15.375  10.362 -0.2079 -0.0993 -0.0679
  639ERGO    R2 9823   9.569  15.500  10.169 -0.3449  0.0870 -0.0588
  639ERGO    R3 9824   9.467  15.307  10.008  0.1013 -0.2092 -0.0047
  639ERGO    R4 9825   9.570  15.511   9.824 -0.3557 -0.0104 -0.0619
  639ERGO    R5 9826   9.369  15.428   9.826 -0.1768 -0.4812 -0.0459
  639ERGO    C1 9827   9.475  15.336   9.471  0.0568 -0.3452 -0.0128
  639ERGO    C2 9828   9.442  15.353   9.092 -0.1102 -0.1990  0.3848
  640ERGO   ROH 9829   5.482   7.271   9.983  0.1592 -0.1328 -0.0066
  640ERGO    R1 9830   5.511   7.101   9.759 -0.0530 -0.2837  0.0769
  640ERGO    R2 9831   5.305   7.052   9.581 -0.0674  0.0342 -0.0024
  640ERGO    R3 9832   5.488   7.133   9.397  0.1840 -0.3813  0.0517
  640ERGO    R4 9833   5.279   6.996   9.241 -0.0981  0.1005 -0.0109
  640ERGO    R5 9834   5.494   6.953   9.237 -0.1842 -0.3992  0.0516
  640ERGO    C1 9835   5.435   7.039   8.870  0.1201 -0.2510  0.0351
  640ERGO    C2 9836   5.437   7.024   8.551 -0.3230 -0.0181  0.1912
  641ERGO   ROH 9837   4.196   3.496   9.963 -0.1342  0.1364  0.0625
  641ERGO    R1 9838   4.143   3.570   9.694 -0.1794 -0.1778 -0.0188
  641ERGO    R2 9839   4.303   3.746   9.555 -0.4853  0.0598 -0.0814
  641ERGO    R3 9840   4.315   3.543   9.374  0.0197 -0.0666  0.0773
  641ERGO    R4 9841   4.367   3.784   9.217 -0.2270 -0.1009 -0.0535
  641ERGO    R5 9842   4.216   3.633   9.176  0.0566 -0.3821 -0.0891
  641ERGO    C1 9843   4.415   3.616   8.852  0.3975 -0.3131  0.1117
  641ERGO    C2 9844   4.522   3.795   8.556 -0.0836  0.1778  0.1835
  642ERGO   ROH 9845   7.965   5.158   6.556  0.0744  0.1721  0.1463
  642ERGO    R1 9846   7.739   5.214   6.717 -0.0028  0.0315  0.0918
  642ERGO    R2 9847   7.551   5.021   6.783  0.0103 -0.0557 -0.0797
  642ERGO    R3 9848   7.607   5.099   7.037 -0.0923 -0.1764 -0.0210
  642ERGO    R4 9849   7.320   5.045   7.038 -0.1317  0.0963 -0.2217
  642ERGO    R5 9850   7.417   5.229   7.103 -0.0087 -0.0196 -0.1099
  642ERGO    C1 9851   7.238   5.132   7.426 -0.3106  0.0715 -0.2493
  642ERGO    C2 9852   7.211   5.178   7.690 -0.0634 -0.0386 -0.2138
  643ERGO   ROH 9853   6.116   5.662   6.503  0.0677  0.2499  0.0203
  643ERGO    R1 9854   6.158   5.559   6.763  0.0728  0.1002 -0.0389
  643ERGO    R2 9855   6.345   5.665   6.937  0.0488  0.0250  0.0326
  643ERGO    R3 9856   6.131   5.683   7.104  0.0397 -0.1081  0.0360
  643ERGO    R4 9857   6.357   5.621   7.280  0.0818  0.0146  0.0300
  643ERGO    R5 9858   6.168   5.512   7.267  0.1433 -0.0959  0.0270
  643ERGO    C1 9859   6.163   5.611   7.636  0.0924 -0.1165  0.0318
  643ERGO    C2 9860   6.362   5.437   7.971  0.0128  0.0486 -0.0151
  644ERGO   ROH 9861   1.576   8.124   5.838  0.0823  0.0845 -0.0997
  644ERGO    R1 9862   1.492   7.960   6.053  0.0627  0.0898 -0.1043
  644ERGO    R2 9863   1.503   8.043   6.317  0.1635  0.0459 -0.0963
  644ERGO    R3 9864   1.239   7.977   6.314  0.1327  0.1609 -0.0400
  644ERGO    R4 9865   1.307   8.000   6.598  0.2157  0.0885 -0.0525
  644ERGO    R5 9866   1.213   7.829   6.501  0.1161  0.1430 -0.0554
  644ERGO    C1 9867   0.945   7.913   6.760  0.2171  0.2213  0.0258
  644ERGO    C2 9868   0.801   7.822   7.055  0.0831 -0.0024  0.2614
  645ERGO   ROH 9869   2.153  13.515   8.983 -0.0792  0.0092  0.1757
  645ERGO    R1 9870   2.241  13.373   8.754 -0.0170 -0.0793  0.2535
  645ERGO    R2 9871   2.295  13.497   8.513 -0.1916 -0.2026  0.1486
  645ERGO    R3 9872   2.535  13.372   8.540 -0.0730  0.0254  0.1752
  645ERGO    R4 9873   2.502  13.409   8.251 -0.1697 -0.1773  0.1575
  645ERGO    R5 9874   2.544  13.222   8.354  0.0193 -0.0800  0.2632
  645ERGO    C1 9875   2.847  13.240   8.123 -0.0457  0.0516  0.1876
  645ERGO    C2 9876   3.197  13.143   7.960 -0.0022 -0.0314  0.2395
  646ERGO   ROH 9877  13.402   7.236  10.003  0.1319  0.4764 -0.0551
  646ERGO    R1 9878  13.547   7.217   9.760  0.0872  0.3536 -0.0737
  646ERGO    R2 9879  13.495   7.022   9.571  0.0808  0.2296  0.0514
  646ERGO    R3 9880  13.470   7.236   9.405  0.0129  0.1268 -0.0716
  646ERGO    R4 9881  13.437   7.003   9.231  0.0919  0.0136  0.0614
  646ERGO    R5 9882  13.578   7.167   9.202  0.0385  0.0445 -0.0303
  646ERGO    C1 9883  13.381   7.192   8.877  0.0347 -0.2087 -0.0483
  646ERGO    C2 9884  13.418   7.013   8.591  0.2180  0.3142 -0.0544
  647ERGO   ROH 9885   3.489   6.102   9.448 -0.0338 -0.3383  0.0993
  647ERGO    R1 9886   3.592   6.177   9.195 -0.1781 -0.0835  0.1132
  647ERGO    R2 9887   3.704   5.994   9.020  0.1046  0.1530  0.0392
  647ERGO    R3 9888   3.520   6.097   8.848 -0.0852 -0.0835  0.0944
  647ERGO    R4 9889   3.713   5.959   8.676 -0.1157 -0.0628  0.0516
  647ERGO    R5 9890   3.648   6.166   8.658 -0.2663 -0.1194 -0.0414
  647ERGO    C1 9891   3.546   6.036   8.314 -0.4221 -0.4105  0.1106
  647ERGO    C2 9892   3.175   6.073   8.034 -0.0461 -0.0574 -0.1851
  648ERGO   ROH 9893  18.286   4.095   9.128 -0.3006 -0.1809 -0.0132
  648ERGO    R1 9894  18.372   3.983   8.882 -0.2189 -0.1806  0.0146
  648ERGO    R2 9895  18.207   3.968   8.660 -0.1230 -0.1152 -0.0621
  648ERGO    R3 9896  18.412   4.099   8.539 -0.0322 -0.1588  0.0431
  648ERGO    R4 9897  18.272   3.962   8.321  0.0395 -0.1165 -0.0316
  648ERGO    R5 9898  18.485   3.949   8.367  0.0152 -0.1693  0.0717
  648ERGO    C1 9899  18.503   4.082   8.010  0.2191 -0.1581  0.0850
  648ERGO    C2 9900  18.571   4.140   7.685 -0.2037  0.0662  0.0212
  649ERGO   ROH 9901  12.406  10.723  10.460 -0.0772  0.0620 -0.0437
  649ERGO    R1 9902  12.523  10.791  10.212  0.1760 -0.1403  0.0159
  649ERGO    R2 9903  12.693  10.621  10.075 -0.1474 -0.5006  0.0451
  649ERGO    R3 9904  12.517  10.661   9.872  0.0086 -0.0548 -0.0148
  649ERGO    R4 9905  12.771  10.598   9.739 -0.0772 -0.6045  0.0674
  649ERGO    R5 9906  12.646  10.772   9.703  0.3276 -0.3043  0.0543
  649ERGO    C1 9907  12.650  10.621   9.353  0.1102 -0.2468  0.0242
  649ERGO    C2 9908  12.539  10.709   8.986  0.4478 -0.2397 -0.1419
  650ERGO   ROH 9909   1.897  11.872   5.837 -0.2309 -0.0623  0.0358
  650ERGO    R1 9910   2.095  11.832   6.036 -0.0614 -0.0213 -0.1222
  650ERGO    R2 9911   2.295  12.016   6.086 -0.2035  0.1338 -0.1237
  650ERGO    R3 9912   2.201  12.001   6.340 -0.0238 -0.1414 -0.0683
  650ERGO    R4 9913   2.464  12.128   6.366 -0.2677  0.4102 -0.1913
  650ERGO    R5 9914   2.394  11.951   6.472  0.1673  0.2246 -0.1978
  650ERGO    C1 9915   2.474  12.179   6.768 -0.1363  0.3126 -0.1787
  650ERGO    C2 9916   2.751  12.278   6.968 -0.0162 -0.1435 -0.0196
  651ERGO   ROH 9917  10.766   2.963  10.275 -0.0762  0.2404 -0.0448
  651ERGO    R1 9918  10.779   3.127  10.044  0.0157  0.1739 -0.0867
  651ERGO    R2 9919  10.914   3.052   9.816  0.0304  0.0697 -0.0402
  651ERGO    R3 9920  10.676   3.102   9.696  0.0686  0.1149 -0.0994
  651ERGO    R4 9921  10.867   3.083   9.475  0.1645  0.2840 -0.0416
  651ERGO    R5 9922  10.730   3.248   9.514  0.1248  0.2435  0.0144
  651ERGO    C1 9923  10.615   3.148   9.164  0.2784  0.4512 -0.0981
  651ERGO    C2 9924  10.575   3.020   8.959  0.1665  0.0763  0.2459
  652ERGO   ROH 9925  12.910   0.640  10.183 -0.1641 -0.0583  0.0420
  652ERGO    R1 9926  12.968   0.638   9.906 -0.0106 -0.1670  0.0729
  652ERGO    R2 9927  12.850   0.460   9.731 -0.1967  0.0006  0.0201
  652ERGO    R3 9928  12.782   0.687   9.597  0.2315  0.1062 -0.0334
  652ERGO    R4 9929  12.840   0.491   9.386 -0.0946 -0.0408  0.0133
  652ERGO    R5 9930  12.928   0.690   9.407  0.2653 -0.1918 -0.0143
  652ERGO    C1 9931  12.770   0.722   9.061  0.3669  0.0341 -0.0407
  652ERGO    C2 9932  12.621   0.705   8.699 -0.0737  0.0497  0.2766
  653ERGO   ROH 9933   4.288   1.836   6.536  0.2656 -0.1445  0.0479
  653ERGO    R1 9934   4.243   1.666   6.757  0.3858 -0.1388  0.0777
  653ERGO    R2 9935   4.366   1.705   7.002  0.2758  0.0553  0.1071
  653ERGO    R3 9936   4.110   1.699   7.094  0.2517 -0.1954  0.0299
  653ERGO    R4 9937   4.272   1.613   7.322  0.2582 -0.0737  0.0651
  653ERGO    R5 9938   4.102   1.507   7.237  0.3836 -0.2203  0.0008
  653ERGO    C1 9939   3.978   1.555   7.595  0.2255 -0.3842 -0.0319
  653ERGO    C2 9940   4.069   1.453   7.805 -0.2445 -0.0835 -0.0230
  654ERGO   ROH 9941  11.699   9.103  10.268 -0.2040  0.0352  0.1409
  654ERGO    R1 9942  11.725   9.068   9.988 -0.1504  0.0500  0.1424
  654ERGO    R2 9943  11.532   8.943   9.835 -0.0635 -0.0713  0.1144
  654ERGO    R3 9944  11.544   9.173   9.691 -0.1837 -0.0583  0.1276
  654ERGO    R4 9945  11.507   8.963   9.491 -0.0361 -0.0494  0.1148
  654ERGO    R5 9946  11.664   9.114   9.493 -0.1327  0.0359  0.1392
  654ERGO    C1 9947  11.505   9.190   9.155 -0.1330 -0.0244  0.1274
  654ERGO    C2 9948  11.548   9.196   8.838 -0.0111  0.4422 -0.3029
  655ERGO   ROH 9949  12.808   5.409  10.533  0.0709  0.1690  0.0099
  655ERGO    R1 9950  12.825   5.486  10.261 -0.0151  0.0087 -0.0417
  655ERGO    R2 9951  13.062   5.476  10.118 -0.0348  0.0401 -0.0760
  655ERGO    R3 9952  12.914   5.325   9.947  0.0114 -0.1424  0.0420
  655ERGO    R4 9953  13.095   5.478   9.774 -0.1797 -0.0639 -0.0917
  655ERGO    R5 9954  12.878   5.468   9.758 -0.1799 -0.2416  0.0013
  655ERGO    C1 9955  12.976   5.338   9.413 -0.2207 -0.2958  0.0097
  655ERGO    C2 9956  12.906   5.385   9.135 -0.0906 -0.1409  0.0952
  656ERGO   ROH 9957   7.418   1.276   6.105 -0.2377  0.0104 -0.0914
  656ERGO    R1 9958   7.448   1.227   6.382 -0.0882  0.0878 -0.0930
  656ERGO    R2 9959   7.306   1.030   6.514 -0.1018  0.1999  0.0610
  656ERGO    R3 9960   7.553   0.947   6.591 -0.0924  0.1057 -0.0674
  656ERGO    R4 9961   7.374   0.847   6.799  0.0054  0.3602  0.1409
  656ERGO    R5 9962   7.552   0.968   6.829  0.1017  0.2752 -0.0795
  656ERGO    C1 9963   7.645   0.662   7.037  0.0766  0.3650  0.0668
  656ERGO    C2 9964   7.748   0.390   7.069 -0.1716 -0.1891  0.0307
  657ERGO   ROH 9965  12.045   8.472   6.819 -0.1152  0.2813  0.1268
  657ERGO    R1 9966  12.087   8.413   7.093 -0.1293  0.0388  0.0779
  657ERGO    R2 9967  12.242   8.200   7.177  0.0810  0.1204 -0.1068
  657ERGO    R3 9968  12.372   8.392   7.318 -0.1697  0.1176  0.1388
  657ERGO    R4 9969  12.449   8.140   7.447  0.1758  0.0323 -0.1973
  657ERGO    R5 9970  12.364   8.315   7.545 -0.0601 -0.2012  0.0442
  657ERGO    C1 9971  12.692   8.285   7.737 -0.0043 -0.0215 -0.0193
  657ERGO    C2 9972  12.916   8.234   8.059  0.1865  0.2016  0.2162
  658ERGO   ROH 9973   9.166   4.331  10.533  0.0540 -0.2621  0.1130
  658ERGO    R1 9974   9.169   4.137  10.327  0.1035 -0.1025 -0.0392
  658ERGO    R2 9975   8.958   4.103  10.152  0.0522 -0.1144  0.0244
  658ERGO    R3 9976   9.151   4.137   9.963 -0.0503  0.1667 -0.0341
  658ERGO    R4 9977   8.911   4.064   9.812  0.0133 -0.2182  0.0411
  658ERGO    R5 9978   9.106   3.968   9.801  0.1637  0.0790 -0.0049
  658ERGO    C1 9979   9.064   4.074   9.437 -0.1057 -0.0148 -0.0041
  658ERGO    C2 9980   9.076   4.128   9.006  0.0654  0.2708 -0.6318
  659ERGO   ROH 9981   6.758   3.869   9.890 -0.1268 -0.2531  0.0017
  659ERGO    R1 9982   6.831   3.817   9.621 -0.0477 -0.0716 -0.0134
  659ERGO    R2 9983   6.682   3.656   9.454  0.1308 -0.1608 -0.0918
  659ERGO    R3 9984   6.687   3.874   9.292 -0.0765 -0.0872 -0.0034
  659ERGO    R4 9985   6.689   3.644   9.109  0.3696 -0.0219 -0.0935
  659ERGO    R5 9986   6.832   3.809   9.112  0.1349  0.1855  0.0610
  659ERGO    C1 9987   6.699   3.841   8.755  0.3141  0.1280 -0.0116
  659ERGO    C2 9988   6.654   3.871   8.386 -0.1434 -0.1196  0.0685
  660ERGO   ROH 9989  12.003  14.430  10.152 -0.0090 -0.1561 -0.1946
  660ERGO    R1 9990  12.003  14.595   9.922  0.2963 -0.1005 -0.1590
  660ERGO    R2 9991  12.154  14.536   9.697  0.0509 -0.4412 -0.2425
  660ERGO    R3 9992  11.914  14.558   9.571  0.0290  0.1919 -0.1268
  660ERGO    R4 9993  12.114  14.591   9.358  0.0354 -0.4028 -0.2344
  660ERGO    R5 9994  11.950  14.727   9.405  0.4183  0.0709 -0.1785
  660ERGO    C1 9995  11.865  14.643   9.042  0.0059  0.2139 -0.1212
  660ERGO    C2 9996  11.882  14.705   8.743 -0.0605  0.2456 -0.4215
  661ERGO   ROH 9997  14.563   7.960   9.892  0.1909  0.0104 -0.0604
  661ERGO    R1 9998  14.545   7.942   9.610  0.1776 -0.2563 -0.0442
  661ERGO    R2 9999  14.437   7.723   9.481 -0.3794 -0.1345  0.1980
  661ERGO    R310000  14.278   7.910   9.364  0.1053  0.1574 -0.0304
  661ERGO    R410001  14.311   7.701   9.160 -0.5390 -0.2821  0.2674
  661ERGO    R510002  14.351   7.914   9.136  0.0660 -0.4034 -0.0732
  661ERGO    C110003  14.089   7.864   8.863 -0.1769 -0.0939  0.0934
  661ERGO    C210004  14.188   7.972   8.603 -0.1142 -0.1888 -0.3897
  662ERGO   ROH10005  10.815  15.373   6.690 -0.0956 -0.0311  0.0082
  662ERGO    R110006  10.757  15.495   6.938  0.0503 -0.0119  0.0329
  662ERGO    R210007  10.639  15.359   7.148 -0.0428  0.0662  0.0292
  662ERGO    R310008  10.856  15.448   7.285  0.0576 -0.1468  0.0135
  662ERGO    R410009  10.647  15.420   7.488  0.0333  0.0745  0.0264
  662ERGO    R510010  10.766  15.598   7.448  0.2144 -0.0450  0.0111
  662ERGO    C110011  10.855  15.540   7.815  0.1718 -0.1207  0.0101
  662ERGO    C210012  10.895  15.450   8.100  0.0422  0.1160 -0.3908
  663ERGO   ROH10013   0.630   7.085   9.250 -0.1411 -0.1276 -0.1482
  663ERGO    R110014   0.711   7.175   8.994  0.0171 -0.0215 -0.0617
  663ERGO    R210015   0.677   7.024   8.765  0.1678  0.0710 -0.1407
  663ERGO    R310016   0.549   7.246   8.676  0.2172  0.1013 -0.1396
  663ERGO    R410017   0.681   7.136   8.438 -0.0157 -0.0820 -0.1982
  663ERGO    R510018   0.698   7.340   8.514  0.1519 -0.0518 -0.2974
  663ERGO    C110019   0.563   7.410   8.164 -0.0760 -0.1426 -0.2306
  663ERGO    C210020   0.671   7.446   7.869 -0.1289 -0.1449  0.1323
  664ERGO   ROH10021   2.236  16.530   9.688  0.1909 -0.1815  0.1033
  664ERGO    R110022   2.293  16.575   9.414  0.3211 -0.1563  0.1348
  664ERGO    R210023   2.418  16.386   9.256  0.0495 -0.2943  0.0864
  664ERGO    R310024   2.201  16.422   9.097  0.1387  0.1260  0.0473
  664ERGO    R410025   2.404  16.307   8.920 -0.0956 -0.4634  0.1295
  664ERGO    R510026   2.292  16.491   8.887  0.3317 -0.2054  0.0127
  664ERGO    C110027   2.193  16.295   8.575 -0.0964 -0.1672  0.1179
  664ERGO    C210028   2.307  16.021   8.507  0.0358 -0.1553  0.1199
  665ERGO   ROH10029  18.258   6.663   5.824  0.0910 -0.3423 -0.2070
  665ERGO    R110030  18.168   6.672   6.092  0.1253 -0.3500 -0.1956
  665ERGO    R210031  18.193   6.458   6.265  0.4560 -0.2401 -0.1052
  665ERGO    R310032  18.317   6.642   6.422  0.2286  0.0053 -0.2052
  665ERGO    R410033  18.149   6.486   6.606  0.5032 -0.1848 -0.1032
  665ERGO    R510034  18.150   6.703   6.583  0.1742 -0.1840 -0.1839
  665ERGO    C110035  18.239   6.676   6.953  0.3173  0.0777 -0.1958
  665ERGO    C210036  18.050   6.790   7.227 -0.0667 -0.1509 -0.1786
  666ERGO   ROH10037  12.820   1.198   6.522 -0.1641 -0.1595 -0.1146
  666ERGO    R110038  12.719   1.350   6.739  0.0356 -0.0707 -0.0811
  666ERGO    R210039  12.501   1.269   6.888 -0.0467  0.1624 -0.0687
  666ERGO    R310040  12.673   1.300   7.097  0.0163 -0.0696 -0.0836
  666ERGO    R410041  12.418   1.229   7.221 -0.1099  0.4024 -0.0550
  666ERGO    R510042  12.541   1.403   7.268  0.1915  0.2097 -0.1099
  666ERGO    C110043  12.531   1.236   7.611 -0.0876  0.3244 -0.0610
  666ERGO    C210044  12.574   1.131   7.901  0.1017 -0.0787 -0.0563
  667ERGO   ROH10045  18.041   6.472   9.176 -0.1895  0.1328  0.1067
  667ERGO    R110046  17.937   6.301   8.976 -0.1746  0.0990  0.1274
  667ERGO    R210047  17.686   6.336   8.867 -0.1165  0.1609  0.0076
  667ERGO    R310048  17.822   6.335   8.632 -0.0153  0.0168  0.0655
  667ERGO    R410049  17.539   6.323   8.554  0.0131  0.1583 -0.0538
  667ERGO    R510050  17.697   6.186   8.491 -0.0388  0.0503  0.0528
  667ERGO    C110051  17.581   6.316   8.152  0.1837  0.0216 -0.0352
  667ERGO    C210052  17.427   6.511   7.951  0.1151 -0.0041 -0.2169
  668ERGO   ROH10053   7.005  17.461  10.216 -0.2315  0.2499 -0.0422
  668ERGO    R110054   6.913  17.488   9.950 -0.1700  0.1314 -0.0755
  668ERGO    R210055   7.020  17.673   9.774 -0.1405  0.0594 -0.1258
  668ERGO    R310056   7.055  17.455   9.616 -0.0924 -0.0026 -0.0314
  668ERGO    R410057   7.039  17.678   9.429  0.0771 -0.0482 -0.1177
  668ERGO    R510058   6.919  17.497   9.424  0.0332 -0.0268 -0.1324
  668ERGO    C110059   7.083  17.475   9.080  0.2490 -0.1690 -0.0243
  668ERGO    C210060   7.040  17.423   8.714 -0.1760 -0.2102  0.1148
  669ERGO   ROH10061  10.105  13.746  10.331 -0.1507 -0.0359 -0.0373
  669ERGO    R110062   9.955  13.684  10.100 -0.3879  0.1585  0.0613
  669ERGO    R210063   9.850  13.878   9.933  0.0815  0.3046 -0.0717
  669ERGO    R310064   9.985  13.741   9.741 -0.3300 -0.2316 -0.0015
  669ERGO    R410065   9.792  13.907   9.594  0.2578  0.4302 -0.0932
  669ERGO    R510066   9.818  13.691   9.577 -0.4889  0.3053 -0.0291
  669ERGO    C110067   9.885  13.794   9.216 -0.0260 -0.0002 -0.0398
  669ERGO    C210068   9.780  13.856   8.942 -0.0129  0.0757  0.2262
  670ERGO   ROH10069   8.945   0.200   6.405 -0.0111  0.0737  0.1199
  670ERGO    R110070   9.137   0.305   6.584 -0.0050 -0.1429  0.2416
  670ERGO    R210071   9.125   0.563   6.680  0.2699 -0.1046  0.1605
  670ERGO    R310072   9.138   0.440   6.922 -0.0812 -0.0576  0.2108
  670ERGO    R410073   9.255   0.706   6.967  0.4653 -0.2587  0.1527
  670ERGO    R510074   9.347   0.514   7.015  0.0541 -0.4514  0.2577
  670ERGO    C110075   9.343   0.675   7.361  0.2493 -0.3042  0.1953
  670ERGO    C210076   9.335   0.647   7.669  0.2692 -0.2128  0.3981
  671ERGO   ROH10077  10.862   0.942  10.270  0.1057  0.1241  0.0021
  671ERGO    R110078  10.705   1.010  10.044  0.0986  0.0265 -0.0226
  671ERGO    R210079  10.754   1.235   9.892  0.0542 -0.0065 -0.0835
  671ERGO    R310080  10.762   1.057   9.687  0.0994 -0.0609 -0.0348
  671ERGO    R410081  10.702   1.314   9.560  0.0619 -0.1003 -0.1072
  671ERGO    R510082  10.588   1.129   9.539  0.0945 -0.1283 -0.0652
  671ERGO    C110083  10.679   1.193   9.174  0.1088 -0.2060 -0.0755
  671ERGO    C210084  10.650   1.216   8.832 -0.4333  0.3339  0.1479
  672ERGO   ROH10085  15.270   6.851   9.701 -0.0942 -0.2254  0.0220
  672ERGO    R110086  15.084   6.785   9.499 -0.0675 -0.1088 -0.0415
  672ERGO    R210087  15.063   6.929   9.263  0.1406 -0.1281 -0.0745
  672ERGO    R310088  15.097   6.684   9.149 -0.0082 -0.1757 -0.0196
  672ERGO    R410089  14.905   6.821   8.976  0.1258 -0.0740 -0.0869
  672ERGO    R510090  14.880   6.625   9.068 -0.0327 -0.0384 -0.0544
  672ERGO    C110091  14.845   6.528   8.701 -0.0223 -0.0871 -0.0426
  672ERGO    C210092  14.852   6.481   8.460 -0.1283 -0.1015  0.0133
  673ERGO   ROH10093   8.885  10.342  10.055 -0.0270  0.2436 -0.2315
  673ERGO    R110094   8.948  10.275   9.787  0.0231  0.3073 -0.2360
  673ERGO    R210095   8.758  10.186   9.608  0.0989  0.1153 -0.2251
  673ERGO    R310096   8.850  10.391   9.456 -0.1170  0.2124 -0.2282
  673ERGO    R410097   8.754  10.193   9.263  0.3013  0.0072 -0.2315
  673ERGO    R510098   8.952  10.285   9.267  0.1628  0.3083 -0.1351
  673ERGO    C110099   8.838  10.391   8.919  0.2163  0.0352 -0.2380
  673ERGO    C210100   8.914  10.481   8.556  0.0539  0.2094 -0.0251
  674PSPI    C110101  12.775  16.908   5.655 -0.0012  0.0431  0.0260
  674PSPI    C210102  12.766  17.221   5.407  0.1458  0.1001  0.0910
  674PSPI    C310103  12.550  16.894   5.325  0.0723  0.1782 -0.0304
  674PSPI   PO410104  12.739  17.017   5.837 -0.0383  0.2294 -0.1275
  674PSPI   GL110105  12.839  17.232   6.168  0.0691 -0.2364  0.0203
  674PSPI   GL210106  13.088  17.107   6.239  0.0433 -0.0823  0.1275
  674PSPI   C1A10107  12.746  17.094   6.586  0.1756 -0.0263 -0.1116
  674PSPI   C2A10108  12.719  17.218   7.043  0.0582  0.2598 -0.1803
  674PSPI   C3A10109  12.905  17.052   7.395 -0.0034 -0.3242 -0.1435
  674PSPI   C4A10110  12.620  17.044   7.693 -0.0046  0.0261 -0.0124
  674PSPI   C1B10111  13.154  17.333   6.679  0.0687  0.3521  0.0233
  674PSPI   C2B10112  13.272  17.347   7.132  0.2151 -0.0286 -0.4451
  674PSPI   C3B10113  13.371  17.239   7.556  0.1260  0.2260 -0.1705
  674PSPI   C4B10114  13.658  17.089   7.901 -0.1513 -0.3304  0.1369
  675PSPI    C110115   3.492   6.960   5.157  0.0177 -0.1821 -0.1616
  675PSPI    C210116   3.467   7.243   4.876 -0.1012 -0.0034  0.0258
  675PSPI    C310117   3.764   6.975   4.865 -0.0319  0.0806 -0.1963
  675PSPI   PO410118   3.407   7.053   5.384 -0.4331  0.1132 -0.0129
  675PSPI   GL110119   3.476   7.001   5.802 -0.1855 -0.2342  0.1333
  675PSPI   GL210120   3.890   7.168   5.859  0.2873 -0.0362 -0.2015
  675PSPI   C1A10121   3.236   7.135   6.160 -0.0643 -0.0995 -0.0366
  675PSPI   C2A10122   3.017   6.981   6.440  0.0975  0.2138  0.1042
  675PSPI   C3A10123   3.025   7.084   6.912  0.1291  0.0310 -0.1933
  675PSPI   C4A10124   2.728   6.994   7.169 -0.1221 -0.1132 -0.3218
  675PSPI   C1B10125   3.703   7.279   6.314  0.0403 -0.1884  0.4429
  675PSPI   C2B10126   3.465   7.202   6.616  0.0206 -0.2326 -0.2080
  675PSPI   C3B10127   3.459   7.194   7.001  0.2067 -0.3275 -0.3197
  675PSPI   C4B10128   3.388   6.894   7.278  0.2654  0.0031  0.0680
  676PSPI    C110129  17.192   7.063   5.245 -0.0050 -0.0919 -0.0104
  676PSPI    C210130  16.957   7.352   5.098 -0.2389 -0.2523  0.0421
  676PSPI    C310131  17.344   7.337   4.996 -0.2580 -0.0061 -0.0736
  676PSPI   PO410132  17.138   7.106   5.601  0.0149 -0.1686  0.0348
  676PSPI   GL110133  16.950   7.015   5.967  0.2513  0.1813  0.0009
  676PSPI   GL210134  16.669   6.908   5.810 -0.0904 -0.0540 -0.1521
  676PSPI   C1A10135  16.885   7.040   6.373 -0.1331  0.3115 -0.0422
  676PSPI   C2A10136  17.055   7.190   6.798  0.1960 -0.3405  0.1391
  676PSPI   C3A10137  17.303   6.990   6.993 -0.2264 -0.1878  0.0100
  676PSPI   C4A10138  17.670   7.089   7.238 -0.0599  0.1706  0.1157
  676PSPI   C1B10139  16.559   6.705   6.202 -0.2872  0.0899  0.0074
  676PSPI   C2B10140  16.480   6.455   6.642 -0.0895 -0.3731  0.0802
  676PSPI   C3B10141  16.574   6.376   6.958 -0.0877  0.2570 -0.1564
  676PSPI   C4B10142  16.540   6.531   7.274 -0.0286  0.1594 -0.0066
  677PSPI    C110143  14.354  12.042   5.852  0.2890 -0.2463  0.1375
  677PSPI    C210144  14.137  11.746   5.694  0.0199 -0.0045  0.0444
  677PSPI    C310145  14.506  11.817   5.558  0.0715 -0.2688  0.0400
  677PSPI   PO410146  14.196  12.284   5.905  0.2714  0.1074 -0.1529
  677PSPI   GL110147  14.105  12.262   6.264 -0.0090 -0.3618 -0.0347
  677PSPI   GL210148  14.321  12.087   6.337  0.0746  0.0290 -0.0600
  677PSPI   C1A10149  14.031  12.319   6.652  0.0506  0.1152  0.0248
  677PSPI   C2A10150  14.188  12.212   6.962 -0.0986 -0.1504 -0.0204
  677PSPI   C3A10151  14.111  12.069   7.421  0.1979  0.1704  0.1322
  677PSPI   C4A10152  14.245  12.203   7.874 -0.0458 -0.2523 -0.1441
  677PSPI   C1B10153  14.491  12.498   6.616 -0.0495  0.0095  0.1245
  677PSPI   C2B10154  14.811  12.658   6.826  0.0212 -0.2197  0.2272
  677PSPI   C3B10155  14.743  12.922   7.147  0.0208 -0.1173 -0.1874
  677PSPI   C4B10156  14.329  12.955   7.531 -0.0951  0.0989 -0.1788
  678PSPI    C110157  12.727  15.123   5.844  0.0630 -0.1362  0.0498
  678PSPI    C210158  12.349  15.253   5.852 -0.0096 -0.3527  0.2240
  678PSPI    C310159  12.650  15.515   5.855 -0.1578 -0.1754 -0.0394
  678PSPI   PO410160  12.801  14.947   6.021  0.2766 -0.2167  0.0231
  678PSPI   GL110161  12.624  14.903   6.328 -0.1641 -0.1758  0.1837
  678PSPI   GL210162  12.534  15.245   6.307  0.1118  0.0234  0.0830
  678PSPI   C1A10163  12.491  14.816   6.731  0.0132 -0.1799 -0.0065
  678PSPI   C2A10164  12.318  14.602   7.095 -0.0467 -0.0018 -0.1534
  678PSPI   C3A10165  12.486  14.311   7.343 -0.0483  0.1413 -0.2572
  678PSPI   C4A10166  12.707  14.091   7.682  0.0123 -0.0080 -0.2269
  678PSPI   C1B10167  12.727  15.267   6.751  0.1611 -0.0798  0.1184
  678PSPI   C2B10168  12.718  15.072   7.219  0.0231  0.0874 -0.0203
  678PSPI   C3B10169  12.510  14.850   7.536 -0.0447 -0.2903 -0.0689
  678PSPI   C4B10170  12.276  15.222   7.697 -0.1970  0.1977  0.0754
  679PSPI    C110171  13.831  17.818   5.442  0.0817  0.1223  0.0143
  679PSPI    C210172  13.559  18.026   5.236  0.0384  0.1172  0.0663
  679PSPI    C310173  13.596  17.632   5.177 -0.0648  0.0925  0.1637
  679PSPI   PO410174  13.773  17.923   5.644  0.0589  0.0079  0.1702
  679PSPI   GL110175  13.781  18.255   5.933 -0.1231 -0.2980  0.0214
  679PSPI   GL210176  13.951  18.664   5.789  0.4198  0.2457  0.0148
  679PSPI   C1A10177  13.708  18.273   6.347  0.2431  0.0006 -0.2496
  679PSPI   C2A10178  13.766  18.198   6.803 -0.0089  0.0452  0.1397
  679PSPI   C3A10179  14.243  18.170   7.016 -0.1227 -0.1185  0.0817
  679PSPI   C4A10180  14.517  18.197   7.290 -0.3506  0.0831  0.1903
  679PSPI   C1B10181  14.095  18.607   6.178  0.3363 -0.0466  0.2337
  679PSPI   C2B10182  14.216  18.315   6.478 -0.1412 -0.2608 -0.1595
  679PSPI   C3B10183  14.276  17.910   6.599  0.2399  0.1848  0.0787
  679PSPI   C4B10184  14.598  17.720   6.866  0.0914 -0.1270  0.2569
  680PSPI    C110185   5.817  14.026   5.043 -0.1719 -0.2435 -0.1922
  680PSPI    C210186   5.443  14.111   4.929 -0.2302 -0.1077  0.0930
  680PSPI    C310187   5.665  14.389   5.113 -0.0314 -0.2266  0.0355
  680PSPI   PO410188   5.831  13.855   5.173  0.2227  0.1016  0.0704
  680PSPI   GL110189   5.657  13.855   5.578  0.0578  0.1441  0.1275
  680PSPI   GL210190   5.537  13.715   5.802 -0.0129  0.1918  0.1747
  680PSPI   C1A10191   5.424  14.120   6.014 -0.2979 -0.0265 -0.0217
  680PSPI   C2A10192   5.342  13.875   6.368  0.0967 -0.2326  0.0354
  680PSPI   C3A10193   5.196  14.001   6.824  0.1127 -0.1570 -0.0154
  680PSPI   C4A10194   5.190  13.851   7.174 -0.0874 -0.1492  0.0474
  680PSPI   C1B10195   5.707  13.385   6.192  0.3238 -0.2656  0.0884
  680PSPI   C2B10196   5.904  13.187   6.496  0.1936  0.2210  0.1685
  680PSPI   C3B10197   5.924  13.208   6.942  0.1131 -0.2520  0.0930
  680PSPI   C4B10198   5.654  13.358   7.295 -0.1146 -0.0378 -0.1329
  681PSPI    C110199   7.774   4.190   5.850 -0.0370  0.0703 -0.0973
  681PSPI    C210200   7.499   3.964   5.669  0.0493 -0.0034 -0.1375
  681PSPI    C310201   7.851   3.806   5.772 -0.0569 -0.0058  0.2391
  681PSPI   PO410202   7.633   4.317   6.011  0.0883  0.1658  0.2331
  681PSPI   GL110203   7.616   4.268   6.404  0.1923 -0.1979  0.0235
  681PSPI   GL210204   7.590   4.531   6.686  0.1095  0.0211  0.0526
  681PSPI   C1A10205   7.253   4.046   6.645 -0.0150 -0.1921  0.0882
  681PSPI   C2A10206   6.832   4.172   6.923  0.0444 -0.6067  0.0486
  681PSPI   C3A10207   6.498   4.215   7.232 -0.1877  0.0519 -0.1862
  681PSPI   C4A10208   6.165   4.438   7.561 -0.0983 -0.0250  0.1133
  681PSPI   C1B10209   7.630   4.561   7.121  0.0322 -0.1851 -0.2914
  681PSPI   C2B10210   7.856   4.813   7.341 -0.0268  0.0283 -0.3111
  681PSPI   C3B10211   8.130   4.939   7.608 -0.1477 -0.0658 -0.1422
  681PSPI   C4B10212   8.197   4.963   8.047  0.0573 -0.2372 -0.0896
  682PSPI    C110213   0.129   6.339   5.307  0.0685 -0.0539 -0.0455
  682PSPI    C210214  -0.015   6.708   5.362 -0.2400 -0.1496 -0.1871
  682PSPI    C310215  -0.192   6.461   5.102  0.0251 -0.3646 -0.1684
  682PSPI   PO410216   0.070   6.194   5.481  0.0813  0.4119 -0.2736
  682PSPI   GL110217   0.021   6.208   5.839 -0.0954 -0.1992 -0.0367
  682PSPI   GL210218   0.309   6.492   5.847  0.0177  0.1184  0.0667
  682PSPI   C1A10219   0.180   6.284   6.317 -0.0060  0.0436  0.0789
  682PSPI   C2A10220   0.246   6.498   6.661  0.0292 -0.4034 -0.1305
  682PSPI   C3A10221   0.398   6.401   7.172 -0.1642  0.3889 -0.1015
  682PSPI   C4A10222   0.332   6.097   7.488  0.2613  0.1797 -0.1034
  682PSPI   C1B10223   0.592   6.725   6.142  0.2205  0.0336 -0.0510
  682PSPI   C2B10224   0.993   6.855   6.350 -0.0121 -0.0920  0.0087
  682PSPI   C3B10225   1.241   6.837   6.604  0.3041  0.0797  0.0933
  682PSPI   C4B10226   1.504   6.631   6.828  0.0443 -0.2134  0.1117
  683PSPI    C110227  12.284  14.366   5.578  0.1707  0.1249 -0.1626
  683PSPI    C210228  12.301  14.429   5.183 -0.1617 -0.0348 -0.2061
  683PSPI    C310229  12.301  14.056   5.326  0.1314  0.0245 -0.0425
  683PSPI   PO410230  12.469  14.439   5.736 -0.0729  0.2709  0.0877
  683PSPI   GL110231  12.486  14.451   6.231 -0.3613 -0.1989 -0.4496
  683PSPI   GL210232  12.851  14.449   6.193  0.0389 -0.3794 -0.2517
  683PSPI   C1A10233  12.188  14.400   6.604  0.1162  0.1379 -0.0666
  683PSPI   C2A10234  12.304  14.122   6.961  0.1007  0.2985 -0.1017
  683PSPI   C3A10235  12.100  13.987   7.372 -0.0559 -0.0197 -0.2899
  683PSPI   C4A10236  11.892  13.791   7.768 -0.0081 -0.2146 -0.0914
  683PSPI   C1B10237  12.747  14.374   6.674 -0.1376  0.3953  0.1607
  683PSPI   C2B10238  12.842  14.561   7.095  0.0961 -0.0981  0.0188
  683PSPI   C3B10239  12.986  14.570   7.491 -0.3446  0.0800 -0.0082
  683PSPI   C4B10240  13.049  14.698   7.933  0.1637  0.2559  0.1141
  684PSPI    C110241   6.921  11.559   5.845 -0.3014 -0.0557  0.0485
  684PSPI    C210242   6.762  11.420   5.506  0.0858  0.0328 -0.1751
  684PSPI    C310243   7.108  11.621   5.497 -0.0125  0.2308  0.2483
  684PSPI   PO410244   6.958  11.398   6.030  0.3489  0.0478  0.1600
  684PSPI   GL110245   7.246  11.122   6.147  0.2467  0.0852 -0.4899
  684PSPI   GL210246   7.046  10.827   6.179  0.0702 -0.3833 -0.0626
  684PSPI   C1A10247   7.177  11.130   6.555  0.0715  0.1863  0.0619
  684PSPI   C2A10248   6.938  11.079   6.904  0.0081 -0.3464 -0.0122
  684PSPI   C3A10249   6.782  11.152   7.302 -0.1268  0.1557  0.1712
  684PSPI   C4A10250   6.581  11.276   7.576  0.3300  0.1436  0.0393
  684PSPI   C1B10251   7.057  10.676   6.520  0.1355  0.1911  0.0065
  684PSPI   C2B10252   6.898  10.549   6.943  0.3483 -0.0770 -0.0903
  684PSPI   C3B10253   6.500  10.486   7.139  0.2344  0.0575  0.1063
  684PSPI   C4B10254   6.411  10.169   7.308  0.2538 -0.1690  0.0736
  685PSPI    C110255   2.460   2.843   5.732 -0.2355  0.0691 -0.0709
  685PSPI    C210256   2.639   2.491   5.668 -0.1198  0.0935  0.1097
  685PSPI    C310257   2.475   2.691   5.363 -0.0168 -0.0254 -0.0250
  685PSPI   PO410258   2.589   2.982   5.850 -0.0613  0.1131  0.1142
  685PSPI   GL110259   2.912   2.850   6.113 -0.0963 -0.0156  0.1910
  685PSPI   GL210260   3.139   3.082   6.034 -0.1336 -0.0421 -0.1298
  685PSPI   C1A10261   2.957   2.583   6.500 -0.1803  0.0944  0.0506
  685PSPI   C2A10262   3.124   2.593   6.936  0.2816 -0.2637 -0.0315
  685PSPI   C3A10263   2.977   2.778   7.276  0.0596  0.0268  0.2261
  685PSPI   C4A10264   2.853   3.042   7.610  0.0197  0.0809  0.2449
  685PSPI   C1B10265   2.918   3.069   6.523 -0.0889  0.0259  0.1061
  685PSPI   C2B10266   2.695   3.217   6.790 -0.2359 -0.1435  0.0980
  685PSPI   C3B10267   2.647   3.384   7.192 -0.0330 -0.2195 -0.0143
  685PSPI   C4B10268   2.234   3.393   7.268 -0.2343  0.1277  0.0747
  686PSPI    C110269   6.020  13.029   5.081  0.0695 -0.1816 -0.0521
  686PSPI    C210270   5.744  13.265   4.912  0.0282 -0.0460  0.2005
  686PSPI    C310271   5.908  12.967   4.702 -0.1466  0.0125 -0.0223
  686PSPI   PO410272   5.888  12.926   5.269  0.2450 -0.2164  0.0401
  686PSPI   GL110273   5.791  12.956   5.724  0.0057 -0.1007 -0.0733
  686PSPI   GL210274   5.545  13.150   5.736  0.1388  0.0706 -0.1166
  686PSPI   C1A10275   5.765  12.673   6.166  0.0232 -0.2567  0.0111
  686PSPI   C2A10276   5.680  12.579   6.582  0.1561 -0.0412  0.1302
  686PSPI   C3A10277   5.886  12.267   6.976 -0.1177  0.1322 -0.2568
  686PSPI   C4A10278   6.192  12.102   7.236  0.1131  0.2812  0.1444
  686PSPI   C1B10279   5.323  12.968   6.098 -0.0772  0.1728 -0.1595
  686PSPI   C2B10280   5.377  13.034   6.485  0.0063  0.1892  0.0988
  686PSPI   C3B10281   5.314  12.977   6.901  0.0900  0.1591  0.0629
  686PSPI   C4B10282   5.611  12.710   7.062 -0.2745 -0.0746  0.5539
  687PSPI    C110283  16.060   1.056   5.818 -0.4425  0.0549  0.0238
  687PSPI    C210284  16.110   1.101   5.424  0.2427 -0.1285  0.0762
  687PSPI    C310285  16.052   1.421   5.657 -0.1508 -0.0182 -0.1627
  687PSPI   PO410286  15.763   0.831   5.878  0.0803 -0.0999  0.0684
  687PSPI   GL110287  15.566   0.538   6.172 -0.0297 -0.5054  0.1496
  687PSPI   GL210288  15.306   0.581   6.508 -0.1261 -0.1434  0.0512
  687PSPI   C1A10289  15.771   0.660   6.524 -0.0659 -0.0170  0.3232
  687PSPI   C2A10290  16.151   0.683   6.838 -0.0708  0.0149 -0.3127
  687PSPI   C3A10291  16.185   0.360   7.187  0.1628 -0.1366 -0.1726
  687PSPI   C4A10292  16.470   0.242   7.459  0.1782 -0.0910 -0.1405
  687PSPI   C1B10293  15.328   0.562   6.861  0.5531 -0.3285  0.2207
  687PSPI   C2B10294  15.714   0.598   7.040 -0.0356  0.0554 -0.1555
  687PSPI   C3B10295  15.985   0.968   7.249 -0.0350 -0.5721  0.0400
  687PSPI   C4B10296  15.962   1.319   7.530 -0.0482 -0.1422 -0.1341
  688PSPI    C110297   1.895   2.984   5.593 -0.0260  0.0480  0.1164
  688PSPI    C210298   1.757   3.256   5.333  0.2550  0.0875  0.0044
  688PSPI    C310299   1.527   2.947   5.442 -0.0366  0.3234  0.0694
  688PSPI   PO410300   2.024   3.277   5.854  0.0847 -0.1128  0.2571
  688PSPI   GL110301   2.243   3.229   6.201 -0.3285 -0.1552  0.1271
  688PSPI   GL210302   2.498   3.154   6.317  0.3613 -0.1808  0.0277
  688PSPI   C1A10303   2.203   3.059   6.690  0.0665  0.1288 -0.2449
  688PSPI   C2A10304   1.965   2.934   7.150  0.1938 -0.0971  0.2383
  688PSPI   C3A10305   1.708   2.573   7.318  0.0011 -0.0873  0.1710
  688PSPI   C4A10306   1.525   2.392   7.670 -0.2365 -0.2219 -0.0295
  688PSPI   C1B10307   2.690   3.525   6.286 -0.1510  0.3082 -0.1600
  688PSPI   C2B10308   3.183   3.537   6.308 -0.0737  0.3725 -0.0582
  688PSPI   C3B10309   3.650   3.426   6.463 -0.0926 -0.0587  0.4072
  688PSPI   C4B10310   3.879   3.161   6.749 -0.0098 -0.1149 -0.0566
  689PSPI    C110311   2.129  15.265   5.386 -0.0413 -0.1060  0.2236
  689PSPI    C210312   1.849  15.465   5.181  0.1736 -0.0577 -0.0279
  689PSPI    C310313   1.959  15.099   5.064  0.0045 -0.1999  0.2475
  689PSPI   PO410314   2.272  15.369   5.501 -0.1701 -0.0177  0.0141
  689PSPI   GL110315   2.425  15.444   5.833  0.2641  0.0948  0.2646
  689PSPI   GL210316   2.132  15.446   5.951  0.0145 -0.1591  0.1338
  689PSPI   C1A10317   2.546  15.518   6.294 -0.0701 -0.0505 -0.0771
  689PSPI   C2A10318   2.410  15.257   6.695  0.1840 -0.1202  0.1414
  689PSPI   C3A10319   2.255  15.174   7.075  0.1713  0.1225 -0.1518
  689PSPI   C4A10320   2.296  15.391   7.462 -0.0173 -0.1400  0.5999
  689PSPI   C1B10321   2.025  15.274   6.269  0.0123 -0.3432 -0.1372
  689PSPI   C2B10322   1.845  15.215   6.722  0.2161 -0.0102 -0.0909
  689PSPI   C3B10323   1.710  15.200   7.139  0.1398  0.0702  0.3985
  689PSPI   C4B10324   1.573  15.121   7.513  0.4370 -0.0616  0.1153
  690PSPI    C110325  14.327  17.610   5.317  0.1393  0.0915 -0.1803
  690PSPI    C210326  14.030  17.357   5.225  0.0558  0.1889 -0.1805
  690PSPI    C310327  14.405  17.275   5.113  0.0588 -0.0290 -0.0155
  690PSPI   PO410328  14.318  17.610   5.670  0.1467  0.2139 -0.1653
  690PSPI   GL110329  13.984  17.534   6.023 -0.0031 -0.1565  0.1829
  690PSPI   GL210330  14.047  17.857   6.130 -0.0232 -0.3719  0.1004
  690PSPI   C1A10331  14.140  17.467   6.405  0.0362 -0.1952  0.0715
  690PSPI   C2A10332  14.320  17.225   6.720  0.2897  0.0612 -0.1535
  690PSPI   C3A10333  14.300  17.101   7.073  0.1300 -0.1087  0.3271
  690PSPI   C4A10334  14.541  16.917   7.408 -0.2332 -0.0915 -0.2755
  690PSPI   C1B10335  13.680  17.751   6.437  0.2170 -0.0829  0.1865
  690PSPI   C2B10336  13.500  17.684   6.884  0.0088  0.2269 -0.2680
  690PSPI   C3B10337  13.672  17.516   7.294  0.0522  0.1569  0.0937
  690PSPI   C4B10338  13.974  17.509   7.597 -0.1985 -0.3453 -0.1819
  691PSPI    C110339  18.252  13.510   5.029  0.0408  0.0496  0.1503
  691PSPI    C210340  18.570  13.752   5.049  0.2120 -0.1538 -0.0540
  691PSPI    C310341  18.422  13.645   4.693  0.0316 -0.2132  0.0375
  691PSPI   PO410342  18.183  13.631   5.346  0.0993  0.0476  0.2203
  691PSPI   GL110343  18.011  13.757   5.687  0.0221  0.2683  0.0535
  691PSPI   GL210344  18.313  13.484   5.802 -0.6815 -0.0293 -0.0573
  691PSPI   C1A10345  17.637  13.782   6.021 -0.0261 -0.2416  0.3064
  691PSPI   C2A10346  17.738  13.987   6.378  0.3168  0.1348 -0.0705
  691PSPI   C3A10347  18.086  13.996   6.642  0.1429 -0.2299 -0.2827
  691PSPI   C4A10348  18.188  14.325   6.993 -0.2281 -0.0736 -0.1794
  691PSPI   C1B10349  18.215  13.280   6.246 -0.3299  0.1851 -0.0185
  691PSPI   C2B10350  18.529  13.103   6.517 -0.3179  0.0037 -0.0703
  691PSPI   C3B10351  18.583  13.155   6.953  0.0362  0.1157 -0.3298
  691PSPI   C4B10352  18.476  12.781   7.244  0.0446  0.0043  0.1512
  692PSPI    C110353  16.318   0.163   5.419 -0.0388 -0.1018 -0.0037
  692PSPI    C210354  16.471   0.272   5.066 -0.2823  0.2124 -0.0162
  692PSPI    C310355  16.079   0.313   5.136 -0.3202 -0.3119  0.1184
  692PSPI   PO410356  16.385  -0.021   5.483  0.0978 -0.1958 -0.0923
  692PSPI   GL110357  16.071  -0.135   5.789 -0.0993 -0.1411  0.4186
  692PSPI   GL210358  15.922  -0.460   5.707  0.1337 -0.0204 -0.2059
  692PSPI   C1A10359  15.971  -0.166   6.194  0.2391 -0.3704  0.0218
  692PSPI   C2A10360  16.046  -0.347   6.548  0.1418  0.0671 -0.1351
  692PSPI   C3A10361  16.000  -0.483   6.962 -0.1355 -0.1708  0.0305
  692PSPI   C4A10362  16.036  -0.764   7.282  0.2296  0.1071 -0.0632
  692PSPI   C1B10363  15.972  -0.651   6.200 -0.0870  0.1686  0.2916
  692PSPI   C2B10364  16.311  -0.767   6.443  0.2085  0.0698  0.1650
  692PSPI   C3B10365  16.362  -1.085   6.795 -0.0856  0.2757 -0.2896
  692PSPI   C4B10366  16.085  -1.229   7.082 -0.0407  0.3481  0.1862
  693PSPI    C110367   4.639  16.972   5.873  0.1945 -0.0600 -0.2491
  693PSPI    C210368   4.796  17.329   5.785 -0.0346  0.1267  0.0741
  693PSPI    C310369   5.034  17.009   5.823  0.1748  0.2459 -0.1963
  693PSPI   PO410370   4.406  17.059   5.927 -0.1390 -0.0166  0.4928
  693PSPI   GL110371   4.103  17.048   6.191  0.0559  0.2976  0.1257
  693PSPI   GL210372   3.809  17.096   6.235 -0.3190  0.1409  0.4049
  693PSPI   C1A10373   4.177  17.032   6.593 -0.2146 -0.1327 -0.1455
  693PSPI   C2A10374   4.235  17.054   7.055  0.0010 -0.2935 -0.2411
  693PSPI   C3A10375   4.162  17.155   7.564 -0.1343 -0.1239  0.0410
  693PSPI   C4A10376   4.362  17.265   7.871 -0.3384 -0.0229  0.0824
  693PSPI   C1B10377   3.640  17.074   6.577 -0.1338 -0.0579  0.1831
  693PSPI   C2B10378   3.578  17.119   7.032  0.3744  0.1419  0.0485
  693PSPI   C3B10379   3.577  17.104   7.421 -0.0983  0.1987  0.2496
  693PSPI   C4B10380   3.507  17.474   7.671 -0.0523 -0.1935  0.0780
  694POPI    C110381  14.095   7.975   5.425  0.2483  0.1227  0.0789
  694POPI    C210382  14.111   8.266   5.151 -0.0661  0.0968  0.0299
  694POPI    C310383  14.401   7.992   5.169 -0.0087  0.1381 -0.2336
  694POPI   PO410384  14.064   8.111   5.650 -0.3821 -0.0545 -0.3622
  694POPI   GL110385  14.222   8.044   6.102  0.5834  0.2977 -0.2185
  694POPI   GL210386  14.321   8.305   6.106  0.0290 -0.2643 -0.2213
  694POPI   C1A10387  14.279   8.101   6.522  0.0790 -0.0042 -0.0358
  694POPI   D2A10388  14.297   8.187   6.957  0.2354 -0.1104 -0.0491
  694POPI   C3A10389  14.711   8.336   7.174 -0.0724  0.0502  0.0079
  694POPI   C4A10390  14.754   8.448   7.514 -0.5119 -0.0462 -0.3482
  694POPI   C1B10391  14.539   8.508   6.550  0.1378  0.0494  0.1433
  694POPI   C2B10392  14.594   8.730   6.845 -0.0792 -0.4075  0.0029
  694POPI   C3B10393  14.590   8.868   7.202 -0.1338  0.3221 -0.1940
  694POPI   C4B10394  14.857   8.968   7.475  0.6200  0.1712 -0.0012
  695POPI    C110395  16.070   2.426   5.680  0.1498 -0.3389  0.1439
  695POPI    C210396  16.204   2.434   5.303 -0.0404 -0.0111  0.0797
  695POPI    C310397  15.862   2.618   5.397 -0.0264 -0.1441  0.4018
  695POPI   PO410398  16.240   2.245   5.799  0.0860  0.3008 -0.0978
  695POPI   GL110399  16.303   2.267   6.234  0.1407 -0.0991  0.2459
  695POPI   GL210400  16.302   2.353   6.523  0.1363  0.0823  0.1517
  695POPI   C1A10401  15.951   2.051   6.386  0.0117  0.0616  0.0189
  695POPI   D2A10402  15.920   1.991   6.802 -0.2143  0.2533  0.0007
  695POPI   C3A10403  16.205   2.276   7.018  0.1362 -0.1347 -0.3387
  695POPI   C4A10404  16.234   2.512   7.461  0.0617 -0.2023  0.0850
  695POPI   C1B10405  16.569   2.460   6.700 -0.0476 -0.0653 -0.4001
  695POPI   C2B10406  16.629   2.568   7.158 -0.0811 -0.0442  0.1990
  695POPI   C3B10407  16.901   2.817   7.272 -0.2107  0.1552 -0.4548
  695POPI   C4B10408  17.125   2.812   7.578  0.0585  0.0556 -0.2342
  696POPI    C110409  13.227   9.585   6.062 -0.1176 -0.2218  0.0455
  696POPI    C210410  13.516   9.342   5.928 -0.0691 -0.0955 -0.0811
  696POPI    C310411  13.225   9.462   5.681 -0.0728  0.0042 -0.0289
  696POPI   PO410412  12.992   9.546   6.363 -0.1428 -0.0729  0.2443
  696POPI   GL110413  12.959   9.343   6.772  0.0883 -0.2691  0.5081
  696POPI   GL210414  12.642   9.447   6.852  0.4318 -0.3677 -0.0102
  696POPI   C1A10415  13.149   9.614   7.113  0.1609 -0.1487 -0.0058
  696POPI   D2A10416  13.145   9.809   7.429  0.0331  0.3498 -0.1811
  696POPI   C3A10417  13.128  10.189   7.775  0.1167  0.0905  0.1091
  696POPI   C4A10418  13.325  10.449   8.084  0.1253 -0.0845 -0.0945
  696POPI   C1B10419  12.587   9.814   7.129 -0.2103 -0.4577  0.0826
  696POPI   C2B10420  12.682  10.111   7.444  0.0748  0.0335 -0.0138
  696POPI   C3B10421  12.655  10.040   7.831 -0.1875  0.0451  0.4958
  696POPI   C4B10422  12.728  10.232   8.197  0.2049 -0.1210 -0.0859
  697POPI    C110423   7.282   1.114   5.392  0.0898  0.0542  0.2729
  697POPI    C210424   7.491   0.964   5.699  0.1100 -0.1189  0.1761
  697POPI    C310425   7.670   1.024   5.347  0.0021 -0.2517  0.0974
  697POPI   PO410426   6.939   1.130   5.690  0.0908  0.0849  0.1761
  697POPI   GL110427   6.920   1.009   6.131 -0.0029 -0.0265 -0.1444
  697POPI   GL210428   7.159   0.847   6.045 -0.0207 -0.0816 -0.0575
  697POPI   C1A10429   6.767   1.122   6.531  0.1275  0.1096  0.0029
  697POPI   D2A10430   7.120   1.344   6.873 -0.2928 -0.0333  0.1571
  697POPI   C3A10431   6.961   1.451   7.314  0.1842  0.0891 -0.0996
  697POPI   C4A10432   6.684   1.386   7.708  0.2306  0.2552  0.1176
  697POPI   C1B10433   7.091   0.613   6.447  0.4610 -0.1536  0.0692
  697POPI   C2B10434   6.843   0.739   6.829 -0.0895 -0.3501  0.0284
  697POPI   C3B10435   7.038   0.925   7.233 -0.2151  0.2152  0.0225
  697POPI   C4B10436   7.319   1.116   7.354  0.0170 -0.0766  0.0904
  698POPI    C110437   1.376  18.495   5.361  0.0183  0.1138  0.0392
  698POPI    C210438   1.457  18.823   5.148  0.0444  0.1300  0.0740
  698POPI    C310439   1.278  18.511   4.973  0.1948  0.0884 -0.0071
  698POPI   PO410440   1.201  18.642   5.627  0.0697 -0.2284  0.2906
  698POPI   GL110441   1.268  18.777   6.093  0.3717 -0.0163  0.0362
  698POPI   GL210442   1.289  18.418   6.023  0.3813 -0.2471  0.1021
  698POPI   C1A10443   1.017  18.614   6.426  0.1165 -0.1931 -0.0618
  698POPI   D2A10444   0.861  18.461   6.681  0.2786 -0.0717  0.0387
  698POPI   C3A10445   0.737  18.593   6.982  0.3424 -0.0488 -0.0245
  698POPI   C4A10446   0.719  18.147   7.247 -0.0532  0.0428  0.2436
  698POPI   C1B10447   1.210  18.187   6.327 -0.1676 -0.0883 -0.0454
  698POPI   C2B10448   1.215  18.124   6.844  0.1498  0.0511  0.1489
  698POPI   C3B10449   1.196  18.504   7.081 -0.0481  0.1020 -0.0520
  698POPI   C4B10450   1.372  18.874   7.243  0.1092  0.1308 -0.2953
  699POPI    C110451   4.881  12.755   4.933 -0.0806 -0.0760  0.0629
  699POPI    C210452   4.941  12.420   4.723 -0.2285  0.0791 -0.2330
  699POPI    C310453   4.571  12.564   4.768 -0.1737  0.1642 -0.0441
  699POPI   PO410454   5.043  12.705   5.147  0.2506  0.1762 -0.4469
  699POPI   GL110455   4.931  12.589   5.551 -0.3215 -0.0112  0.0739
  699POPI   GL210456   4.924  12.305   5.628 -0.1172  0.1166  0.0242
  699POPI   C1A10457   5.297  12.505   5.911  0.0015 -0.0249 -0.0039
  699POPI   D2A10458   5.416  12.144   6.206  0.1184 -0.0291  0.0099
  699POPI   C3A10459   5.639  11.981   6.547 -0.1154  0.1326 -0.0084
  699POPI   C4A10460   6.113  11.828   6.746  0.0989 -0.4282  0.3550
  699POPI   C1B10461   4.911  12.290   6.095 -0.0428  0.2931 -0.0185
  699POPI   C2B10462   4.602  12.326   6.459 -0.1381  0.2456 -0.0304
  699POPI   C3B10463   4.775  12.424   6.818 -0.0251 -0.0501 -0.0111
  699POPI   C4B10464   4.978  12.643   7.101 -0.0120  0.0020 -0.0229
  700POPI    C110465  15.926  13.059   5.373 -0.0862  0.0216 -0.2231
  700POPI    C210466  16.137  12.744   5.247 -0.1674 -0.0158 -0.2665
  700POPI    C310467  16.227  13.110   5.115  0.1249  0.0202  0.0195
  700POPI   PO410468  15.865  13.029   5.638  0.0489  0.0717 -0.1291
  700POPI   GL110469  15.714  13.076   6.063 -0.0648  0.0543  0.1437
  700POPI   GL210470  15.900  12.740   6.059  0.1560 -0.0487  0.0083
  700POPI   C1A10471  15.947  12.883   6.535 -0.0886  0.1357  0.1348
  700POPI   D2A10472  16.283  12.911   6.890  0.3163  0.0759 -0.0137
  700POPI   C3A10473  16.407  12.773   7.328  0.1996 -0.3716 -0.1164
  700POPI   C4A10474  16.732  12.734   7.581 -0.1052  0.0574  0.4501
  700POPI   C1B10475  16.205  12.459   6.215 -0.0270 -0.2934  0.1610
  700POPI   C2B10476  16.208  12.432   6.609  0.1859  0.0420  0.2409
  700POPI   C3B10477  16.104  12.460   7.028  0.0227 -0.0157  0.0200
  700POPI   C4B10478  15.595  12.414   7.280 -0.2762 -0.0265 -0.0298
  701POPI    C110479  13.671  16.347   5.262  0.0065 -0.0074 -0.1698
  701POPI    C210480  13.530  16.720   5.226  0.3455  0.1423  0.0057
  701POPI    C310481  13.696  16.537   4.911  0.0789  0.0959 -0.1097
  701POPI   PO410482  13.828  16.318   5.478  0.0290  0.0462 -0.3354
  701POPI   GL110483  14.020  16.448   5.843  0.1523 -0.2338 -0.0009
  701POPI   GL210484  14.177  16.708   6.007 -0.2391  0.3904  0.3375
  701POPI   C1A10485  13.877  16.427   6.277  0.2928 -0.1055  0.1956
  701POPI   D2A10486  13.524  16.272   6.481 -0.0645 -0.0471 -0.1885
  701POPI   C3A10487  13.341  16.455   6.850  0.1307 -0.1844 -0.1216
  701POPI   C4A10488  13.051  16.648   7.176 -0.0356  0.0814  0.0793
  701POPI   C1B10489  14.372  16.535   6.320  0.1979 -0.0743  0.0506
  701POPI   C2B10490  14.316  16.720   6.756  0.0132  0.0818  0.1220
  701POPI   C3B10491  14.098  16.663   7.161 -0.1025 -0.1121  0.1548
  701POPI   C4B10492  13.867  17.025   7.373  0.1280  0.2822  0.2010
  702POPI    C110493   2.149  10.218   4.850  0.0905  0.0535 -0.2676
  702POPI    C210494   1.964   9.881   4.737  0.0775 -0.0709  0.1123
  702POPI    C310495   2.361   9.913   4.702  0.0544 -0.0359 -0.1365
  702POPI   PO410496   1.980  10.243   5.072 -0.1519 -0.2298  0.1517
  702POPI   GL110497   2.044  10.286   5.510 -0.0920  0.0249  0.2736
  702POPI   GL210498   1.773  10.190   5.627 -0.0989 -0.3837  0.0938
  702POPI   C1A10499   2.323  10.106   5.735 -0.0094 -0.2296 -0.0245
  702POPI   D2A10500   2.391   9.701   5.933 -0.1436 -0.4030 -0.1827
  702POPI   C3A10501   2.641   9.638   6.164 -0.1212 -0.1419 -0.0405
  702POPI   C4A10502   2.672   9.732   6.673  0.0645 -0.0469 -0.1779
  702POPI   C1B10503   1.500  10.123   5.948  0.0250  0.5929  0.4131
  702POPI   C2B10504   1.359  10.367   6.202  0.0490 -0.2349 -0.0638
  702POPI   C3B10505   1.212  10.580   6.528 -0.0402 -0.2731  0.1856
  702POPI   C4B10506   0.880  10.587   6.813  0.2189  0.1480 -0.1385
  703POPI    C110507   0.329   5.283   4.968  0.1390  0.1958  0.1697
  703POPI    C210508   0.651   5.077   4.849 -0.0988 -0.0640 -0.0345
  703POPI    C310509   0.539   5.405   4.650 -0.0019 -0.0133 -0.0060
  703POPI   PO410510   0.384   5.241   5.305  0.2897  0.1437  0.1163
  703POPI   GL110511   0.633   5.304   5.682  0.0442 -0.1685  0.0313
  703POPI   GL210512   0.724   5.663   5.626 -0.0650  0.0539 -0.1144
  703POPI   C1A10513   0.608   5.357   6.152  0.0573 -0.0911 -0.0413
  703POPI   D2A10514   0.637   5.491   6.672  0.2013 -0.2874  0.1682
  703POPI   C3A10515   0.767   5.351   7.067 -0.3299  0.1161 -0.1571
  703POPI   C4A10516   0.759   5.133   7.418  0.1994  0.2359  0.1581
  703POPI   C1B10517   1.002   5.615   6.022 -0.0360  0.0339 -0.0559
  703POPI   C2B10518   1.162   5.468   6.508  0.1928 -0.0273 -0.2726
  703POPI   C3B10519   1.177   5.557   6.822  0.1347 -0.1203  0.0892
  703POPI   C4B10520   1.185   5.463   7.311  0.5239  0.0295 -0.2604
  704POPI    C110521  13.157   8.476   5.863 -0.0573 -0.2316  0.2374
  704POPI    C210522  12.856   8.337   5.640 -0.0668 -0.0717  0.1497
  704POPI    C310523  13.132   8.577   5.477  0.1040 -0.2106  0.2317
  704POPI   PO410524  13.129   8.259   6.031 -0.2605 -0.1533 -0.3789
  704POPI   GL110525  12.821   8.158   6.362 -0.0526  0.2064 -0.0352
  704POPI   GL210526  12.611   8.356   6.488 -0.0519 -0.0734 -0.2256
  704POPI   C1A10527  12.852   7.919   6.730 -0.3637  0.3343  0.0846
  704POPI   D2A10528  13.050   7.592   7.007  0.2167 -0.0207 -0.5165
  704POPI   C3A10529  13.392   7.730   7.270  0.0753  0.1916 -0.0599
  704POPI   C4A10530  13.475   7.702   7.702 -0.1296 -0.2668 -0.3656
  704POPI   C1B10531  12.632   8.391   6.898  0.0581 -0.1037 -0.1547
  704POPI   C2B10532  12.868   8.529   7.244  0.2869 -0.1424 -0.1152
  704POPI   C3B10533  12.699   8.850   7.617 -0.0915  0.0090 -0.3818
  704POPI   C4B10534  12.373   9.204   7.695 -0.0372 -0.0448 -0.0584
  705POPI    C110535  12.014   1.753   5.880  0.0322 -0.3391  0.2209
  705POPI    C210536  11.769   1.467   5.744  0.0422 -0.2049 -0.0882
  705POPI    C310537  11.719   1.846   5.627  0.1200 -0.1016  0.2035
  705POPI   PO410538  12.117   1.642   6.152  0.0666 -0.1019 -0.0015
  705POPI   GL110539  12.150   1.729   6.568 -0.1964 -0.0563  0.1132
  705POPI   GL210540  11.815   1.808   6.496  0.1016 -0.0827 -0.0754
  705POPI   C1A10541  12.321   1.704   6.870  0.0277  0.1534  0.0810
  705POPI   D2A10542  12.579   1.840   7.229  0.2930 -0.3221 -0.1170
  705POPI   C3A10543  12.479   1.897   7.590 -0.0362 -0.1266 -0.1670
  705POPI   C4A10544  12.462   2.400   7.589 -0.1940  0.1427 -0.0100
  705POPI   C1B10545  11.826   1.764   6.925  0.0876  0.1461  0.0762
  705POPI   C2B10546  12.067   1.620   7.340  0.1281 -0.0193  0.2643
  705POPI   C3B10547  12.051   1.322   7.547 -0.2196 -0.1527  0.0053
  705POPI   C4B10548  12.065   1.186   7.850  0.1712 -0.0111 -0.5619
  706POPI    C110549   2.638  15.757   5.442  0.0059  0.0950 -0.0294
  706POPI    C210550   2.952  15.952   5.290  0.0087  0.2294  0.1459
  706POPI    C310551   2.600  16.138   5.328 -0.1043  0.0679 -0.0852
  706POPI   PO410552   2.846  15.640   5.639  0.0206  0.1953  0.0123
  706POPI   GL110553   2.972  15.713   5.971 -0.0328  0.0430  0.2905
  706POPI   GL210554   3.224  15.576   6.138  0.2432 -0.0462 -0.2076
  706POPI   C1A10555   2.968  15.753   6.457  0.5600  0.3190 -0.3063
  706POPI   D2A10556   2.716  15.671   6.754 -0.0010  0.0033 -0.0251
  706POPI   C3A10557   2.753  15.379   7.032 -0.0822  0.3503  0.2173
  706POPI   C4A10558   3.134  15.328   7.362 -0.0498  0.0411 -0.1216
  706POPI   C1B10559   3.444  15.526   6.579  0.1051 -0.2240  0.1560
  706POPI   C2B10560   3.202  15.585   6.946  0.2221 -0.0205  0.0009
  706POPI   C3B10561   2.991  15.956   7.076  0.0101 -0.1720 -0.0056
  706POPI   C4B10562   2.999  16.137   7.485  0.2359  0.1041 -0.2460
  707POPI    C110563   2.750  13.890   5.126  0.1010  0.2368 -0.1337
  707POPI    C210564   3.146  13.946   5.137  0.1464 -0.0772 -0.0850
  707POPI    C310565   2.989  13.679   4.884 -0.0467  0.1317 -0.1891
  707POPI   PO410566   2.719  13.955   5.411 -0.2040  0.0771  0.3401
  707POPI   GL110567   2.842  13.794   5.847 -0.1465  0.2783  0.3424
  707POPI   GL210568   3.057  13.929   5.750 -0.1678 -0.2087  0.0318
  707POPI   C1A10569   3.037  13.800   6.253  0.0714  0.0573  0.3907
  707POPI   D2A10570   3.128  14.024   6.639  0.0776  0.1815 -0.0733
  707POPI   C3A10571   2.974  13.857   6.995 -0.3820 -0.2667  0.0288
  707POPI   C4A10572   2.729  13.582   7.217 -0.1769 -0.1948 -0.0162
  707POPI   C1B10573   3.437  13.694   5.914 -0.1017 -0.0168 -0.0054
  707POPI   C2B10574   3.667  13.739   6.340  0.0253  0.0873  0.1282
  707POPI   C3B10575   3.762  13.890   6.752  0.2520  0.1232  0.1184
  707POPI   C4B10576   3.695  13.970   7.149 -0.3539  0.2566 -0.1741
  708POPI    C110577  13.943   8.620   5.655  0.0860  0.1518 -0.0620
  708POPI    C210578  13.970   8.913   5.384 -0.1164  0.1774 -0.0561
  708POPI    C310579  13.762   8.582   5.301 -0.0256  0.1060 -0.0005
  708POPI   PO410580  14.105   8.643   5.855 -0.0889  0.2470  0.0208
  708POPI   GL110581  14.075   8.942   6.303  0.3266 -0.1934  0.0938
  708POPI   GL210582  14.051   8.597   6.443  0.2229 -0.3896  0.0130
  708POPI   C1A10583  14.321   9.099   6.682  0.2026 -0.2003  0.1988
  708POPI   D2A10584  14.425   9.338   6.890  0.1650  0.2513 -0.1654
  708POPI   C3A10585  14.421   9.383   7.310 -0.0261 -0.1564  0.0937
  708POPI   C4A10586  14.706   9.386   7.669 -0.0242 -0.1059  0.1938
  708POPI   C1B10587  14.120   8.653   6.857 -0.0075 -0.1004 -0.1692
  708POPI   C2B10588  14.184   8.589   7.217 -0.1596  0.4243 -0.1900
  708POPI   C3B10589  14.232   8.505   7.620 -0.1051 -0.0907 -0.1754
  708POPI   C4B10590  14.002   8.783   7.946  0.1457 -0.0459  0.0216
  709POPI    C110591  13.827  11.330   5.586 -0.1071 -0.1020 -0.1612
  709POPI    C210592  13.531  11.535   5.760  0.0367 -0.1018  0.0890
  709POPI    C310593  13.471  11.358   5.406 -0.1683  0.1501 -0.0061
  709POPI   PO410594  13.966  11.328   5.954 -0.0513 -0.0752 -0.1731
  709POPI   GL110595  14.067  11.636   6.188 -0.0538  0.1229 -0.2350
  709POPI   GL210596  13.700  11.612   6.266 -0.2163  0.0114 -0.1086
  709POPI   C1A10597  13.959  11.825   6.613 -0.0344  0.0889 -0.3479
  709POPI   D2A10598  14.049  11.761   7.035  0.0251  0.0723  0.0211
  709POPI   C3A10599  14.376  11.662   7.193  0.0488 -0.3425 -0.2791
  709POPI   C4A10600  14.675  11.302   7.194 -0.2154  0.2992 -0.3307
  709POPI   C1B10601  13.543  11.527   6.733  0.1135 -0.3394 -0.2907
  709POPI   C2B10602  13.514  11.548   7.166  0.2435 -0.2391  0.1931
  709POPI   C3B10603  13.843  11.635   7.459  0.2523  0.1312 -0.0684
  709POPI   C4B10604  14.220  11.533   7.746  0.2404  0.0312 -0.0671
  710POPI    C110605   9.002   3.785   5.787 -0.1143 -0.0326 -0.0631
  710POPI    C210606   8.642   3.868   5.632 -0.0964 -0.0963 -0.1400
  710POPI    C310607   8.969   4.045   5.485 -0.1203  0.1429  0.0875
  710POPI   PO410608   9.093   3.904   6.077  0.2735  0.3745 -0.0884
  710POPI   GL110609   9.212   3.923   6.531 -0.1767 -0.2058  0.1238
  710POPI   GL210610   8.895   3.753   6.522 -0.0064  0.0584  0.1164
  710POPI   C1A10611   9.446   3.695   6.860  0.1602  0.4312 -0.0289
  710POPI   D2A10612   9.389   3.417   7.199  0.1538  0.0527  0.2081
  710POPI   C3A10613   9.088   3.604   7.488  0.0540  0.1714  0.0687
  710POPI   C4A10614   8.923   3.826   7.919  0.0388  0.2008 -0.1308
  710POPI   C1B10615   8.924   3.707   6.959 -0.0293 -0.0855  0.1844
  710POPI   C2B10616   9.064   4.026   7.291 -0.2655 -0.2359  0.0049
  710POPI   C3B10617   9.088   4.224   7.568  0.2723  0.0666  0.0622
  710POPI   C4B10618   9.291   4.463   7.785  0.0210 -0.0768 -0.0379
  711POPI    C110619  16.463   9.204   4.913  0.1237  0.0125 -0.1325
  711POPI    C210620  16.158   9.458   4.867 -0.0533 -0.1825 -0.0573
  711POPI    C310621  16.148   9.100   4.690  0.1663 -0.1634 -0.1120
  711POPI   PO410622  16.488   9.153   5.278 -0.4668  0.1999  0.5185
  711POPI   GL110623  16.340   9.224   5.669 -0.0785  0.0905  0.0979
  711POPI   GL210624  16.063   9.070   5.882 -0.0092 -0.1302 -0.4233
  711POPI   C1A10625  16.379   9.624   5.992  0.1944  0.2438  0.0801
  711POPI   D2A10626  16.419   9.962   6.297 -0.0213 -0.0426 -0.2576
  711POPI   C3A10627  16.467   9.843   6.704  0.1099  0.0477  0.0612
  711POPI   C4A10628  16.281   9.774   7.124 -0.0209  0.0510 -0.1523
  711POPI   C1B10629  16.080   9.094   6.375  0.0863 -0.0683  0.0016
  711POPI   C2B10630  16.176   9.016   6.839 -0.0506 -0.1949  0.0145
  711POPI   C3B10631  16.569   8.886   7.047 -0.0789 -0.1980 -0.1402
  711POPI   C4B10632  16.630   8.682   7.463  0.0276  0.1492 -0.2078
  712POPI    C110633   9.329   6.101   5.946  0.1685 -0.2108 -0.1276
  712POPI    C210634   9.281   6.476   5.815 -0.0537 -0.3159 -0.3559
  712POPI    C310635   9.585   6.254   5.679  0.1854 -0.1620 -0.0834
  712POPI   PO410636   9.332   6.147   6.221 -0.5007 -0.0322 -0.2424
  712POPI   GL110637   9.276   6.166   6.643 -0.2487  0.1935 -0.0258
  712POPI   GL210638   9.292   5.852   6.615  0.1396  0.0417  0.0218
  712POPI   C1A10639   8.902   6.223   6.797  0.2522 -0.0125  0.2949
  712POPI   D2A10640   8.846   6.239   7.205 -0.1037 -0.2711  0.0160
  712POPI   C3A10641   8.583   6.552   7.309 -0.2996 -0.1487  0.0967
  712POPI   C4A10642   8.176   6.585   7.283 -0.0757 -0.0778  0.4470
  712POPI   C1B10643   9.204   5.863   7.004 -0.0581  0.1303 -0.0050
  712POPI   C2B10644   9.120   5.929   7.471 -0.0893  0.0940  0.1150
  712POPI   C3B10645   8.947   6.278   7.778 -0.1091 -0.1670 -0.0064
  712POPI   C4B10646   8.852   6.287   8.229  0.2403  0.0296 -0.0363
  713POPI    C110647   0.822  11.039   5.133 -0.1820 -0.0885 -0.0677
  713POPI    C210648   1.123  10.991   4.874 -0.0096  0.0127  0.1108
  713POPI    C310649   0.767  10.824   4.800  0.1335 -0.2386 -0.0270
  713POPI   PO410650   1.018  11.038   5.416  0.3343  0.0352  0.1149
  713POPI   GL110651   1.072  11.301   5.696  0.2078 -0.4917 -0.2567
  713POPI   GL210652   1.394  11.139   5.837  0.0884 -0.4197 -0.1143
  713POPI   C1A10653   0.740  11.305   6.003 -0.1745 -0.1149 -0.2972
  713POPI   D2A10654   0.677  11.390   6.461  0.1240 -0.0797 -0.3143
  713POPI   C3A10655   0.330  11.390   6.748 -0.0844  0.2689  0.1139
  713POPI   C4A10656   0.275  11.455   7.204  0.2869  0.0886  0.2052
  713POPI   C1B10657   1.558  10.847   6.206  0.0779 -0.0309  0.0802
  713POPI   C2B10658   1.689  10.682   6.550 -0.1135 -0.2988 -0.2757
  713POPI   C3B10659   1.734  10.466   6.993  0.1732  0.1240 -0.1721
  713POPI   C4B10660   1.650  10.182   7.334 -0.1083 -0.0139  0.3820
  714POPI    C110661  15.062  16.041   5.329  0.1566 -0.1649 -0.0562
  714POPI    C210662  15.310  16.240   5.086  0.1753 -0.1907 -0.0582
  714POPI    C310663  14.951  16.124   4.954  0.1211 -0.0644 -0.0239
  714POPI   PO410664  15.268  16.144   5.569 -0.0189 -0.0079  0.0283
  714POPI   GL110665  15.197  15.999   5.868 -0.0494  0.0689 -0.3599
  714POPI   GL210666  15.545  15.827   5.898  0.1298 -0.2594  0.0042
  714POPI   C1A10667  15.091  15.855   6.349  0.0568 -0.1757  0.1542
  714POPI   D2A10668  14.982  16.181   6.729 -0.1470 -0.1479  0.1443
  714POPI   C3A10669  14.834  16.531   6.547  0.0053  0.0367 -0.0678
  714POPI   C4A10670  14.855  16.393   6.173 -0.2494 -0.1655  0.2452
  714POPI   C1B10671  15.558  15.745   6.300 -0.0057  0.2055  0.1584
  714POPI   C2B10672  15.436  15.776   6.843  0.0997  0.0644  0.3743
  714POPI   C3B10673  15.257  15.900   7.195 -0.1781 -0.0800  0.0397
  714POPI   C4B10674  14.974  16.224   7.241 -0.1656  0.0528 -0.0909
  715POPI    C110675   3.854   2.482   6.048 -0.0518 -0.1769  0.1470
  715POPI    C210676   3.485   2.599   5.946  0.0988  0.2513  0.0747
  715POPI    C310677   3.549   2.223   6.067 -0.3121  0.0981 -0.1632
  715POPI   PO410678   3.927   2.622   6.187  0.0122  0.0355 -0.2774
  715POPI   GL110679   4.026   2.579   6.609  0.0436 -0.1311  0.0032
  715POPI   GL210680   3.977   2.269   6.503  0.1715  0.1667 -0.2878
  715POPI   C1A10681   4.134   2.787   6.985  0.0304 -0.2210  0.2468
  715POPI   D2A10682   4.373   2.933   7.372 -0.1331 -0.0183 -0.3418
  715POPI   C3A10683   4.740   3.044   7.324  0.3003  0.1237  0.1256
  715POPI   C4A10684   4.981   3.369   7.181  0.1943  0.0470 -0.1580
  715POPI   C1B10685   4.191   2.183   6.929  0.1768  0.1801 -0.0750
  715POPI   C2B10686   4.213   2.423   7.325  0.2460  0.1191  0.2749
  715POPI   C3B10687   4.194   2.549   7.714  0.0684 -0.1555  0.1107
  715POPI   C4B10688   4.058   2.458   8.124 -0.2472 -0.0023 -0.1996
  716POPI    C110689  16.023  15.571   5.576 -0.0121 -0.2102 -0.0544
  716POPI    C210690  16.417  15.513   5.607  0.0472  0.1034 -0.1881
  716POPI    C310691  16.233  15.456   5.256 -0.0422 -0.1207 -0.1065
  716POPI   PO410692  16.029  15.768   5.746 -0.1248 -0.3778  0.1254
  716POPI   GL110693  15.971  16.070   5.980  0.2429  0.3303  0.3284
  716POPI   GL210694  15.989  16.432   6.038 -0.2579 -0.0350 -0.2617
  716POPI   C1A10695  16.233  16.013   6.347 -0.1156 -0.0633  0.0881
  716POPI   D2A10696  16.309  16.192   6.758  0.2054 -0.3240  0.0874
  716POPI   C3A10697  16.448  15.929   7.077 -0.2542 -0.2030 -0.1472
  716POPI   C4A10698  16.168  15.569   7.083  0.1296 -0.0732 -0.0262
  716POPI   C1B10699  16.368  16.422   6.176 -0.2666 -0.1971  0.2027
  716POPI   C2B10700  16.502  16.612   6.564 -0.1309  0.2815 -0.0594
  716POPI   C3B10701  16.234  16.811   6.850 -0.0142 -0.2772  0.3390
  716POPI   C4B10702  15.981  16.617   7.172 -0.1779 -0.2912 -0.0602
  717POPI    C110703  15.000   2.313   5.574 -0.0514 -0.2194 -0.0038
  717POPI    C210704  15.230   2.032   5.407  0.1627 -0.0111 -0.0640
  717POPI    C310705  14.865   2.105   5.260  0.0668 -0.3215  0.0123
  717POPI   PO410706  15.037   2.287   5.786 -0.0992  0.0601  0.0218
  717POPI   GL110707  14.995   2.080   6.170  0.1604 -0.2418 -0.1072
  717POPI   GL210708  14.735   1.988   6.171 -0.1846  0.2232 -0.1254
  717POPI   C1A10709  15.060   2.338   6.579  0.0568  0.3717  0.3861
  717POPI   D2A10710  14.876   2.307   6.957  0.0924 -0.4647  0.1585
  717POPI   C3A10711  15.045   2.165   7.281 -0.3434 -0.1964  0.0293
  717POPI   C4A10712  15.338   2.229   7.580  0.2254  0.0503 -0.0521
  717POPI   C1B10713  14.641   1.662   6.399  0.0261  0.2227  0.0976
  717POPI   C2B10714  14.454   1.567   6.786 -0.3394 -0.1083  0.2342
  717POPI   C3B10715  14.624   1.270   7.031  0.3720 -0.0557  0.1033
  717POPI   C4B10716  15.071   1.233   7.229 -0.0141  0.3868  0.3016
  718POPI    C110717  16.334  13.982   5.281  0.0845  0.0743  0.0026
  718POPI    C210718  16.714  14.019   5.160  0.1064  0.2290  0.1156
  718POPI    C310719  16.417  14.157   4.931  0.1050 -0.0496 -0.0551
  718POPI   PO410720  16.347  13.876   5.583 -0.0320  0.0479  0.0845
  718POPI   GL110721  16.068  13.827   5.941 -0.0434 -0.3492 -0.0863
  718POPI   GL210722  15.828  13.904   6.088 -0.3786  0.0463 -0.1394
  718POPI   C1A10723  16.207  13.738   6.334 -0.3235 -0.0351  0.1516
  718POPI   D2A10724  16.168  13.461   6.582 -0.3458 -0.1662 -0.0974
  718POPI   C3A10725  16.523  13.312   6.814 -0.0175 -0.1571 -0.0150
  718POPI   C4A10726  16.857  12.994   7.146  0.0783 -0.1340 -0.1806
  718POPI   C1B10727  15.708  13.533   6.301  0.1882  0.2054  0.1717
  718POPI   C2B10728  15.629  13.300   6.572  0.2887 -0.3043  0.0271
  718POPI   C3B10729  15.542  13.074   6.869 -0.0307 -0.3168  0.1392
  718POPI   C4B10730  15.246  12.962   7.061 -0.0195 -0.0558  0.0903
  719POPI    C110731   4.627  11.021   5.207 -0.2272 -0.3349  0.1533
  719POPI    C210732   4.661  11.104   5.597  0.0825  0.1074  0.0400
  719POPI    C310733   4.520  11.381   5.346 -0.1169 -0.1752 -0.1659
  719POPI   PO410734   4.526  10.750   5.212  0.0109 -0.0383 -0.2790
  719POPI   GL110735   4.443  10.541   5.533  0.2049 -0.1457 -0.0082
  719POPI   GL210736   4.276  10.636   5.803  0.1497  0.0316 -0.2061
  719POPI   C1A10737   4.689  10.340   5.817 -0.1363  0.0717  0.0137
  719POPI   D2A10738   4.955  10.420   6.095 -0.1851  0.2681  0.0002
  719POPI   C3A10739   4.869  10.313   6.523 -0.0967  0.0570 -0.0178
  719POPI   C4A10740   4.828  10.391   6.924  0.2069 -0.0689  0.0859
  719POPI   C1B10741   4.409  10.386   6.269 -0.0456  0.2942 -0.0895
  719POPI   C2B10742   4.406  10.438   6.652  0.2555 -0.0785  0.0991
  719POPI   C3B10743   4.336  10.393   7.048 -0.0718  0.0232  0.1394
  719POPI   C4B10744   4.558  10.372   7.422  0.0500 -0.1250 -0.1506
  720POPI    C110745   9.382  15.665   6.339  0.0643 -0.1354 -0.0617
  720POPI    C210746   9.566  15.505   6.022 -0.0866 -0.0726 -0.1820
  720POPI    C310747   9.523  15.902   6.050 -0.0422 -0.0757 -0.0653
  720POPI   PO410748   9.207  15.493   6.384 -0.0080 -0.2517 -0.0352
  720POPI   GL110749   8.892  15.574   6.682  0.0486 -0.0990 -0.3596
  720POPI   GL210750   8.736  15.781   6.672 -0.0943 -0.3923  0.0167
  720POPI   C1A10751   8.941  15.333   7.057 -0.2890 -0.0290  0.0740
  720POPI   D2A10752   9.143  15.036   7.277 -0.2624  0.1705 -0.1083
  720POPI   C3A10753   9.405  15.001   7.569 -0.1709  0.0628 -0.0083
  720POPI   C4A10754   9.627  15.080   7.908  0.1890  0.1511  0.0355
  720POPI   C1B10755   8.513  15.596   7.031  0.1235  0.1382 -0.1266
  720POPI   C2B10756   8.288  15.597   7.409  0.0904 -0.1497  0.1227
  720POPI   C3B10757   8.185  15.911   7.707 -0.2182 -0.0652 -0.2580
  720POPI   C4B10758   8.160  16.223   7.998  0.2821 -0.1408  0.3246
  721POPI    C110759   9.190   9.215   5.771  0.0763 -0.1949 -0.0146
  721POPI    C210760   9.243   9.503   5.498  0.0659 -0.1201  0.0616
  721POPI    C310761   9.548   9.391   5.732  0.0199 -0.0376  0.1618
  721POPI   PO410762   8.992   9.284   6.019  0.3595  0.3323 -0.6011
  721POPI   GL110763   8.750   9.709   6.283  0.1787 -0.0269 -0.0403
  721POPI   GL210764   8.961   9.558   6.435 -0.0490  0.1491  0.2744
  721POPI   C1A10765   8.425   9.738   6.554  0.0129  0.1988 -0.0409
  721POPI   D2A10766   8.170   9.920   6.978 -0.1376 -0.0164 -0.1961
  721POPI   C3A10767   8.346   9.977   7.322  0.0168 -0.0504 -0.1497
  721POPI   C4A10768   8.437  10.020   7.794 -0.0032  0.0160 -0.0670
  721POPI   C1B10769   9.168   9.775   6.739 -0.0009  0.0055 -0.0257
  721POPI   C2B10770   9.692   9.852   6.848 -0.0931  0.2064 -0.1293
  721POPI   C3B10771   9.974   9.538   7.057 -0.0788 -0.0105 -0.0363
  721POPI   C4B10772  10.218   9.342   6.848 -0.3104 -0.0675  0.1952
  722POPI    C110773   8.842   2.245   6.107  0.1262  0.0587  0.2787
  722POPI    C210774   9.075   2.349   5.799 -0.0626 -0.1088  0.0768
  722POPI    C310775   8.795   2.066   5.753 -0.3081  0.0891  0.3150
  722POPI   PO410776   8.665   2.440   6.307 -0.2251 -0.2937  0.1127
  722POPI   GL110777   8.852   2.449   6.722 -0.2461  0.3286  0.0956
  722POPI   GL210778   8.606   2.343   6.820  0.0755 -0.3502  0.0726
  722POPI   C1A10779   8.935   2.661   7.034 -0.0308  0.0150 -0.0345
  722POPI   D2A10780   9.004   2.650   7.434  0.0121  0.0266 -0.2759
  722POPI   C3A10781   8.869   2.875   7.793  0.0210 -0.1791 -0.0221
  722POPI   C4A10782   8.542   2.990   8.206 -0.1526  0.3571 -0.0624
  722POPI   C1B10783   8.531   2.307   7.229 -0.5664  0.2776 -0.2333
  722POPI   C2B10784   8.340   2.456   7.598 -0.0480  0.1989 -0.0216
  722POPI   C3B10785   8.212   2.072   7.923 -0.3662  0.2283  0.1072
  722POPI   C4B10786   8.252   1.860   8.295 -0.0043  0.2214 -0.2100
  723POPI    C110787   8.811  14.760   6.100 -0.0319 -0.3513 -0.2040
  723POPI    C210788   9.009  14.963   5.817 -0.1576  0.3311  0.1743
  723POPI    C310789   8.619  14.886   5.773 -0.0643 -0.0310 -0.0656
  723POPI   PO410790   8.924  14.788   6.340  0.0504 -0.1576  0.1218
  723POPI   GL110791   8.910  14.577   6.785  0.1737  0.0608  0.2008
  723POPI   GL210792   9.153  14.507   6.771  0.0475  0.0235 -0.1129
  723POPI   C1A10793   8.796  14.702   7.184  0.1604  0.0682 -0.0673
  723POPI   D2A10794   8.598  14.711   7.650  0.1431  0.1422 -0.0871
  723POPI   C3A10795   8.399  14.338   7.871  0.1925  0.1113  0.1386
  723POPI   C4A10796   8.258  14.119   8.196  0.1254 -0.0179  0.1572
  723POPI   C1B10797   9.269  14.558   7.299 -0.0305 -0.0036  0.1929
  723POPI   C2B10798   9.131  14.560   7.671 -0.0245 -0.1214  0.2286
  723POPI   C3B10799   8.899  14.366   7.974  0.0610 -0.0322 -0.2370
  723POPI   C4B10800   8.856  14.229   8.486 -0.1522 -0.1307  0.0645
  724POPI    C110801   0.286   0.257   5.178  0.1339 -0.0891  0.0092
  724POPI    C210802  -0.054   0.047   5.183  0.0779 -0.0005 -0.0613
  724POPI    C310803   0.275  -0.111   5.021  0.0209 -0.0121 -0.1664
  724POPI   PO410804   0.217   0.456   5.397  0.2531  0.0346  0.1883
  724POPI   GL110805   0.460   0.719   5.803  0.2433  0.0951 -0.1765
  724POPI   GL210806   0.339   0.367   5.871 -0.3557 -0.0138 -0.0357
  724POPI   C1A10807   0.101   0.956   6.030  0.2270 -0.0602 -0.3360
  724POPI   D2A10808  -0.133   1.386   6.058  0.1135 -0.1519 -0.1521
  724POPI   C3A10809  -0.399   1.357   6.385 -0.2285 -0.1496 -0.0431
  724POPI   C4A10810  -0.432   1.246   6.832 -0.1050 -0.5187 -0.1858
  724POPI   C1B10811   0.460   0.354   6.337  0.1413 -0.0909  0.1394
  724POPI   C2B10812   0.478   0.512   6.740 -0.1221  0.2633  0.0539
  724POPI   C3B10813   0.350   0.405   7.137  0.1626 -0.0765 -0.1284
  724POPI   C4B10814   0.383   0.230   7.481  0.0568  0.1920  0.1841
  725POPI    C110815   4.371  15.810   5.378 -0.0577 -0.2454 -0.1756
  725POPI    C210816   4.658  16.010   5.186 -0.1308  0.1164  0.0820
  725POPI    C310817   4.274  16.076   5.097 -0.1660  0.3038  0.3605
  725POPI   PO410818   4.422  15.928   5.611  0.1261 -0.1053 -0.0828
  725POPI   GL110819   4.568  16.062   6.109  0.2123  0.0943 -0.1221
  725POPI   GL210820   4.559  15.716   6.074 -0.0502  0.2172 -0.1147
  725POPI   C1A10821   4.586  15.959   6.538  0.1410 -0.3091 -0.0599
  725POPI   D2A10822   4.587  15.952   7.006 -0.0503 -0.3716  0.2962
  725POPI   C3A10823   4.397  15.894   7.288 -0.2210  0.4290  0.1836
  725POPI   C4A10824   4.461  16.197   7.612  0.0904 -0.2951  0.2304
  725POPI   C1B10825   4.363  15.506   6.422  0.2475  0.0372  0.1365
  725POPI   C2B10826   4.483  15.488   6.886  0.0125 -0.1723  0.1673
  725POPI   C3B10827   4.546  15.263   7.274 -0.0119 -0.0356 -0.1166
  725POPI   C4B10828   4.206  15.347   7.589  0.0815 -0.0245 -0.1742
  726POPI    C110829   1.480   8.525   5.067  0.2045  0.4378 -0.0003
  726POPI    C210830   1.830   8.332   5.086 -0.1372 -0.2144 -0.0348
  726POPI    C310831   1.714   8.503   4.743  0.0145 -0.2563 -0.1080
  726POPI   PO410832   1.548   8.684   5.342  0.1331  0.1191 -0.0795
  726POPI   GL110833   1.777   8.575   5.805  0.2298  0.0446  0.0715
  726POPI   GL210834   1.785   8.959   5.771  0.0705  0.2193 -0.4312
  726POPI   C1A10835   2.136   8.706   5.982  0.1374  0.0509 -0.1483
  726POPI   D2A10836   2.499   8.491   5.918 -0.1341 -0.0243  0.1064
  726POPI   C3A10837   2.764   8.109   6.114 -0.1881 -0.0126 -0.0271
  726POPI   C4A10838   2.812   7.942   6.485  0.0126 -0.4301 -0.2376
  726POPI   C1B10839   1.593   9.037   6.110  0.0981 -0.1915  0.1193
  726POPI   C2B10840   1.514   8.989   6.621  0.0901 -0.0881  0.5638
  726POPI   C3B10841   1.368   8.964   6.976 -0.3696  0.0937 -0.0297
  726POPI   C4B10842   1.324   9.284   7.285 -0.1141  0.2913 -0.2429
  727POPI    C110843  17.346  15.085   5.434  0.2350  0.1672  0.0920
  727POPI    C210844  17.189  15.453   5.458  0.4134  0.2385  0.1833
  727POPI    C310845  17.174  15.251   5.113 -0.2906  0.0555  0.3055
  727POPI   PO410846  17.213  14.954   5.662 -0.2331  0.2244 -0.0601
  727POPI   GL110847  17.384  14.594   5.992 -0.0834  0.1918  0.1951
  727POPI   GL210848  17.639  14.326   6.000 -0.1189  0.0254 -0.0539
  727POPI   C1A10849  17.544  14.798   6.394 -0.0129  0.2351  0.2200
  727POPI   D2A10850  17.833  14.459   6.634  0.3636  0.1466  0.2632
  727POPI   C3A10851  17.686  14.244   6.863 -0.2007  0.0149 -0.1581
  727POPI   C4A10852  17.577  14.168   7.319  0.0969 -0.3876 -0.2653
  727POPI   C1B10853  17.305  14.262   6.376  0.1743  0.0506 -0.2219
  727POPI   C2B10854  17.187  14.054   6.848 -0.3348  0.0460 -0.0651
  727POPI   C3B10855  17.078  14.152   7.288  0.0963 -0.0794 -0.1520
  727POPI   C4B10856  16.803  14.248   7.597 -0.0227 -0.3633  0.4107
  728POPI    C110857   4.961   7.173   5.311 -0.1486 -0.1149  0.1034
  728POPI    C210858   4.933   6.825   5.115 -0.2398  0.0832 -0.2438
  728POPI    C310859   5.238   7.072   5.041 -0.1954  0.0957 -0.0259
  728POPI   PO410860   4.933   7.108   5.622 -0.0390 -0.1378  0.1452
  728POPI   GL110861   4.831   7.072   6.074  0.2061  0.0235 -0.1706
  728POPI   GL210862   4.501   6.962   6.037 -0.0364  0.4884 -0.0180
  728POPI   C1A10863   4.801   6.723   6.420  0.0155  0.0345 -0.0073
  728POPI   D2A10864   4.727   6.793   6.928  0.2132  0.0655 -0.0445
  728POPI   C3A10865   4.837   6.867   7.330 -0.0965 -0.0270 -0.0436
  728POPI   C4A10866   4.726   6.720   7.686 -0.2759 -0.0272 -0.2592
  728POPI   C1B10867   4.420   7.103   6.534 -0.3558 -0.0507  0.0681
  728POPI   C2B10868   4.379   7.117   6.904  0.2150  0.2948  0.3865
  728POPI   C3B10869   4.232   7.042   7.295  0.0945 -0.0753 -0.1066
  728POPI   C4B10870   3.849   7.159   7.546  0.2709 -0.0997 -0.0393
  729POPI    C110871   2.088   2.466   5.656 -0.2456 -0.1731 -0.1249
  729POPI    C210872   1.841   2.177   5.779 -0.2609 -0.0472  0.1474
  729POPI    C310873   1.700   2.479   5.558 -0.3545  0.0302  0.3115
  729POPI   PO410874   2.218   2.441   5.885  0.0803 -0.0646 -0.0724
  729POPI   GL110875   2.463   2.451   6.152  0.1601  0.3711  0.2106
  729POPI   GL210876   2.505   2.671   6.362 -0.0848  0.2314  0.1993
  729POPI   C1A10877   2.423   2.223   6.587  0.1421  0.0767  0.0468
  729POPI   D2A10878   2.288   2.268   7.017 -0.0884  0.2133 -0.0845
  729POPI   C3A10879   1.944   2.110   7.196  0.0083 -0.0144  0.0274
  729POPI   C4A10880   1.506   1.983   7.185  0.1176 -0.2416  0.3696
  729POPI   C1B10881   2.630   2.603   6.831 -0.1592  0.0921  0.0516
  729POPI   C2B10882   2.454   2.832   7.258 -0.1489 -0.2316  0.0870
  729POPI   C3B10883   2.370   3.060   7.600  0.3847  0.4542 -0.0973
  729POPI   C4B10884   2.211   3.254   8.046  0.1580  0.3106  0.2588
  730POPI    C110885  10.544  16.644   6.101 -0.1446  0.0184  0.0888
  730POPI    C210886  10.431  16.282   5.973 -0.3221  0.1017  0.0064
  730POPI    C310887  10.640  16.524   5.732 -0.2251  0.0648  0.0526
  730POPI   PO410888  10.773  16.657   6.317 -0.0865  0.0742  0.2322
  730POPI   GL110889  10.542  16.584   6.671  0.1036 -0.0110 -0.0451
  730POPI   GL210890  10.517  16.276   6.489 -0.3712 -0.0414 -0.0354
  730POPI   C1A10891  10.513  16.437   7.140 -0.0832  0.0634  0.0563
  730POPI   D2A10892  10.521  16.675   7.462 -0.1011 -0.2636  0.1782
  730POPI   C3A10893  10.198  16.866   7.713  0.0977  0.0823  0.1168
  730POPI   C4A10894   9.863  16.906   7.687 -0.0883 -0.0723  0.0521
  730POPI   C1B10895  10.662  15.964   6.788 -0.4123  0.0333 -0.0128
  730POPI   C2B10896  10.791  15.977   7.138  0.2452  0.2291  0.1772
  730POPI   C3B10897  10.594  16.167   7.577 -0.2328  0.1722 -0.2637
  730POPI   C4B10898  10.458  16.381   7.939  0.0196  0.1394 -0.1057
  731POPI    C110899   0.687   0.123   5.489  0.1130  0.1004  0.1496
  731POPI    C210900   0.782  -0.034   5.133 -0.1054  0.1898  0.0497
  731POPI    C310901   0.827   0.358   5.197  0.0893  0.1482  0.1767
  731POPI   PO410902   0.450  -0.084   5.547 -0.1155  0.1268  0.0772
  731POPI   GL110903   0.387  -0.306   5.965  0.1342  0.1996 -0.2129
  731POPI   GL210904   0.380  -0.536   5.763  0.0199 -0.0309 -0.0553
  731POPI   C1A10905   0.503  -0.146   6.313 -0.1802 -0.2109 -0.1073
  731POPI   D2A10906   0.231   0.079   6.693 -0.0654 -0.1271  0.0951
  731POPI   C3A10907   0.004  -0.143   7.058  0.2273  0.2482  0.1363
  731POPI   C4A10908   0.169  -0.278   7.430 -0.1610 -0.3564 -0.1504
  731POPI   C1B10909   0.257  -0.834   6.115  0.0585 -0.0337 -0.1577
  731POPI   C2B10910   0.310  -1.260   6.398  0.0724  0.3777  0.0508
  731POPI   C3B10911   0.107  -1.370   6.848  0.0938 -0.0707 -0.0748
  731POPI   C4B10912   0.211  -1.205   7.191  0.0390  0.4394 -0.0448
  732POPI    C110913  18.008   3.550   5.972 -0.0227  0.1615  0.0201
  732POPI    C210914  17.917   3.630   5.590  0.0589 -0.1196 -0.0608
  732POPI    C310915  17.627   3.611   5.865 -0.0432 -0.2718 -0.1773
  732POPI   PO410916  18.213   3.275   5.927 -0.2508 -0.1036  0.0419
  732POPI   GL110917  18.305   2.931   6.171 -0.0494 -0.2039  0.0563
  732POPI   GL210918  18.603   2.687   6.363 -0.0300 -0.0284  0.2128
  732POPI   C1A10919  18.075   3.064   6.530 -0.1656  0.1090 -0.2491
  732POPI   D2A10920  17.942   2.927   6.977  0.1234 -0.0003  0.0752
  732POPI   C3A10921  18.050   2.553   7.195  0.2903  0.0126 -0.2940
  732POPI   C4A10922  17.920   2.255   7.487 -0.2190  0.4548  0.0478
  732POPI   C1B10923  18.913   2.627   6.570  0.2456  0.4624  0.0787
  732POPI   C2B10924  19.343   2.680   6.719 -0.3251  0.1454 -0.1457
  732POPI   C3B10925  19.647   2.883   7.045  0.2996  0.0196  0.0324
  732POPI   C4B10926  19.973   3.109   7.113 -0.1363 -0.0015  0.3661
  733POPI    C110927   3.480   0.195   5.792  0.0992  0.1372 -0.1945
  733POPI    C210928   3.547   0.153   5.400  0.0105  0.1459 -0.2109
  733POPI    C310929   3.487   0.517   5.555 -0.3141  0.1114 -0.2496
  733POPI   PO410930   3.589   0.110   5.999 -0.0612 -0.0358 -0.1535
  733POPI   GL110931   3.367   0.188   6.351  0.1171  0.3474 -0.2303
  733POPI   GL210932   3.491   0.529   6.208  0.3498  0.2884  0.1017
  733POPI   C1A10933   3.622  -0.023   6.670 -0.3331 -0.1613 -0.0956
  733POPI   D2A10934   3.901  -0.210   7.032 -0.1631 -0.0223  0.0804
  733POPI   C3A10935   3.687  -0.117   7.351 -0.1541  0.2053  0.2053
  733POPI   C4A10936   3.634  -0.284   7.821 -0.3024  0.1017  0.2408
  733POPI   C1B10937   3.771   0.818   6.323 -0.0075 -0.2190  0.4312
  733POPI   C2B10938   3.857   1.201   6.508  0.1627 -0.0608 -0.5865
  733POPI   C3B10939   3.724   1.489   6.818 -0.0638  0.3151  0.2507
  733POPI   C4B10940   3.595   1.594   7.186 -0.0540  0.2691  0.4232
  734POPI    C110941  10.345  14.196   5.895 -0.0021  0.2726 -0.0929
  734POPI    C210942  10.223  14.576   5.873 -0.1083  0.2459  0.0184
  734POPI    C310943  10.536  14.453   5.656 -0.2552  0.3245 -0.2432
  734POPI   PO410944  10.294  14.132   6.210 -0.0387  0.2554 -0.0497
  734POPI   GL110945  10.468  14.007   6.716  0.1395  0.2376  0.0679
  734POPI   GL210946  10.496  13.592   6.929 -0.0402 -0.1010 -0.0317
  734POPI   C1A10947  10.251  14.133   7.038 -0.1966  0.1086  0.0668
  734POPI   D2A10948  10.010  13.916   7.280 -0.1381 -0.0711  0.0289
  734POPI   C3A10949  10.278  14.060   7.557  0.0647 -0.2764 -0.2192
  734POPI   C4A10950  10.663  14.043   7.852 -0.1131  0.0485 -0.1028
  734POPI   C1B10951  10.198  13.436   7.215 -0.2320 -0.2091  0.1291
  734POPI   C2B10952   9.940  13.483   7.631  0.1050 -0.2025 -0.0827
  734POPI   C3B10953   9.836  13.494   8.055  0.1889  0.1385  0.1401
  734POPI   C4B10954   9.649  13.736   8.433 -0.2584  0.1632 -0.3198
  735POPI    C110955  12.562   9.644   6.024  0.0490  0.0770 -0.0312
  735POPI    C210956  12.830   9.708   5.733  0.1954  0.1282  0.1134
  735POPI    C310957  12.776   9.338   5.878  0.0167  0.0773 -0.0789
  735POPI   PO410958  12.373   9.983   5.941  0.2491  0.0992 -0.0459
  735POPI   GL110959  12.388  10.315   6.239 -0.1254  0.2157  0.2009
  735POPI   GL210960  12.179  10.013   6.368 -0.1047 -0.0851 -0.2259
  735POPI   C1A10961  12.293  10.390   6.718 -0.1466 -0.2417 -0.2320
  735POPI   D2A10962  12.511  10.476   7.156 -0.1327 -0.3140  0.2322
  735POPI   C3A10963  12.437  10.966   7.408 -0.2123 -0.1126 -0.1756
  735POPI   C4A10964  12.636  11.490   7.542  0.1566  0.0307  0.0775
  735POPI   C1B10965  12.223   9.908   6.795 -0.3156  0.1317  0.0388
  735POPI   C2B10966  12.160  10.070   7.194 -0.0998  0.0491  0.1037
  735POPI   C3B10967  12.200  10.226   7.586  0.1567  0.0079  0.2846
  735POPI   C4B10968  12.234  10.267   8.096 -0.0589  0.2263 -0.0851
  736POPI    C110969   5.115   9.499   4.922  0.0861 -0.1221 -0.0504
  736POPI    C210970   5.297   9.152   4.842  0.0376 -0.1002 -0.2615
  736POPI    C310971   5.146   9.372   4.544 -0.0789  0.0222 -0.1138
  736POPI   PO410972   5.096   9.413   5.214  0.2297  0.0996  0.0556
  736POPI   GL110973   4.915   9.515   5.633 -0.1221 -0.1262  0.0641
  736POPI   GL210974   5.278   9.475   5.674  0.0062  0.3324  0.1836
  736POPI   C1A10975   5.089   9.392   6.084  0.0591  0.0224  0.1217
  736POPI   D2A10976   5.130   9.171   6.446  0.0531  0.3553 -0.0061
  736POPI   C3A10977   4.856   9.029   6.499 -0.2554  0.0067  0.0815
  736POPI   C4A10978   4.514   8.813   6.324 -0.0239 -0.0931  0.2328
  736POPI   C1B10979   5.499   9.635   6.084 -0.2597 -0.1256 -0.2460
  736POPI   C2B10980   5.724   9.716   6.454  0.2402 -0.0791  0.4210
  736POPI   C3B10981   5.740   9.666   6.879  0.1541  0.2311  0.1882
  736POPI   C4B10982   5.575   9.554   7.275 -0.1476 -0.0501 -0.0060
  737POPI    C110983  18.112   2.339   5.081  0.0026 -0.1398 -0.1096
  737POPI    C210984  17.838   2.528   4.860 -0.0855 -0.0357  0.0862
  737POPI    C310985  18.211   2.486   4.723 -0.1865 -0.1402 -0.1632
  737POPI   PO410986  17.933   2.372   5.379  0.2514  0.2588  0.0837
  737POPI   GL110987  17.834   2.137   5.843 -0.0121 -0.0822 -0.1390
  737POPI   GL210988  17.924   2.385   6.007  0.0708 -0.1381 -0.1224
  737POPI   C1A10989  17.772   1.748   6.138  0.0392  0.1487  0.2297
  737POPI   D2A10990  17.601   1.186   6.140  0.2256  0.0292 -0.0191
  737POPI   C3A10991  17.649   1.042   6.487  0.3123  0.1144  0.2408
  737POPI   C4A10992  17.476   0.983   6.887  0.1044  0.2112 -0.0633
  737POPI   C1B10993  18.058   2.546   6.424 -0.2359 -0.1425 -0.0839
  737POPI   C2B10994  18.350   2.652   6.772 -0.1755  0.2414  0.1307
  737POPI   C3B10995  18.723   2.383   7.039 -0.0488  0.0908 -0.0212
  737POPI   C4B10996  18.648   1.973   7.111 -0.2079 -0.0859  0.0246
  738POPI    C110997   3.169  18.075   5.278  0.1336  0.0454 -0.0687
  738POPI    C210998   2.963  17.881   4.996  0.0590  0.0261 -0.0015
  738POPI    C310999   2.881  18.264   5.075  0.2014  0.0844 -0.1293
  738POPI   PO411000   3.120  17.853   5.508  0.2963  0.1825 -0.0255
  738POPI   GL111001   3.337  17.739   5.976  0.2221  0.2770 -0.0901
  738POPI   GL211002   3.686  17.502   5.986  0.3046  0.0135  0.0763
  738POPI   C1A11003   3.328  18.045   6.327 -0.0490  0.3727  0.0412
  738POPI   D2A11004   3.067  18.245   6.651 -0.0721  0.1020 -0.3165
  738POPI   C3A11005   3.306  18.474   7.051 -0.3468  0.4450 -0.0096
  738POPI   C4A11006   3.356  18.870   7.259 -0.0209 -0.0784 -0.0892
  738POPI   C1B11007   3.526  17.631   6.464 -0.1027  0.2921 -0.4638
  738POPI   C2B11008   3.086  17.710   6.587 -0.1906  0.2507  0.1194
  738POPI   C3B11009   2.762  17.614   6.920  0.0388  0.0954  0.5010
  738POPI   C4B11010   2.523  17.844   7.149  0.2054  0.2739 -0.3125
  739POPI    C111011   8.029   8.604   5.640  0.1003  0.2743 -0.0735
  739POPI    C211012   7.935   8.614   5.252 -0.0957 -0.2312 -0.0471
  739POPI    C311013   8.297   8.490   5.366 -0.0120 -0.0112 -0.0680
  739POPI   PO411014   7.760   8.540   5.738 -0.0444 -0.0489 -0.1178
  739POPI   GL111015   7.556   8.507   6.076  0.1780  0.0009  0.1581
  739POPI   GL211016   7.236   8.563   6.252 -0.0976  0.0646 -0.1941
  739POPI   C1A11017   7.621   8.948   6.236 -0.3933 -0.1109  0.1227
  739POPI   D2A11018   7.629   9.173   6.635 -0.2946 -0.1178 -0.2588
  739POPI   C3A11019   7.821   8.868   7.029  0.3733 -0.1867  0.1652
  739POPI   C4A11020   7.996   8.387   6.902  0.1564 -0.1877  0.3130
  739POPI   C1B11021   7.358   8.747   6.637 -0.0441  0.1910  0.0255
  739POPI   C2B11022   7.381   8.671   7.074 -0.1168  0.1431  0.0502
  739POPI   C3B11023   7.202   8.530   7.470  0.2739 -0.4551  0.1140
  739POPI   C4B11024   7.012   8.396   7.848 -0.0238  0.0305 -0.1603
  740POPI    C111025   9.783   1.938   5.968  0.0162 -0.1170 -0.0614
  740POPI    C211026   9.471   2.184   6.009  0.0791 -0.0906  0.2859
  740POPI    C311027   9.661   2.160   5.658 -0.2369 -0.0190  0.1056
  740POPI   PO411028   9.766   1.915   6.312 -0.2344 -0.2421  0.2105
  740POPI   GL111029   9.940   1.987   6.765 -0.0117  0.1870 -0.1752
  740POPI   GL211030   9.750   2.242   6.781  0.0887 -0.2228 -0.0115
  740POPI   C1A11031  10.255   2.332   6.956  0.1987  0.1941  0.1963
  740POPI   D2A11032  10.527   2.430   7.330 -0.0212  0.0593  0.0495
  740POPI   C3A11033  10.487   2.454   7.729 -0.1630  0.1133  0.0317
  740POPI   C4A11034  10.214   2.536   8.170 -0.0277  0.3011  0.1151
  740POPI   C1B11035   9.742   2.514   7.087 -0.1696 -0.0881  0.0249
  740POPI   C2B11036   9.470   2.333   7.340 -0.0568  0.4388 -0.2041
  740POPI   C3B11037   9.439   2.333   7.849 -0.1099 -0.3096 -0.1052
  740POPI   C4B11038   9.657   2.346   8.240 -0.1871 -0.3771 -0.0544
  741POPS   CNO11039  12.018   9.657   5.919  0.1550 -0.3208  0.2583
  741POPS   PO411040  11.803   9.329   6.077 -0.0404  0.2482  0.0745
  741POPS   GL111041  11.767   9.464   6.519 -0.0377  0.1483 -0.0986
  741POPS   GL211042  11.449   9.588   6.592 -0.3789 -0.2106 -0.0627
  741POPS   C1A11043  11.766   9.617   6.984  0.2105  0.1214  0.0830
  741POPS   D2A11044  11.805   9.796   7.447  0.0536  0.0369 -0.1030
  741POPS   C3A11045  11.654   9.663   7.874  0.0099 -0.0607  0.1470
  741POPS   C4A11046  11.519   9.691   8.222  0.4159 -0.1489  0.0961
  741POPS   C1B11047  11.298   9.490   6.989 -0.0896 -0.1121  0.0140
  741POPS   C2B11048  11.377   9.574   7.403 -0.0048 -0.0844  0.6044
  741POPS   C3B11049  11.169   9.642   7.809  0.2940 -0.1046 -0.1546
  741POPS   C4B11050  10.915   9.763   8.190  0.0030 -0.1136 -0.1156
  742POPS   CNO11051  17.226  11.274   5.577  0.1708 -0.1078 -0.0590
  742POPS   PO411052  17.414  10.914   5.370  0.0625 -0.0463  0.0050
  742POPS   GL111053  17.552  10.855   5.655  0.1615  0.0139  0.0824
  742POPS   GL211054  17.696  11.142   5.733 -0.0494  0.0270 -0.0408
  742POPS   C1A11055  17.543  10.606   6.036  0.0842 -0.3064  0.0451
  742POPS   D2A11056  17.831  10.407   6.373 -0.0355  0.2283  0.1280
  742POPS   C3A11057  17.745  10.499   6.728 -0.0637  0.1378  0.0940
  742POPS   C4A11058  17.286  10.523   6.923  0.3175  0.0359 -0.1456
  742POPS   C1B11059  17.350  11.119   6.134  0.0197 -0.3597  0.3088
  742POPS   C2B11060  17.007  11.266   6.408  0.0116 -0.5163 -0.1388
  742POPS   C3B11061  17.036  11.681   6.596  0.0505 -0.2826 -0.3859
  742POPS   C4B11062  17.303  12.022   6.551  0.1901 -0.2678 -0.0401
  743POPS   CNO11063   7.968   4.653   5.719 -0.1332  0.2892 -0.5432
  743POPS   PO411064   8.243   4.480   6.074  0.2635  0.1535 -0.0067
  743POPS   GL111065   8.148   4.414   6.558  0.0028 -0.2651  0.1229
  743POPS   GL211066   8.264   4.758   6.524 -0.1678 -0.1094  0.1728
  743POPS   C1A11067   8.087   4.288   7.043  0.0290 -0.0999 -0.0172
  743POPS   D2A11068   8.071   4.250   7.510 -0.2067 -0.1686  0.0897
  743POPS   C3A11069   7.744   4.446   7.627 -0.1224 -0.0666  0.1874
  743POPS   C4A11070   7.413   4.658   7.543 -0.1101 -0.4224  0.0649
  743POPS   C1B11071   8.508   4.599   6.880 -0.0952  0.0986 -0.3924
  743POPS   C2B11072   8.438   4.683   7.359  0.1512 -0.1786  0.0994
  743POPS   C3B11073   8.608   4.615   7.801  0.3395  0.0056  0.0825
  743POPS   C4B11074   8.836   4.456   8.097 -0.3243  0.0779 -0.1526
  744POPS   CNO11075   1.026   4.294   5.418 -0.0983 -0.2894 -0.2413
  744POPS   PO411076   0.671   3.973   5.372 -0.0565  0.1526 -0.1913
  744POPS   GL111077   0.730   4.021   5.823  0.2174  0.1220  0.0270
  744POPS   GL211078   0.713   4.220   5.968 -0.1504  0.1247  0.0788
  744POPS   C1A11079   0.562   3.805   6.149 -0.0537  0.0893  0.0610
  744POPS   D2A11080   0.500   3.560   6.484  0.1383 -0.0469  0.1444
  744POPS   C3A11081   0.453   3.424   6.875 -0.2889  0.3042  0.0831
  744POPS   C4A11082   0.066   3.408   7.180 -0.1701 -0.1006 -0.1388
  744POPS   C1B11083   0.584   4.264   6.481  0.0725 -0.0692  0.1554
  744POPS   C2B11084   0.703   4.217   6.928  0.0861 -0.0001  0.0186
  744POPS   C3B11085   1.039   4.041   7.253 -0.3533 -0.0238 -0.1134
  744POPS   C4B11086   1.062   4.245   7.581 -0.0373  0.1123 -0.1309
  745POPS   CNO11087  13.945   6.582   5.519  0.0119 -0.1671 -0.1615
  745POPS   PO411088  14.144   6.447   5.933 -0.1888  0.2693  0.0560
  745POPS   GL111089  14.177   6.406   6.425 -0.1693 -0.1455 -0.0338
  745POPS   GL211090  14.513   6.315   6.509 -0.3720 -0.1931 -0.0679
  745POPS   C1A11091  14.016   6.245   6.784 -0.0789  0.1637 -0.1313
  745POPS   D2A11092  14.076   6.256   7.266  0.2954  0.1008 -0.0434
  745POPS   C3A11093  14.078   6.673   7.383 -0.0596 -0.2591 -0.1794
  745POPS   C4A11094  14.113   7.056   7.636  0.0489 -0.3022  0.1198
  745POPS   C1B11095  14.437   6.535   6.876  0.1173 -0.2667  0.2181
  745POPS   C2B11096  14.567   6.674   7.222  0.4054  0.1827  0.0448
  745POPS   C3B11097  14.956   6.828   7.496 -0.1497 -0.1144 -0.2026
  745POPS   C4B11098  15.380   6.698   7.689  0.0548  0.1923  0.2789
  746POPS   CNO11099  13.568  16.729   5.722 -0.1383 -0.0552  0.4420
  746POPS   PO411100  13.312  17.010   5.659 -0.0619  0.0558  0.0299
  746POPS   GL111101  13.548  17.089   6.073 -0.2007 -0.0584  0.0569
  746POPS   GL211102  13.874  17.049   6.006 -0.0402 -0.2861  0.0653
  746POPS   C1A11103  13.578  17.270   6.477 -0.0953 -0.2814 -0.1177
  746POPS   D2A11104  13.828  17.284   6.836  0.1329 -0.0673  0.0736
  746POPS   C3A11105  13.986  17.697   6.931  0.1858 -0.1338  0.1725
  746POPS   C4A11106  14.284  17.710   7.275 -0.2089 -0.2765  0.2121
  746POPS   C1B11107  13.995  16.936   6.446  0.0240 -0.0396 -0.3306
  746POPS   C2B11108  13.868  16.583   6.740 -0.4978 -0.0481  0.1705
  746POPS   C3B11109  13.799  16.242   7.037  0.2361 -0.0167 -0.3353
  746POPS   C4B11110  13.926  16.145   7.440  0.1235  0.0873 -0.1276
  747POPS   CNO11111  14.077   1.916   5.704 -0.1062 -0.1290  0.0150
  747POPS   PO411112  14.451   1.623   5.836  0.1501  0.2449  0.0913
  747POPS   GL111113  14.405   1.319   6.140 -0.3314  0.2515 -0.1955
  747POPS   GL211114  14.146   1.360   6.472 -0.2967 -0.0132  0.0943
  747POPS   C1A11115  14.597   1.199   6.532  0.0200  0.2759  0.0765
  747POPS   D2A11116  15.005   1.055   6.752 -0.1466  0.0078 -0.3474
  747POPS   C3A11117  14.898   0.808   7.107 -0.2799  0.4527 -0.0005
  747POPS   C4A11118  14.902   0.409   7.367  0.0259  0.1251 -0.1636
  747POPS   C1B11119  14.135   1.164   6.913  0.2321  0.0958  0.0957
  747POPS   C2B11120  14.211   0.958   7.218  0.1719  0.0222 -0.2678
  747POPS   C3B11121  14.590   0.865   7.506 -0.2296 -0.1571  0.1191
  747POPS   C4B11122  14.722   0.606   7.787  0.0566 -0.0505 -0.0397
  748POPS   CNO11123   5.549  10.064   5.801  0.1023 -0.1549 -0.0968
  748POPS   PO411124   5.550  10.306   5.464 -0.3661  0.1497 -0.1212
  748POPS   GL111125   5.501  10.569   5.752 -0.0513 -0.1418 -0.0644
  748POPS   GL211126   5.305  10.838   5.953  0.2342  0.0352  0.0864
  748POPS   C1A11127   5.456  10.389   6.198  0.2362 -0.2144 -0.0342
  748POPS   D2A11128   5.376  10.489   6.601 -0.1504  0.0153 -0.0430
  748POPS   C3A11129   5.540  10.478   7.065 -0.1390 -0.0986  0.0267
  748POPS   C4A11130   5.935  10.450   7.376 -0.0504 -0.0416 -0.1979
  748POPS   C1B11131   5.078  11.084   6.308  0.4723  0.0122 -0.4553
  748POPS   C2B11132   5.014  11.330   6.600  0.0177  0.1823  0.3150
  748POPS   C3B11133   4.950  11.241   6.999  0.0417 -0.1165  0.2313
  748POPS   C4B11134   4.930  11.254   7.447 -0.1706  0.2267  0.2391
  749POPS   CNO11135  12.653   7.290   5.622 -0.3310  0.0903 -0.1680
  749POPS   PO411136  12.711   7.394   6.065 -0.2028 -0.1723  0.4087
  749POPS   GL111137  12.842   7.188   6.460 -0.0263  0.0558  0.5251
  749POPS   GL211138  13.185   7.303   6.546 -0.1505 -0.3070  0.1126
  749POPS   C1A11139  12.857   7.197   6.916 -0.0892  0.1727 -0.1050
  749POPS   D2A11140  12.843   7.194   7.349 -0.0254  0.0693 -0.1218
  749POPS   C3A11141  12.440   7.147   7.559  0.2693 -0.2310 -0.1180
  749POPS   C4A11142  12.634   7.072   7.936 -0.1821 -0.1740  0.2763
  749POPS   C1B11143  13.391   7.293   6.953  0.1011 -0.3296 -0.2580
  749POPS   C2B11144  13.701   7.079   7.267  0.1964  0.0852 -0.0894
  749POPS   C3B11145  13.668   6.781   7.660 -0.2100 -0.0764  0.1007
  749POPS   C4B11146  13.795   6.340   7.663  0.0623 -0.0323 -0.0635
  750POPS   CNO11147  11.963   6.200   5.996  0.2908  0.0055  0.2591
  750POPS   PO411148  11.915   5.810   6.286  0.2273  0.4241 -0.0018
  750POPS   GL111149  11.812   5.750   6.714 -0.0635 -0.0853 -0.1727
  750POPS   GL211150  12.106   5.549   6.884 -0.3273  0.1302 -0.0886
  750POPS   C1A11151  11.704   5.403   7.066 -0.2271  0.1296 -0.0942
  750POPS   D2A11152  11.703   5.290   7.467 -0.1078  0.0601 -0.1315
  750POPS   C3A11153  12.066   5.282   7.650 -0.1678 -0.0172  0.2467
  750POPS   C4A11154  12.255   4.959   7.910  0.0208  0.1669 -0.3892
  750POPS   C1B11155  12.090   5.085   7.101  0.2883  0.1474 -0.2809
  750POPS   C2B11156  11.967   4.809   7.381 -0.4207  0.0253 -0.0119
  750POPS   C3B11157  11.797   4.828   7.749  0.2678 -0.2394  0.0929
  750POPS   C4B11158  11.743   5.022   8.086 -0.1908 -0.0808 -0.0251
  751POPS   CNO11159  10.998   2.559   6.076  0.2669 -0.3103  0.1022
  751POPS   PO411160  11.047   2.681   6.347 -0.1835  0.0806  0.2741
  751POPS   GL111161  11.125   2.548   6.772 -0.0695 -0.0301 -0.0783
  751POPS   GL211162  10.994   2.195   6.770  0.0060  0.1737  0.0569
  751POPS   C1A11163  11.148   2.580   7.176  0.0112 -0.1274  0.3386
  751POPS   D2A11164  11.025   2.458   7.619 -0.1975  0.1161 -0.1897
  751POPS   C3A11165  10.843   2.829   7.869 -0.0705  0.0694 -0.0605
  751POPS   C4A11166  10.917   3.281   7.993  0.2544 -0.1497  0.0213
  751POPS   C1B11167  10.797   2.031   7.122 -0.2054  0.0043  0.0296
  751POPS   C2B11168  10.600   1.852   7.535 -0.0400  0.1718  0.0277
  751POPS   C3B11169  10.286   1.766   7.760  0.0213  0.2886 -0.0802
  751POPS   C4B11170  10.102   1.604   8.005  0.2526  0.1428 -0.2275
  752POPS   CNO11171  12.724  16.434   5.307  0.1575 -0.1838 -0.4582
  752POPS   PO411172  12.604  16.467   5.798  0.0640  0.2631  0.3713
  752POPS   GL111173  12.954  16.441   5.982  0.0868 -0.0256 -0.1701
  752POPS   GL211174  13.171  16.679   6.035  0.3219 -0.1626 -0.2692
  752POPS   C1A11175  12.924  16.501   6.509  0.1690 -0.2430  0.0527
  752POPS   D2A11176  12.678  16.389   7.032 -0.2256 -0.1112  0.2077
  752POPS   C3A11177  13.025  16.087   7.211  0.0390  0.1482 -0.1000
  752POPS   C4A11178  13.029  15.868   7.601 -0.1526  0.3035  0.0623
  752POPS   C1B11179  13.431  16.840   6.452  0.3973 -0.1731 -0.0894
  752POPS   C2B11180  13.476  16.944   7.011  0.2278 -0.0126  0.0947
  752POPS   C3B11181  13.640  16.612   7.291 -0.2289  0.1126  0.1541
  752POPS   C4B11182  13.489  16.353   7.534  0.0999  0.0722  0.2709
  753POPS   CNO11183   3.664  13.273   5.191  0.1810 -0.1260  0.0448
  753POPS   PO411184   3.227  13.248   5.226  0.2442  0.0527 -0.0422
  753POPS   GL111185   3.405  13.240   5.672  0.4110  0.2721  0.0795
  753POPS   GL211186   3.146  13.305   5.846 -0.2644 -0.0180 -0.1077
  753POPS   C1A11187   3.518  12.947   5.893  0.3376  0.1770 -0.0772
  753POPS   D2A11188   3.418  12.591   5.837 -0.1744 -0.3214  0.1497
  753POPS   C3A11189   3.517  12.208   5.952 -0.2013 -0.1448 -0.0790
  753POPS   C4A11190   3.401  11.900   6.231 -0.0173  0.0360  0.1533
  753POPS   C1B11191   3.340  13.363   6.270  0.0241 -0.2243 -0.1296
  753POPS   C2B11192   3.213  13.459   6.681 -0.0398 -0.0704 -0.1407
  753POPS   C3B11193   3.434  13.558   7.014  0.4205  0.0166 -0.3649
  753POPS   C4B11194   3.842  13.555   7.405  0.2657 -0.0569 -0.0488
  754POPS   CNO11195   4.196  18.198   5.296  0.1448 -0.0083 -0.3468
  754POPS   PO411196   3.957  18.453   5.576  0.1505 -0.1855  0.0741
  754POPS   GL111197   4.174  18.479   5.902 -0.2576 -0.2126  0.3455
  754POPS   GL211198   3.964  18.378   6.189 -0.0610  0.0208 -0.2833
  754POPS   C1A11199   4.409  18.745   6.173 -0.0578  0.3577 -0.0048
  754POPS   D2A11200   4.557  18.734   6.436  0.1122 -0.0612  0.2892
  754POPS   C3A11201   4.458  18.901   6.775 -0.0861  0.0217 -0.1525
  754POPS   C4A11202   4.150  19.149   6.984  0.1971  0.0433  0.3463
  754POPS   C1B11203   3.880  18.021   6.590 -0.1597 -0.0189  0.1744
  754POPS   C2B11204   3.480  18.050   6.898 -0.1149 -0.1166  0.0082
  754POPS   C3B11205   3.389  17.567   6.965 -0.2710  0.0716  0.1052
  754POPS   C4B11206   3.136  17.360   7.256  0.0272 -0.2132  0.0669
  755POPS   CNO11207   1.414  16.053   5.641  0.0903  0.0970 -0.0566
  755POPS   PO411208   1.498  16.503   5.860 -0.0183  0.1180 -0.1446
  755POPS   GL111209   1.336  16.356   6.127 -0.0472  0.1231  0.0088
  755POPS   GL211210   1.247  16.042   6.105  0.3167 -0.2141 -0.1597
  755POPS   C1A11211   1.243  16.563   6.576  0.0332 -0.0916  0.1045
  755POPS   D2A11212   0.818  16.632   6.859 -0.1625  0.0160 -0.3601
  755POPS   C3A11213   0.694  16.542   7.295 -0.0599 -0.0335  0.2948
  755POPS   C4A11214   0.399  16.679   7.602 -0.1418  0.1602  0.4502
  755POPS   C1B11215   1.318  16.004   6.581  0.2392 -0.0926  0.0135
  755POPS   C2B11216   1.385  16.226   6.907  0.1546 -0.3239  0.4085
  755POPS   C3B11217   1.609  16.143   7.228 -0.1133  0.1510  0.2528
  755POPS   C4B11218   1.579  16.277   7.665  0.1565 -0.0052 -0.1926
  756POPS   CNO11219   8.792  14.351   5.758 -0.0085 -0.0727  0.1510
  756POPS   PO411220   8.392  14.509   5.995 -0.0521 -0.1686  0.0349
  756POPS   GL111221   8.452  14.522   6.458  0.1728  0.3374  0.1195
  756POPS   GL211222   8.624  14.175   6.553  0.0026 -0.1406  0.0164
  756POPS   C1A11223   8.417  14.670   6.894 -0.3369 -0.1066 -0.0320
  756POPS   D2A11224   8.229  14.969   7.137 -0.0444  0.1756 -0.1765
  756POPS   C3A11225   8.539  15.151   7.334  0.1951  0.0423 -0.1664
  756POPS   C4A11226   8.822  15.319   7.574 -0.1578  0.0861  0.1033
  756POPS   C1B11227   8.582  14.217   6.978 -0.1267 -0.0447 -0.0144
  756POPS   C2B11228   8.484  14.224   7.392  0.2042  0.3053 -0.2945
  756POPS   C3B11229   8.387  13.938   7.584 -0.2551  0.1118  0.0429
  756POPS   C4B11230   7.966  14.057   7.768 -0.2802  0.1862 -0.0417
  757POPS   CNO11231  14.558  13.696   5.054 -0.3024  0.0079 -0.1019
  757POPS   PO411232  14.493  14.118   5.405 -0.3000 -0.2361  0.0057
  757POPS   GL111233  14.500  13.935   5.864  0.0794 -0.1706  0.1183
  757POPS   GL211234  14.100  13.960   5.911 -0.1271 -0.2357  0.0715
  757POPS   C1A11235  14.542  13.873   6.259  0.1348  0.0503 -0.2500
  757POPS   D2A11236  14.470  14.091   6.643 -0.2326  0.2059 -0.0573
  757POPS   C3A11237  14.187  13.767   6.910  0.1050  0.2675 -0.3548
  757POPS   C4A11238  14.042  13.704   7.299  0.0197  0.2263  0.1337
  757POPS   C1B11239  13.945  13.969   6.432 -0.1989 -0.0609  0.6039
  757POPS   C2B11240  13.696  14.006   6.728 -0.1493 -0.2591  0.0078
  757POPS   C3B11241  13.661  14.001   7.217 -0.0777  0.0194 -0.0485
  757POPS   C4B11242  13.726  14.003   7.687  0.0120 -0.0275  0.0352
  758POPS   CNO11243  13.610   9.812   5.694 -0.1612  0.3289  0.1775
  758POPS   PO411244  13.967   9.678   5.866 -0.2022  0.3723  0.3270
  758POPS   GL111245  13.880   9.555   6.293 -0.0787 -0.0436 -0.4013
  758POPS   GL211246  13.555   9.644   6.395  0.2062 -0.2061  0.1067
  758POPS   C1A11247  13.963   9.483   6.739 -0.1835  0.0432  0.3929
  758POPS   D2A11248  14.058   9.793   7.054  0.1092 -0.3029 -0.0412
  758POPS   C3A11249  14.147   9.917   7.408  0.0291  0.2381 -0.1734
  758POPS   C4A11250  13.966   9.879   7.822 -0.2820 -0.1867 -0.0356
  758POPS   C1B11251  13.458   9.399   6.767 -0.2270 -0.1227 -0.1379
  758POPS   C2B11252  13.604   9.321   7.258  0.0245  0.1968 -0.0781
  758POPS   C3B11253  13.954   9.466   7.529 -0.0777 -0.1443 -0.1403
  758POPS   C4B11254  14.187   9.341   7.922 -0.4475 -0.0579  0.0321
  759POPS   CNO11255   2.385   8.873   5.141 -0.1080 -0.0927  0.0120
  759POPS   PO411256   2.673   9.002   4.788 -0.4878 -0.1164 -0.0758
  759POPS   GL111257   2.858   9.016   5.289  0.4364  0.2093  0.1484
  759POPS   GL211258   2.748   9.324   5.433  0.1087  0.0686  0.0075
  759POPS   C1A11259   2.833   8.818   5.700  0.0759 -0.1674  0.1800
  759POPS   D2A11260   3.051   8.609   6.132  0.1901 -0.1603 -0.2823
  759POPS   C3A11261   2.938   8.494   6.576 -0.0122  0.2611 -0.1394
  759POPS   C4A11262   2.598   8.398   6.888  0.4565 -0.0979 -0.1779
  759POPS   C1B11263   2.976   9.455   5.807  0.5935  0.0891 -0.1776
  759POPS   C2B11264   3.151   9.602   6.210  0.0350  0.0626 -0.2132
  759POPS   C3B11265   3.178   9.462   6.690  0.0045  0.2242 -0.1876
  759POPS   C4B11266   3.052   9.631   7.144 -0.0061 -0.0840  0.1086
  760POPS   CNO11267   7.792   3.013   6.136  0.0277  0.2207  0.0960
  760POPS   PO411268   7.952   3.414   6.138 -0.0788 -0.1996 -0.2511
  760POPS   GL111269   7.723   3.488   6.577 -0.1401 -0.0474  0.2517
  760POPS   GL211270   7.643   3.147   6.628  0.0722  0.3031  0.2339
  760POPS   C1A11271   7.948   3.520   6.911 -0.3453  0.0333  0.1532
  760POPS   D2A11272   8.078   3.770   7.166 -0.3417  0.1848 -0.0218
  760POPS   C3A11273   7.761   3.872   7.548  0.0091 -0.0044  0.0638
  760POPS   C4A11274   7.485   4.087   7.816  0.3565  0.0784 -0.3475
  760POPS   C1B11275   7.442   3.363   6.974  0.3851  0.2660 -0.1322
  760POPS   C2B11276   7.689   3.445   7.294  0.2399 -0.0708 -0.1060
  760POPS   C3B11277   7.740   3.393   7.736  0.0974 -0.1026  0.1102
  760POPS   C4B11278   8.083   3.220   7.973  0.0963  0.0768 -0.1902
  761POPS   CNO11279   8.260  10.294   5.485  0.0027  0.1342  0.1147
  761POPS   PO411280   8.135  10.126   5.901 -0.0272 -0.1242  0.0118
  761POPS   GL111281   8.074  10.033   6.395  0.2683  0.0692  0.0064
  761POPS   GL211282   7.835  10.207   6.625  0.1824  0.0718 -0.2951
  761POPS   C1A11283   7.904   9.681   6.621  0.1826  0.2297 -0.0723
  761POPS   D2A11284   7.748   9.603   6.894  0.1364  0.2360 -0.3107
  761POPS   C3A11285   7.546   9.669   7.303 -0.1856  0.1501  0.0060
  761POPS   C4A11286   7.396   9.951   7.477  0.2625  0.0338  0.4307
  761POPS   C1B11287   7.698  10.076   6.964  0.1466 -0.0034  0.0660
  761POPS   C2B11288   7.697  10.346   7.407 -0.2090 -0.1649 -0.3071
  761POPS   C3B11289   8.051  10.422   7.594  0.0648 -0.0496 -0.3052
  761POPS   C4B11290   8.186  10.508   7.939  0.0555  0.0017  0.2478
  762POPS   CNO11291   3.203   0.875   5.848 -0.1130 -0.4930 -0.1313
  762POPS   PO411292   2.890   1.060   5.945 -0.0682 -0.3360 -0.1237
  762POPS   GL111293   2.819   1.014   6.421 -0.1239  0.0677 -0.1888
  762POPS   GL211294   2.751   1.348   6.644  0.3043 -0.2329  0.1024
  762POPS   C1A11295   2.736   0.779   6.868 -0.1343 -0.0063 -0.2206
  762POPS   D2A11296   2.855   0.526   7.219 -0.0342 -0.0059  0.0855
  762POPS   C3A11297   2.930   0.137   7.440 -0.1164 -0.1221 -0.0145
  762POPS   C4A11298   3.232   0.104   7.702 -0.3988  0.0201 -0.2059
  762POPS   C1B11299   2.499   1.689   6.758  0.0605  0.0773 -0.2403
  762POPS   C2B11300   2.095   1.766   6.899 -0.2078  0.1870 -0.3058
  762POPS   C3B11301   1.852   1.585   7.228 -0.4692 -0.0101 -0.0871
  762POPS   C4B11302   1.694   1.718   7.613  0.0141  0.0458 -0.2271
  763POPS   CNO11303   1.124  17.169   5.404 -0.2483 -0.0007  0.1306
  763POPS   PO411304   1.022  16.822   5.639 -0.0960 -0.0915  0.2244
  763POPS   GL111305   1.128  16.826   6.043  0.2640  0.0626  0.1853
  763POPS   GL211306   1.438  17.012   6.190 -0.2001 -0.0683 -0.0407
  763POPS   C1A11307   0.833  16.785   6.345 -0.0985 -0.0165  0.3338
  763POPS   D2A11308   0.410  16.751   6.616  0.2915 -0.0914  0.0382
  763POPS   C3A11309   0.344  16.785   7.058 -0.3169 -0.2892 -0.0110
  763POPS   C4A11310  -0.012  16.895   7.358 -0.1118 -0.0170  0.1481
  763POPS   C1B11311   1.223  17.094   6.591 -0.2082  0.2171 -0.0019
  763POPS   C2B11312   1.363  17.079   6.989 -0.0898 -0.1350  0.0926
  763POPS   C3B11313   1.343  17.227   7.399 -0.1070  0.0082 -0.0180
  763POPS   C4B11314   1.242  17.650   7.746 -0.0695  0.1304 -0.0964
  764POPS   CNO11315   8.309  10.947   5.570 -0.3178 -0.0035 -0.1210
  764POPS   PO411316   8.383  10.631   5.836 -0.0811 -0.2955 -0.2166
  764POPS   GL111317   8.324  10.433   6.255 -0.2436 -0.0255  0.2532
  764POPS   GL211318   8.508  10.212   6.327  0.4281 -0.0812 -0.3888
  764POPS   C1A11319   8.344  10.460   6.769 -0.3387 -0.0051  0.0629
  764POPS   D2A11320   8.107  10.541   7.063 -0.0911 -0.3454 -0.2852
  764POPS   C3A11321   7.680  10.604   6.907 -0.2253  0.4753  0.0085
  764POPS   C4A11322   7.321  10.794   6.922  0.0330 -0.1088  0.3108
  764POPS   C1B11323   8.695  10.093   6.786 -0.1889  0.0982 -0.0155
  764POPS   C2B11324   8.872   9.866   7.142 -0.0064  0.0345  0.0454
  764POPS   C3B11325   8.859   9.739   7.594  0.0532  0.0655  0.1929
  764POPS   C4B11326   8.839   9.739   8.041 -0.2976  0.1921 -0.2023
  765POPS   CNO11327  11.632  11.237   5.892  0.1512  0.0882  0.0541
  765POPS   PO411328  11.292  11.352   6.087 -0.2071 -0.3002 -0.3229
  765POPS   GL111329  11.060  11.179   6.485 -0.1722 -0.1853  0.0109
  765POPS   GL211330  10.921  11.375   6.615 -0.0496 -0.2552 -0.1631
  765POPS   C1A11331  10.895  10.945   6.796  0.4192  0.0666 -0.2789
  765POPS   D2A11332  11.011  10.972   7.195  0.1267  0.0702  0.1619
  765POPS   C3A11333  10.786  11.147   7.563 -0.2811  0.0996  0.0173
  765POPS   C4A11334  10.661  11.140   8.089 -0.0605 -0.3363  0.0228
  765POPS   C1B11335  11.111  11.384   7.009 -0.1691 -0.0591  0.0751
  765POPS   C2B11336  11.238  11.489   7.309  0.2877 -0.2245  0.0241
  765POPS   C3B11337  11.423  11.469   7.753  0.0580 -0.0610 -0.0854
  765POPS   C4B11338  11.589  11.278   8.146  0.0382 -0.0805  0.1489
  766POPS   CNO11339   5.069   7.836   5.110  0.3108 -0.1036 -0.3152
  766POPS   PO411340   4.791   8.028   5.485 -0.2091 -0.1780 -0.2556
  766POPS   GL111341   4.953   7.959   5.888  0.0604 -0.3763 -0.1759
  766POPS   GL211342   5.211   8.178   6.013  0.2601 -0.2754 -0.1239
  766POPS   C1A11343   4.937   7.970   6.343  0.2906  0.2022  0.1118
  766POPS   D2A11344   5.003   7.836   6.766  0.1110 -0.3563  0.0402
  766POPS   C3A11345   4.788   7.891   7.055  0.2086 -0.1060 -0.2777
  766POPS   C4A11346   4.608   7.830   7.525 -0.2063  0.0719  0.0980
  766POPS   C1B11347   5.217   8.326   6.457 -0.2075  0.0339 -0.0095
  766POPS   C2B11348   5.281   8.220   6.874  0.1227 -0.0307 -0.1598
  766POPS   C3B11349   5.357   8.177   7.325 -0.2631  0.1135 -0.0890
  766POPS   C4B11350   5.685   8.145   7.634 -0.0375 -0.1511  0.4921
  767POPS   CNO11351   6.690  17.110   5.623  0.2177  0.0094  0.2318
  767POPS   PO411352   6.841  16.789   5.981  0.0672  0.0220 -0.3587
  767POPS   GL111353   6.813  16.665   6.363 -0.2392  0.2166  0.3437
  767POPS   GL211354   6.800  16.354   6.509 -0.0289 -0.1663 -0.1638
  767POPS   C1A11355   7.068  16.790   6.742  0.0138  0.0126  0.1925
  767POPS   D2A11356   6.961  16.843   7.207  0.3380  0.0034  0.1047
  767POPS   C3A11357   6.968  17.226   7.384  0.2802 -0.0188 -0.0720
  767POPS   C4A11358   6.700  17.613   7.375 -0.1934  0.0216 -0.1079
  767POPS   C1B11359   6.830  16.141   6.775  0.4213  0.0945 -0.3491
  767POPS   C2B11360   6.801  15.823   7.180 -0.1988 -0.1259 -0.0397
  767POPS   C3B11361   6.835  15.406   7.396  0.3404 -0.2606  0.0463
  767POPS   C4B11362   6.791  14.969   7.480  0.1563 -0.3198 -0.0066
  768POPS   CNO11363   9.794   4.775   6.249 -0.2345 -0.1667  0.0626
  768POPS   PO411364   9.702   4.366   6.110 -0.2382  0.0185  0.0688
  768POPS   GL111365   9.584   4.390   6.574 -0.1747 -0.2634  0.0974
  768POPS   GL211366   9.594   4.739   6.680 -0.1230  0.1977 -0.2224
  768POPS   C1A11367   9.408   4.228   7.026 -0.2395 -0.1621  0.4027
  768POPS   D2A11368   9.534   4.323   7.437  0.0735  0.2203 -0.0572
  768POPS   C3A11369   9.820   4.189   7.859  0.3669 -0.0186 -0.1170
  768POPS   C4A11370   9.708   4.319   8.287 -0.2885  0.0132  0.4271
  768POPS   C1B11371   9.722   4.626   7.050 -0.1829  0.0435 -0.0829
  768POPS   C2B11372   9.697   4.879   7.429 -0.0852  0.3265 -0.1062
  768POPS   C3B11373   9.617   5.274   7.786 -0.3382  0.2334 -0.0009
  768POPS   C4B11374   9.464   5.587   7.940 -0.2472 -0.1603  0.3029
  769POPS   CNO11375   3.648   3.504   5.433  0.0087  0.2172 -0.3442
  769POPS   PO411376   3.318   3.672   5.437  0.1604  0.0023 -0.0422
  769POPS   GL111377   3.104   3.913   5.826  0.1134 -0.3269  0.0089
  769POPS   GL211378   2.688   3.954   5.871 -0.2812 -0.2563  0.0655
  769POPS   C1A11379   2.975   3.981   6.329  0.2545  0.0150  0.0253
  769POPS   D2A11380   3.059   4.202   6.752 -0.0058 -0.3194 -0.0081
  769POPS   C3A11381   3.316   4.134   7.127  0.0308  0.3543 -0.0563
  769POPS   C4A11382   3.634   3.956   7.385 -0.0583  0.2236  0.1169
  769POPS   C1B11383   2.919   4.364   6.006  0.2601  0.0608  0.3589
  769POPS   C2B11384   2.909   4.457   6.291  0.1389  0.1323 -0.1704
  769POPS   C3B11385   3.110   4.740   6.656  0.0699  0.0479 -0.2486
  769POPS   C4B11386   2.775   5.012   6.921  0.0647 -0.1086  0.0460
  770POPS   CNO11387   2.981  12.938   5.495 -0.3652  0.1777 -0.1658
  770POPS   PO411388   2.634  13.121   5.559 -0.0665 -0.0154  0.0982
  770POPS   GL111389   2.705  13.358   5.942 -0.0170 -0.2151 -0.1462
  770POPS   GL211390   2.382  13.400   5.999  0.0007  0.0048  0.2266
  770POPS   C1A11391   2.811  13.370   6.305 -0.0033 -0.1236 -0.1348
  770POPS   D2A11392   2.718  13.398   6.738 -0.0023 -0.2108 -0.1624
  770POPS   C3A11393   2.924  13.134   6.991  0.0841  0.0299 -0.1421
  770POPS   C4A11394   3.275  13.021   7.285  0.3581 -0.1352  0.0189
  770POPS   C1B11395   2.320  13.497   6.431 -0.2604  0.1348  0.0620
  770POPS   C2B11396   2.202  13.498   6.812 -0.0047  0.2833  0.2178
  770POPS   C3B11397   2.246  13.575   7.284  0.0081 -0.1437  0.2310
  770POPS   C4B11398   2.111  13.893   7.683  0.0819 -0.2389 -0.1793
  771POPS   CNO11399   9.223   1.935   5.525 -0.0413  0.0853 -0.2946
  771POPS   PO411400   9.206   1.785   5.994  0.0933 -0.2596 -0.2078
  771POPS   GL111401   9.122   1.866   6.345 -0.3333 -0.2963  0.2178
  771POPS   GL211402   9.196   2.139   6.510 -0.1256  0.3499 -0.0558
  771POPS   C1A11403   8.746   1.833   6.670  0.0217 -0.0504 -0.1084
  771POPS   D2A11404   8.542   1.794   7.066  0.2366 -0.2107  0.1354
  771POPS   C3A11405   8.613   1.459   7.279 -0.2528  0.0432  0.0913
  771POPS   C4A11406   8.518   1.013   7.440 -0.0198 -0.3869 -0.0727
  771POPS   C1B11407   9.138   2.156   6.997  0.0472 -0.2554  0.1288
  771POPS   C2B11408   9.037   2.129   7.409  0.1462  0.0572 -0.1096
  771POPS   C3B11409   8.860   2.293   7.724  0.3161  0.1786  0.0711
  771POPS   C4B11410   8.668   2.500   8.054 -0.0302 -0.1944  0.0160
  772POPS   CNO11411   0.715  14.495   5.050  0.1089 -0.2315  0.1068
  772POPS   PO411412   0.621  14.891   5.332  0.0390 -0.1234  0.2595
  772POPS   GL111413   0.633  14.871   5.764 -0.1667 -0.2164  0.0946
  772POPS   GL211414   0.323  14.870   6.000  0.0061  0.0433  0.1489
  772POPS   C1A11415   0.627  14.486   6.042  0.3546  0.0165  0.2463
  772POPS   D2A11416   0.541  14.084   5.943  0.3134 -0.1611 -0.1015
  772POPS   C3A11417   0.668  13.761   6.154  0.0436 -0.0730 -0.0279
  772POPS   C4A11418   0.875  13.601   6.510 -0.1180 -0.1133  0.2913
  772POPS   C1B11419   0.369  14.760   6.393 -0.3202  0.1157 -0.1397
  772POPS   C2B11420   0.403  14.509   6.726  0.2219 -0.2737  0.3197
  772POPS   C3B11421   0.237  14.642   7.122 -0.0172 -0.4831 -0.0524
  772POPS   C4B11422   0.408  14.786   7.566  0.1732  0.2627 -0.0070
  773POPS   CNO11423   5.974   1.492   5.903  0.1101 -0.0478  0.1138
  773POPS   PO411424   5.725   1.378   5.573  0.0081  0.0869  0.1932
  773POPS   GL111425   5.467   1.322   5.860 -0.0064 -0.0351 -0.1842
  773POPS   GL211426   5.557   1.421   6.232 -0.0318 -0.2213 -0.3743
  773POPS   C1A11427   5.033   1.309   6.140 -0.2696 -0.2431 -0.3182
  773POPS   D2A11428   4.806   1.616   6.407  0.3853 -0.1189 -0.0963
  773POPS   C3A11429   4.704   1.350   6.736  0.2322 -0.1155  0.3198
  773POPS   C4A11430   4.558   1.245   7.115 -0.1060  0.1507  0.1496
  773POPS   C1B11431   5.240   1.261   6.603  0.3394  0.0087 -0.1706
  773POPS   C2B11432   5.117   1.196   6.992  0.2175  0.0089  0.1627
  773POPS   C3B11433   4.958   0.989   7.301 -0.2512  0.0152 -0.1701
  773POPS   C4B11434   4.782   0.865   7.641  0.1182 -0.1354 -0.1603
  774POPS   CNO11435  14.341   6.002   5.311 -0.3609 -0.0017 -0.0836
  774POPS   PO411436  14.528   5.832   5.715  0.2033  0.1258  0.4312
  774POPS   GL111437  14.306   5.919   6.103  0.0940  0.0456  0.3968
  774POPS   GL211438  14.016   5.891   6.174  0.0145 -0.3008 -0.1147
  774POPS   C1A11439  14.270   5.843   6.591  0.1747  0.0672  0.0234
  774POPS   D2A11440  14.375   5.910   6.978 -0.3561  0.3448  0.1613
  774POPS   C3A11441  14.585   5.825   7.336  0.0606 -0.2812  0.1816
  774POPS   C4A11442  15.083   5.799   7.462  0.4453 -0.0125  0.0283
  774POPS   C1B11443  13.702   6.018   6.412 -0.0195 -0.3827 -0.2157
  774POPS   C2B11444  13.483   5.957   6.837  0.2517 -0.1891 -0.0053
  774POPS   C3B11445  13.573   6.146   7.202 -0.0014  0.2014  0.0946
  774POPS   C4B11446  13.638   6.535   7.167  0.0642 -0.1981  0.4782
  775POPS   CNO11447  17.595   2.655   5.688 -0.1785  0.1093  0.0345
  775POPS   PO411448  17.772   3.147   5.613 -0.2190  0.4505  0.2743
  775POPS   GL111449  17.774   3.033   5.974  0.3403  0.0977  0.0385
  775POPS   GL211450  17.356   2.983   5.960  0.1311 -0.1278 -0.0289
  775POPS   C1A11451  17.667   2.739   6.251 -0.1376  0.3014  0.0675
  775POPS   D2A11452  17.555   2.861   6.626 -0.2878 -0.1046 -0.0880
  775POPS   C3A11453  17.156   3.067   6.689  0.1606 -0.0310 -0.0851
  775POPS   C4A11454  16.709   2.920   6.716  0.1086  0.0798  0.0884
  775POPS   C1B11455  17.290   3.335   6.125 -0.2035  0.3071 -0.1877
  775POPS   C2B11456  17.582   3.288   6.377 -0.1603  0.1203 -0.0615
  775POPS   C3B11457  17.656   3.342   6.811 -0.0032 -0.0441  0.0949
  775POPS   C4B11458  17.730   3.274   7.265 -0.1170  0.0692  0.0199
  776POPS   CNO11459   7.190   6.619   5.944  0.0427  0.2263  0.0228
  776POPS   PO411460   6.990   6.285   6.163 -0.2379 -0.0203  0.3022
  776POPS   GL111461   6.781   6.105   6.481 -0.1855 -0.0082 -0.4944
  776POPS   GL211462   6.432   6.024   6.551 -0.0479  0.2902  0.1255
  776POPS   C1A11463   6.825   5.827   6.776  0.1418 -0.0506  0.2731
  776POPS   D2A11464   7.024   5.553   7.139 -0.4365  0.0882  0.1971
  776POPS   C3A11465   7.184   5.637   7.515  0.0301 -0.1742  0.0590
  776POPS   C4A11466   7.285   5.897   7.819 -0.2181  0.5864 -0.1102
  776POPS   C1B11467   6.241   6.489   6.706  0.4362  0.0494  0.0693
  776POPS   C2B11468   5.889   6.723   6.995 -0.2571 -0.2698 -0.0656
  776POPS   C3B11469   5.993   7.013   7.285  0.2208 -0.0322 -0.0761
  776POPS   C4B11470   5.763   7.428   7.178 -0.1403 -0.1999 -0.2659
  777POPS   CNO11471  14.440   3.632   6.138  0.0954 -0.1088 -0.6389
  777POPS   PO411472  14.016   3.230   6.037 -0.0233  0.1452  0.1086
  777POPS   GL111473  14.149   3.117   6.454  0.1742 -0.1108  0.1336
  777POPS   GL211474  14.310   3.371   6.600  0.0827 -0.0656  0.2825
  777POPS   C1A11475  14.068   3.039   6.891 -0.0703  0.0061 -0.0815
  777POPS   D2A11476  14.070   2.760   7.192 -0.0464  0.6389 -0.2571
  777POPS   C3A11477  14.014   2.799   7.540  0.0688 -0.2754 -0.0533
  777POPS   C4A11478  14.007   3.037   7.797  0.2220  0.2852  0.2155
  777POPS   C1B11479  14.322   3.564   7.003 -0.0198 -0.2553 -0.0409
  777POPS   C2B11480  14.567   3.591   7.266  0.2030  0.0601 -0.0929
  777POPS   C3B11481  14.596   3.935   7.566  0.0875  0.2234 -0.0085
  777POPS   C4B11482  14.292   3.970   7.904  0.2088 -0.0542  0.0046
  778POPS   CNO11483  12.729   8.849   5.881 -0.1150 -0.1364 -0.2007
  778POPS   PO411484  13.127   9.005   5.946  0.2270  0.0665 -0.2624
  778POPS   GL111485  13.308   9.122   6.336 -0.1815  0.0270  0.0415
  778POPS   GL211486  13.611   9.142   6.356 -0.0755  0.1161  0.2981
  778POPS   C1A11487  13.359   8.852   6.830  0.0902  0.1651  0.1226
  778POPS   D2A11488  13.262   8.876   7.266  0.0642 -0.1890 -0.1744
  778POPS   C3A11489  13.194   9.258   7.497 -0.1479  0.0604 -0.0602
  778POPS   C4A11490  13.458   9.572   7.730  0.2137  0.5017 -0.0359
  778POPS   C1B11491  13.816   9.002   6.719 -0.1264  0.0395 -0.0871
  778POPS   C2B11492  14.122   9.042   7.160 -0.2786  0.1946  0.0561
  778POPS   C3B11493  14.232   9.003   7.548  0.2181  0.0179 -0.0008
  778POPS   C4B11494  14.504   8.859   7.847 -0.1351 -0.1459 -0.2985
  779POPS   CNO11495  17.994  12.021   5.382 -0.0825  0.2726  0.0387
  779POPS   PO411496  17.818  11.831   5.183  0.0342 -0.0095  0.0384
  779POPS   GL111497  17.690  11.667   5.631 -0.0687 -0.0133 -0.1546
  779POPS   GL211498  17.927  11.735   5.840 -0.1864 -0.0985  0.0519
  779POPS   C1A11499  17.316  11.620   5.984 -0.2424  0.2198 -0.1867
  779POPS   D2A11500  17.441  11.511   6.448  0.0399 -0.0462 -0.3139
  779POPS   C3A11501  17.438  11.718   6.888  0.0047 -0.1448  0.0433
  779POPS   C4A11502  17.379  12.074   7.162  0.2245 -0.2542 -0.0600
  779POPS   C1B11503  18.356  11.754   6.133 -0.0138 -0.0760 -0.0078
  779POPS   C2B11504  18.397  11.584   6.444  0.3465 -0.1131  0.0137
  779POPS   C3B11505  18.351  11.476   6.871  0.0278  0.0915  0.0457
  779POPS   C4B11506  18.312  11.653   7.207 -0.0858  0.0243 -0.2953
  780POPS   CNO11507  10.543  10.860   5.451  0.3677  0.1083  0.0174
  780POPS   PO411508  10.676  10.821   5.852  0.1361  0.1897 -0.0488
  780POPS   GL111509  10.640  10.747   6.291 -0.1609  0.0634  0.0734
  780POPS   GL211510  10.842  10.553   6.382  0.1333 -0.0645 -0.1979
  780POPS   C1A11511  10.453  10.594   6.631  0.1515 -0.1109  0.3879
  780POPS   D2A11512  10.378  10.709   7.002  0.0205 -0.0328 -0.1880
  780POPS   C3A11513  10.614  10.704   7.345 -0.2093 -0.0713  0.1927
  780POPS   C4A11514  10.560  10.654   7.728 -0.1295  0.2489 -0.1900
  780POPS   C1B11515  11.050  10.447   6.808 -0.1979 -0.0549  0.1313
  780POPS   C2B11516  11.034  10.489   7.267 -0.2066 -0.3157  0.0088
  780POPS   C3B11517  11.264  10.664   7.621 -0.0099 -0.1080  0.1385
  780POPS   C4B11518  11.611  10.783   7.797  0.1054  0.0432  0.0460
  781POPS   CNO11519  13.967   2.255   6.205 -0.0111 -0.2472 -0.0660
  781POPS   PO411520  14.369   2.316   6.049  0.0919 -0.0313  0.2328
  781POPS   GL111521  14.463   2.367   6.473  0.0877  0.3090  0.1545
  781POPS   GL211522  14.357   2.062   6.597 -0.1223  0.1413  0.0379
  781POPS   C1A11523  14.472   2.584   6.846  0.1618 -0.2475 -0.0640
  781POPS   D2A11524  14.521   2.506   7.327 -0.0452  0.0292  0.1200
  781POPS   C3A11525  14.543   2.840   7.516 -0.3642  0.3624  0.0685
  781POPS   C4A11526  14.537   2.984   7.968 -0.3395  0.0793  0.1046
  781POPS   C1B11527  14.421   2.022   6.931 -0.0602  0.0260  0.0489
  781POPS   C2B11528  14.406   2.041   7.367  0.0494 -0.1987  0.0128
  781POPS   C3B11529  14.191   1.938   7.622 -0.0414  0.0546 -0.2165
  781POPS   C4B11530  14.457   1.963   8.056  0.2013  0.0006 -0.2256
  782POPS   CNO11531   4.994   5.893   5.511 -0.0536  0.0448 -0.2729
  782POPS   PO411532   4.601   6.115   5.618 -0.0336  0.0806  0.1695
  782POPS   GL111533   4.513   6.271   6.157 -0.0123  0.0463  0.0335
  782POPS   GL211534   4.140   6.310   6.250 -0.1205 -0.0153  0.2542
  782POPS   C1A11535   4.701   6.155   6.556  0.0933 -0.1658 -0.1317
  782POPS   D2A11536   5.139   5.960   6.734  0.0429 -0.3508  0.2940
  782POPS   C3A11537   5.209   5.922   7.169 -0.1043 -0.0123 -0.2888
  782POPS   C4A11538   5.233   6.050   7.659 -0.2045 -0.2539  0.1246
  782POPS   C1B11539   4.346   6.590   6.562  0.2699 -0.0170 -0.1843
  782POPS   C2B11540   4.282   6.502   6.912  0.0537 -0.1217 -0.1256
  782POPS   C3B11541   4.333   6.523   7.321 -0.2863  0.0268 -0.0404
  782POPS   C4B11542   4.281   6.437   7.744 -0.0058  0.1375 -0.0677
  783POPS   CNO11543  16.800   9.818   5.219 -0.0470  0.0906 -0.1067
  783POPS   PO411544  16.794  10.085   5.581  0.1624 -0.1831  0.2456
  783POPS   GL111545  16.828   9.854   6.013  0.3969 -0.1204 -0.0054
  783POPS   GL211546  17.123   9.667   6.016 -0.1192  0.1364  0.2556
  783POPS   C1A11547  16.973   9.924   6.422  0.0532  0.2060 -0.0259
  783POPS   D2A11548  16.839  10.275   6.761 -0.0494  0.0158 -0.1233
  783POPS   C3A11549  16.520  10.262   7.168 -0.0274 -0.3060  0.0436
  783POPS   C4A11550  16.578  10.559   7.524  0.2751  0.2322 -0.1810
  783POPS   C1B11551  17.208   9.478   6.442  0.0599  0.0828  0.1263
  783POPS   C2B11552  17.027   9.382   6.843 -0.1414 -0.2479 -0.1262
  783POPS   C3B11553  16.888   9.215   7.213  0.3475 -0.2158 -0.1167
  783POPS   C4B11554  16.711   9.462   7.547 -0.1723 -0.0781 -0.1505
  784POPS   CNO11555   4.385   2.497   6.198  0.4559  0.2328  0.0356
  784POPS   PO411556   4.538   2.162   6.238  0.0328  0.0915  0.1040
  784POPS   GL111557   4.540   2.347   6.658 -0.1105  0.1145 -0.0994
  784POPS   GL211558   4.704   2.067   6.802  0.0382 -0.2554 -0.0226
  784POPS   C1A11559   4.651   2.526   7.090  0.2738 -0.0844 -0.2924
  784POPS   D2A11560   4.662   2.571   7.535  0.0454  0.2576  0.0322
  784POPS   C3A11561   4.638   2.226   7.765  0.0728  0.1086 -0.0079
  784POPS   C4A11562   4.518   1.768   7.825 -0.1625  0.0663 -0.2874
  784POPS   C1B11563   5.032   1.880   6.813 -0.0227 -0.1604 -0.1962
  784POPS   C2B11564   5.371   1.689   6.830  0.0003 -0.1881  0.2736
  784POPS   C3B11565   5.642   1.420   7.102 -0.0755 -0.2297  0.0263
  784POPS   C4B11566   5.805   1.311   7.464 -0.0508  0.1268 -0.2882
  785POPS   CNO11567  12.892   6.290   5.599 -0.2745 -0.2519 -0.0704
  785POPS   PO411568  12.766   6.552   5.904  0.3842 -0.2157 -0.2365
  785POPS   GL111569  12.767   6.519   6.274 -0.2058  0.0069  0.0803
  785POPS   GL211570  12.734   6.206   6.564 -0.3624  0.0405  0.1880
  785POPS   C1A11571  12.753   6.657   6.733  0.1371 -0.5157  0.0929
  785POPS   D2A11572  12.496   6.820   7.129  0.0201  0.3315 -0.2632
  785POPS   C3A11573  12.548   6.664   7.623  0.3166  0.2106 -0.0751
  785POPS   C4A11574  12.183   6.709   7.933 -0.1262  0.3644  0.0934
  785POPS   C1B11575  13.046   6.229   6.764  0.3353  0.1055 -0.1084
  785POPS   C2B11576  13.116   6.421   7.037  0.2120 -0.1079 -0.1398
  785POPS   C3B11577  13.214   6.278   7.501  0.1508 -0.1757  0.1378
  785POPS   C4B11578  13.387   6.295   7.937 -0.1490 -0.2053  0.0047
  786POPS   CNO11579  10.412  15.484   6.095  0.0589  0.0927  0.1696
  786POPS   PO411580  10.375  15.046   5.980 -0.0223  0.2450  0.0365
  786POPS   GL111581  10.129  15.165   6.439 -0.0089  0.2684 -0.0716
  786POPS   GL211582  10.027  14.901   6.619 -0.1882 -0.2166 -0.5019
  786POPS   C1A11583  10.119  15.282   6.975 -0.0578 -0.3116 -0.0907
  786POPS   D2A11584  10.184  15.242   7.330 -0.0481 -0.0297  0.0469
  786POPS   C3A11585  10.008  15.338   7.709 -0.0812  0.3916  0.3320
  786POPS   C4A11586   9.689  15.547   8.138 -0.1587  0.2664 -0.2095
  786POPS   C1B11587  10.081  14.617   6.999  0.0505 -0.1143 -0.1407
  786POPS   C2B11588  10.211  14.555   7.409 -0.3720 -0.1407  0.4734
  786POPS   C3B11589  10.432  14.536   7.845  0.0389 -0.1119  0.0627
  786POPS   C4B11590  10.362  14.403   8.310  0.0526 -0.2307 -0.0955
  787POPS   CNO11591   2.775  12.179   5.290  0.1305 -0.0164  0.4259
  787POPS   PO411592   2.705  11.718   5.313  0.3979  0.0719  0.2337
  787POPS   GL111593   2.657  11.761   5.699 -0.1120 -0.0398 -0.1633
  787POPS   GL211594   2.798  11.967   5.882 -0.2562  0.0487 -0.2852
  787POPS   C1A11595   2.587  11.533   6.055  0.3076  0.1493  0.1141
  787POPS   D2A11596   2.323  11.450   6.458 -0.5681 -0.3261 -0.0425
  787POPS   C3A11597   2.500  11.610   6.832  0.2868 -0.2089  0.0850
  787POPS   C4A11598   2.809  11.473   7.157  0.2510 -0.0977 -0.1966
  787POPS   C1B11599   2.882  11.807   6.280 -0.1361 -0.2222 -0.0564
  787POPS   C2B11600   2.928  11.834   6.785  0.2722 -0.1704  0.0360
  787POPS   C3B11601   3.138  11.875   7.126  0.0414 -0.2393  0.1512
  787POPS   C4B11602   3.386  11.877   7.434 -0.1771 -0.1612 -0.1112
  788POPS   CNO11603  16.009  12.113   5.082 -0.0378 -0.4309  0.1778
  788POPS   PO411604  16.193  12.267   5.435  0.2351  0.1001 -0.1393
  788POPS   GL111605  15.978  12.188   5.894 -0.0407  0.1829 -0.3994
  788POPS   GL211606  15.660  12.280   5.988  0.2421  0.3587 -0.1834
  788POPS   C1A11607  15.928  11.987   6.290 -0.3163 -0.1995 -0.0399
  788POPS   D2A11608  16.224  11.734   6.604  0.0789 -0.2453 -0.2788
  788POPS   C3A11609  16.380  11.894   6.947  0.0262  0.1847 -0.1452
  788POPS   C4A11610  16.312  12.057   7.451 -0.1549 -0.3512 -0.3637
  788POPS   C1B11611  15.719  12.402   6.379 -0.0229 -0.0369  0.1324
  788POPS   C2B11612  15.864  12.122   6.780 -0.0998 -0.0449  0.0243
  788POPS   C3B11613  15.870  12.011   7.242 -0.0236 -0.1841  0.2010
  788POPS   C4B11614  15.649  12.033   7.683 -0.2249  0.1187 -0.0882
  789POPS   CNO11615   0.585  17.939   5.295 -0.2787  0.3986 -0.2125
  789POPS   PO411616   0.241  17.651   5.346 -0.0333 -0.3813  0.1092
  789POPS   GL111617   0.260  17.368   5.649 -0.1154  0.1202 -0.1270
  789POPS   GL211618  -0.015  17.122   5.818 -0.0761 -0.3384 -0.3521
  789POPS   C1A11619   0.452  17.221   5.938  0.1036  0.0214 -0.0622
  789POPS   D2A11620   0.444  16.809   6.029  0.2614 -0.0293  0.0398
  789POPS   C3A11621   0.176  16.563   6.205 -0.0029 -0.1831 -0.2455
  789POPS   C4A11622  -0.223  16.533   6.034  0.1119  0.0314  0.0102
  789POPS   C1B11623  -0.111  17.020   6.277 -0.0897  0.1794  0.0297
  789POPS   C2B11624  -0.092  16.773   6.566  0.2314 -0.0460 -0.5736
  789POPS   C3B11625  -0.224  16.761   6.935 -0.1819  0.0851 -0.0425
  789POPS   C4B11626  -0.325  16.321   7.087 -0.0173  0.2402  0.1575
  790POPS   CNO11627   2.807   6.198   5.221 -0.2559  0.0885  0.0102
  790POPS   PO411628   2.617   6.469   5.375 -0.0568  0.0585 -0.1450
  790POPS   GL111629   2.796   6.689   5.756  0.0586 -0.0228  0.0824
  790POPS   GL211630   2.760   6.320   5.988 -0.0752  0.2811  0.2309
  790POPS   C1A11631   2.606   6.749   6.167 -0.0925 -0.1978 -0.1296
  790POPS   D2A11632   2.582   6.555   6.458 -0.2436  0.0357  0.2025
  790POPS   C3A11633   2.309   6.560   6.764  0.3179  0.2892  0.1510
  790POPS   C4A11634   2.485   6.522   7.189 -0.2513 -0.0312  0.1212
  790POPS   C1B11635   3.032   6.375   6.366 -0.0164 -0.1605 -0.0888
  790POPS   C2B11636   2.855   6.540   6.838  0.0656 -0.2106 -0.1061
  790POPS   C3B11637   3.055   6.568   7.198 -0.0450  0.2031  0.1639
  790POPS   C4B11638   3.373   6.435   7.523 -0.1412 -0.1366  0.1772
  791POPS   CNO11639  12.472  10.837   6.121 -0.3453 -0.3178  0.0234
  791POPS   PO411640  12.804  10.771   5.811 -0.3272  0.1318  0.0094
  791POPS   GL111641  12.979  10.541   6.185  0.3126 -0.0537  0.0077
  791POPS   GL211642  12.692  10.596   6.477  0.0633  0.2301 -0.0610
  791POPS   C1A11643  13.212  10.638   6.501 -0.0648 -0.1927  0.2289
  791POPS   D2A11644  13.422  10.904   6.751 -0.1703 -0.0777  0.2184
  791POPS   C3A11645  13.362  10.985   7.118 -0.1175  0.0347  0.2697
  791POPS   C4A11646  13.456  10.669   7.464  0.1465 -0.0185 -0.1314
  791POPS   C1B11647  12.856  10.753   6.855 -0.1141  0.1900  0.0313
  791POPS   C2B11648  12.901  10.780   7.198  0.0318  0.0883 -0.0533
  791POPS   C3B11649  12.912  10.590   7.571  0.3459 -0.1546  0.2057
  791POPS   C4B11650  12.564  10.505   7.739 -0.0092 -0.1455  0.0248
  792POPS   CNO11651   6.245  11.653   5.582 -0.3325  0.2360 -0.1183
  792POPS   PO411652   6.360  11.282   5.792  0.0967  0.1397 -0.1180
  792POPS   GL111653   6.280  10.854   6.037 -0.0011 -0.0619 -0.0926
  792POPS   GL211654   6.029  10.542   5.923 -0.2554 -0.0790  0.0823
  792POPS   C1A11655   6.143  10.860   6.432 -0.3651  0.0913 -0.5740
  792POPS   D2A11656   5.816  10.775   6.697 -0.1395 -0.0587  0.1723
  792POPS   C3A11657   5.809  10.867   7.138  0.0044 -0.0182 -0.0377
  792POPS   C4A11658   5.876  10.874   7.583 -0.1036  0.0443 -0.0792
  792POPS   C1B11659   5.941  10.425   6.227 -0.0042 -0.1700 -0.1394
  792POPS   C2B11660   6.022  10.331   6.643 -0.1438  0.2129 -0.2001
  792POPS   C3B11661   5.954  10.146   6.994 -0.0579  0.1309 -0.0791
  792POPS   C4B11662   6.058   9.809   7.260 -0.1577 -0.5507 -0.1748
  793POPS   CNO11663   2.031   6.355   5.461  0.0333  0.2138 -0.1366
  793POPS   PO411664   1.830   6.886   5.578  0.0898  0.0348  0.1523
  793POPS   GL111665   1.650   7.060   5.971  0.0943  0.2561  0.1946
  793POPS   GL211666   1.397   6.836   5.918 -0.2524 -0.0971 -0.2492
  793POPS   C1A11667   1.539   7.141   6.361  0.0706  0.0812 -0.2689
  793POPS   D2A11668   1.628   7.496   6.707  0.0446 -0.0099  0.0349
  793POPS   C3A11669   1.382   7.783   6.990  0.0513 -0.2720 -0.2641
  793POPS   C4A11670   1.190   7.897   7.377 -0.0617 -0.0306  0.1489
  793POPS   C1B11671   1.265   6.418   6.103  0.1645  0.1069 -0.0347
  793POPS   C2B11672   1.239   6.316   6.574  0.2832 -0.1357  0.2420
  793POPS   C3B11673   1.383   6.153   6.918 -0.2801  0.0047 -0.0842
  793POPS   C4B11674   1.551   6.348   7.251 -0.0518  0.0940  0.0756
  794POPS   CNO11675   8.387   8.909   5.704  0.1287  0.3420 -0.0772
  794POPS   PO411676   8.206   9.365   5.573  0.0919 -0.2165 -0.0521
  794POPS   GL111677   8.004   9.197   5.877 -0.2282 -0.1448 -0.1934
  794POPS   GL211678   7.790   9.416   5.882 -0.1568  0.3386  0.1211
  794POPS   C1A11679   7.980   9.317   6.325 -0.1741  0.2745 -0.0515
  794POPS   D2A11680   8.219   9.292   6.726 -0.0113  0.2431 -0.0436
  794POPS   C3A11681   8.131   9.257   7.087 -0.0644 -0.0328  0.0252
  794POPS   C4A11682   8.008   9.550   7.438 -0.0936 -0.0765 -0.2422
  794POPS   C1B11683   7.484   9.408   6.227  0.0088 -0.0812 -0.1730
  794POPS   C2B11684   7.242   9.506   6.483  0.0095  0.0352  0.1679
  794POPS   C3B11685   7.269   9.744   6.864 -0.4208 -0.1139 -0.3431
  794POPS   C4B11686   7.057   9.524   7.256 -0.0043  0.0479 -0.2169
  795POPS   CNO11687  18.354   9.304   5.013 -0.0808 -0.0038  0.1403
  795POPS   PO411688  18.619   9.618   5.188  0.1238 -0.1473  0.3877
  795POPS   GL111689  18.548   9.575   5.668  0.0785 -0.4622 -0.2596
  795POPS   GL211690  18.914   9.676   5.777  0.3549  0.1093 -0.0134
  795POPS   C1A11691  18.405   9.546   6.109  0.0898  0.0048 -0.3640
  795POPS   D2A11692  18.280   9.542   6.599  0.2335  0.1678 -0.2644
  795POPS   C3A11693  18.688   9.438   6.921  0.2649 -0.0541  0.2456
  795POPS   C4A11694  18.901   9.106   6.769  0.0767 -0.2500  0.1636
  795POPS   C1B11695  19.313   9.351   5.937 -0.0159 -0.2844 -0.2879
  795POPS   C2B11696  19.659   9.343   6.197  0.3738  0.0175  0.0508
  795POPS   C3B11697  19.714   9.436   6.635 -0.0458 -0.1355 -0.1186
  795POPS   C4B11698  19.887   9.675   6.945  0.0121 -0.0996  0.0401
  796POPS   CNO11699  11.245   4.878   5.991  0.3085 -0.2132 -0.2695
  796POPS   PO411700  11.396   5.042   6.249  0.3100 -0.0200 -0.1981
  796POPS   GL111701  11.529   5.142   6.646  0.0579  0.4305 -0.1577
  796POPS   GL211702  11.544   4.764   6.638  0.0569  0.3168 -0.1941
  796POPS   C1A11703  11.273   5.207   6.890  0.1780 -0.1371 -0.1224
  796POPS   D2A11704  11.062   5.104   7.258 -0.3051  0.2082 -0.0348
  796POPS   C3A11705  10.981   5.122   7.677 -0.0326 -0.1164  0.0507
  796POPS   C4A11706  11.346   5.245   7.892  0.0997 -0.1272 -0.1540
  796POPS   C1B11707  11.607   4.870   7.076 -0.0603  0.1177  0.1297
  796POPS   C2B11708  11.461   4.838   7.330 -0.0619 -0.4680  0.1093
  796POPS   C3B11709  11.298   4.766   7.637 -0.1428  0.0914 -0.1306
  796POPS   C4B11710  10.814   4.701   7.828  0.1003  0.0076  0.3044
  797POPS   CNO11711   3.827   2.101   5.635  0.0031 -0.4062  0.0845
  797POPS   PO411712   3.772   1.721   5.893  0.2972  0.1475  0.2759
  797POPS   GL111713   3.743   1.819   6.317  0.0931  0.0283  0.0459
  797POPS   GL211714   3.464   1.632   6.455  0.0369 -0.1569 -0.0871
  797POPS   C1A11715   3.745   1.958   6.789  0.1467  0.1449  0.2691
  797POPS   D2A11716   3.824   2.096   7.248 -0.1282 -0.1576 -0.0975
  797POPS   C3A11717   4.067   2.055   7.549  0.0370  0.1033  0.2605
  797POPS   C4A11718   4.540   2.017   7.307  0.0795 -0.1269 -0.2415
  797POPS   C1B11719   3.164   1.636   6.921 -0.0013 -0.0309 -0.0634
  797POPS   C2B11720   2.841   1.523   7.097 -0.0146  0.0336  0.1420
  797POPS   C3B11721   2.507   1.606   7.302 -0.1421 -0.0337 -0.0049
  797POPS   C4B11722   2.246   1.841   7.531 -0.2623 -0.1989 -0.1081
  798POPS   CNO11723   6.252  16.411   5.679  0.1832  0.2210 -0.3577
  798POPS   PO411724   6.352  16.773   5.799 -0.1147 -0.2079 -0.1259
  798POPS   GL111725   6.344  16.956   6.213  0.2842 -0.1666  0.0568
  798POPS   GL211726   6.247  17.240   6.247  0.1439 -0.0230 -0.1487
  798POPS   C1A11727   6.664  17.048   6.581 -0.0165 -0.0191  0.2896
  798POPS   D2A11728   6.732  17.188   6.964 -0.1781  0.0614  0.0437
  798POPS   C3A11729   6.506  17.010   7.291  0.1470 -0.1076 -0.1340
  798POPS   C4A11730   6.301  16.748   7.406  0.2437  0.0055  0.2581
  798POPS   C1B11731   6.132  17.170   6.706 -0.0803 -0.1689  0.2187
  798POPS   C2B11732   6.277  17.456   7.117  0.2314  0.3396 -0.0179
  798POPS   C3B11733   6.211  17.608   7.540  0.0811  0.1586 -0.1516
  798POPS   C4B11734   6.250  17.581   8.019 -0.2886  0.2011 -0.4705
  799POPS   CNO11735   6.303   7.265   5.764  0.1154  0.0813 -0.0729
  799POPS   PO411736   6.155   7.476   6.143 -0.0174 -0.5322 -0.1014
  799POPS   GL111737   6.180   7.309   6.559  0.3084 -0.0528  0.0352
  799POPS   GL211738   6.105   6.946   6.593  0.2913 -0.1495  0.1216
  799POPS   C1A11739   6.180   7.399   6.998 -0.1138 -0.0769  0.0420
  799POPS   D2A11740   6.545   7.526   7.176 -0.1789  0.0278  0.2915
  799POPS   C3A11741   6.847   7.838   7.053  0.0733  0.1750 -0.1890
  799POPS   C4A11742   7.079   8.236   7.005 -0.1390 -0.0237 -0.1215
  799POPS   C1B11743   5.737   7.211   6.747  0.0213  0.1300  0.1044
  799POPS   C2B11744   5.319   7.287   6.886  0.0040 -0.0171 -0.0581
  799POPS   C3B11745   5.313   7.585   7.210  0.0775  0.1751  0.0467
  799POPS   C4B11746   5.519   7.658   7.606 -0.0802 -0.0301 -0.0091
  800POPS   CNO11747   0.464   6.227   4.991  0.0920 -0.0275 -0.1077
  800POPS   PO411748   0.802   6.095   5.179 -0.2717 -0.6122  0.1414
  800POPS   GL111749   0.621   6.315   5.452  0.0397 -0.0947 -0.2519
  800POPS   GL211750   0.496   6.114   5.620 -0.1330  0.0718  0.0762
  800POPS   C1A11751   0.896   6.642   5.730  0.1657 -0.6210  0.1118
  800POPS   D2A11752   0.994   7.121   5.821 -0.1094  0.0004  0.1678
  800POPS   C3A11753   0.691   7.312   5.983  0.1084 -0.2323  0.0383
  800POPS   C4A11754   0.379   7.633   5.907  0.1890 -0.2031  0.0739
  800POPS   C1B11755   0.787   6.188   5.987 -0.7570  0.0442  0.2044
  800POPS   C2B11756   0.697   6.388   6.439 -0.3397 -0.1638 -0.0297
  800POPS   C3B11757   0.729   6.694   6.788 -0.1738  0.0638 -0.1794
  800POPS   C4B11758   0.858   6.949   7.042  0.0114  0.2776  0.4058
  801POPS   CNO11759  10.446  17.479   6.211  0.0333  0.2028 -0.2399
  801POPS   PO411760  10.467  17.904   6.248  0.2951 -0.4722  0.2568
  801POPS   GL111761  10.335  18.122   6.608  0.0017  0.1638  0.0172
  801POPS   GL211762  10.243  18.509   6.538  0.2234 -0.0153 -0.1394
  801POPS   C1A11763  10.322  17.972   6.998  0.2255  0.0016  0.1492
  801POPS   D2A11764  10.124  17.772   7.164 -0.2410  0.2735  0.1931
  801POPS   C3A11765  10.111  17.338   7.130 -0.1090  0.0799  0.0493
  801POPS   C4A11766  10.115  16.913   7.246  0.1046 -0.2371 -0.1670
  801POPS   C1B11767  10.107  18.453   6.920  0.2704  0.0754  0.0561
  801POPS   C2B11768  10.085  18.281   7.332  0.0003  0.0652 -0.0670
  801POPS   C3B11769  10.117  18.033   7.827  0.2042 -0.0914 -0.1160
  801POPS   C4B11770   9.717  17.926   8.081  0.0186 -0.1134  0.1323
  802POPS   CNO11771  13.379   2.872   5.755  0.0423 -0.0474 -0.1907
  802POPS   PO411772  13.592   2.847   6.007  0.1551  0.1449 -0.1127
  802POPS   GL111773  13.484   2.682   6.437  0.0229  0.3633  0.1151
  802POPS   GL211774  13.415   2.304   6.521 -0.0354 -0.0811  0.1164
  802POPS   C1A11775  13.395   2.621   6.886  0.2182 -0.1141 -0.2586
  802POPS   D2A11776  13.358   2.550   7.266  0.3288 -0.1559 -0.2646
  802POPS   C3A11777  13.306   2.473   7.771  0.0687  0.2256 -0.0878
  802POPS   C4A11778  13.275   2.310   8.208 -0.1422 -0.2806  0.1805
  802POPS   C1B11779  13.401   2.145   6.907 -0.0567  0.1760  0.0225
  802POPS   C2B11780  13.364   2.042   7.306  0.3612 -0.0419  0.3243
  802POPS   C3B11781  13.386   1.987   7.700  0.0027 -0.4045 -0.4419
  802POPS   C4B11782  13.446   1.643   7.863  0.1935 -0.2231 -0.1713
  803POPS   CNO11783   1.864   1.256   5.406  0.2943 -0.1844 -0.0178
  803POPS   PO411784   1.511   1.649   5.393  0.0694  0.0844 -0.0517
  803POPS   GL111785   1.606   1.738   5.903 -0.2904  0.1383  0.2452
  803POPS   GL211786   1.435   1.618   6.038 -0.1195 -0.1257 -0.0772
  803POPS   C1A11787   1.787   1.891   6.418  0.1823  0.0280  0.2662
  803POPS   D2A11788   1.624   1.796   6.783 -0.0987 -0.1360 -0.2033
  803POPS   C3A11789   1.104   1.809   6.817  0.0152  0.1869  0.1047
  803POPS   C4A11790   0.574   1.848   6.631 -0.0731  0.2639 -0.1427
  803POPS   C1B11791   1.356   1.428   6.473  0.0838  0.0428 -0.2078
  803POPS   C2B11792   1.400   1.349   6.968 -0.2646  0.1893  0.2635
  803POPS   C3B11793   1.456   1.268   7.301 -0.0135  0.0079 -0.1343
  803POPS   C4B11794   1.662   1.208   7.762  0.1641 -0.0613 -0.1240
  804POPS   CNO11795   5.327  11.718   5.118  0.0237 -0.1759  0.0030
  804POPS   PO411796   5.069  11.356   5.375 -0.3636 -0.2169 -0.0318
  804POPS   GL111797   5.057  11.259   5.842 -0.4176 -0.2245 -0.1528
  804POPS   GL211798   4.795  11.425   5.873 -0.0055 -0.0315  0.2022
  804POPS   C1A11799   5.420  11.387   6.101 -0.1560 -0.5086  0.2353
  804POPS   D2A11800   5.547  11.501   6.579 -0.2424  0.3002 -0.1555
  804POPS   C3A11801   5.430  11.393   6.890 -0.0952  0.1207  0.2093
  804POPS   C4A11802   5.548  11.293   7.301  0.1335  0.1035  0.0685
  804POPS   C1B11803   4.610  11.339   6.228  0.1438 -0.2284 -0.2570
  804POPS   C2B11804   4.173  11.326   6.468 -0.0420  0.1506  0.2522
  804POPS   C3B11805   4.066  11.206   6.945  0.0824 -0.2196 -0.0910
  804POPS   C4B11806   3.805  11.276   7.411  0.0380  0.1956 -0.2007
  805POPS   CNO11807   7.093   7.808   5.771  0.0111  0.2006  0.0080
  805POPS   PO411808   6.639   7.694   5.910 -0.0412  0.2650 -0.0583
  805POPS   GL111809   6.737   7.741   6.373 -0.1261 -0.1591 -0.1589
  805POPS   GL211810   6.659   7.527   6.698 -0.3605 -0.2307  0.0976
  805POPS   C1A11811   7.096   7.677   6.603 -0.0180 -0.1516  0.0499
  805POPS   D2A11812   7.359   7.784   6.970  0.2998 -0.2401 -0.1625
  805POPS   C3A11813   7.777   7.815   7.023 -0.2557 -0.1625  0.0417
  805POPS   C4A11814   8.204   8.057   7.159  0.1075 -0.2322  0.0054
  805POPS   C1B11815   6.451   7.854   6.790 -0.1465  0.0236  0.1064
  805POPS   C2B11816   6.541   8.317   7.082  0.1285  0.0285  0.0438
  805POPS   C3B11817   6.303   8.690   7.194 -0.0882 -0.2930 -0.3491
  805POPS   C4B11818   6.146   8.894   7.437  0.1476  0.0131  0.1018
  806POPS   CNO11819  10.154   8.896   6.080  0.0630 -0.0080 -0.2203
  806POPS   PO411820  10.309   8.378   6.103 -0.2977  0.0332  0.3073
  806POPS   GL111821  10.331   8.539   6.471  0.1085  0.2186 -0.1338
  806POPS   GL211822  10.598   8.610   6.670 -0.2727 -0.3226 -0.2759
  806POPS   C1A11823  10.147   8.453   6.854  0.0369  0.2426  0.1233
  806POPS   D2A11824  10.084   8.303   7.283  0.0334 -0.0207  0.0663
  806POPS   C3A11825  10.210   7.997   7.452 -0.1398  0.3899 -0.2752
  806POPS   C4A11826  10.451   7.609   7.634  0.1521  0.3395  0.1175
  806POPS   C1B11827  10.629   8.880   6.836  0.0393 -0.0582 -0.1755
  806POPS   C2B11828  10.408   8.923   7.195  0.0717 -0.1411 -0.1912
  806POPS   C3B11829  10.269   8.706   7.505 -0.3150  0.1056 -0.1787
  806POPS   C4B11830  10.129   8.463   7.749 -0.4112 -0.2198  0.0838
  807POPS   CNO11831  14.413   4.600   5.313  0.0370 -0.1209 -0.0888
  807POPS   PO411832  14.577   4.789   5.687 -0.2213  0.2302 -0.0857
  807POPS   GL111833  14.580   4.934   6.219  0.1954 -0.0257 -0.1016
  807POPS   GL211834  14.200   4.917   6.402  0.1999  0.1930  0.0251
  807POPS   C1A11835  14.916   4.897   6.483  0.0867  0.2547  0.3581
  807POPS   D2A11836  14.970   5.013   6.868  0.0121  0.0716  0.1495
  807POPS   C3A11837  15.279   5.185   7.046  0.0707  0.1673 -0.0918
  807POPS   C4A11838  15.492   5.380   7.312  0.0227  0.1451 -0.1984
  807POPS   C1B11839  14.009   4.868   6.732 -0.0213 -0.0112  0.0514
  807POPS   C2B11840  14.210   4.791   7.229 -0.1301  0.2202 -0.1649
  807POPS   C3B11841  14.306   4.916   7.554 -0.0111 -0.0976 -0.1016
  807POPS   C4B11842  14.690   4.965   7.795  0.0428  0.0086 -0.0781
  808POPS   CNO11843   9.142  12.261   6.472  0.1796  0.2290  0.0594
  808POPS   PO411844   9.481  12.132   6.069 -0.1673 -0.1968 -0.0232
  808POPS   GL111845   9.608  12.484   6.351 -0.1242  0.2698  0.3402
  808POPS   GL211846  10.018  12.569   6.464  0.3194  0.2007  0.2028
  808POPS   C1A11847   9.434  12.525   6.827  0.1494  0.2419  0.0244
  808POPS   D2A11848   9.608  12.608   7.287 -0.2942  0.1262  0.3495
  808POPS   C3A11849   9.480  12.381   7.581  0.2566  0.1035  0.1918
  808POPS   C4A11850   9.500  12.260   7.948  0.3008  0.0652 -0.0609
  808POPS   C1B11851  10.280  12.536   6.824 -0.0804  0.2299  0.1440
  808POPS   C2B11852  10.298  12.678   7.255 -0.2468 -0.0880 -0.0212
  808POPS   C3B11853  10.499  12.660   7.753  0.0465  0.1729  0.0413
  808POPS   C4B11854  10.468  12.590   8.165 -0.0044  0.1411  0.0239
  809POPS   CNO11855  15.754  17.342   4.705  0.2738 -0.0717 -0.1604
  809POPS   PO411856  15.894  17.449   5.133  0.0555  0.0940  0.0568
  809POPS   GL111857  15.929  17.480   5.531  0.2431 -0.3420  0.1265
  809POPS   GL211858  16.107  17.297   5.711 -0.0135 -0.0933 -0.2789
  809POPS   C1A11859  15.559  17.547   5.917 -0.1176  0.0019 -0.0613
  809POPS   D2A11860  15.443  17.265   6.183  0.1298  0.2436 -0.1187
  809POPS   C3A11861  15.338  17.167   6.556  0.0172 -0.1561 -0.1539
  809POPS   C4A11862  15.165  16.884   6.766 -0.2985  0.1594  0.1889
  809POPS   C1B11863  15.998  17.371   6.138  0.1453  0.0472 -0.4139
  809POPS   C2B11864  15.945  17.164   6.575 -0.2302 -0.0141 -0.6898
  809POPS   C3B11865  15.670  16.961   6.900 -0.0532  0.2246  0.3003
  809POPS   C4B11866  15.365  17.121   7.185  0.1135  0.0404 -0.2275
  810POPS   CNO11867   3.771  16.393   5.246  0.0827 -0.2381  0.0883
  810POPS   PO411868   4.074  16.380   5.436  0.1644  0.0435 -0.0185
  810POPS   GL111869   4.030  16.172   5.873 -0.1013  0.2672 -0.1225
  810POPS   GL211870   4.034  15.875   5.941 -0.0452  0.1996 -0.1709
  810POPS   C1A11871   3.853  16.383   6.306 -0.0182  0.0366 -0.0209
  810POPS   D2A11872   3.887  16.587   6.738  0.0879  0.2954 -0.1541
  810POPS   C3A11873   3.828  16.706   7.196 -0.0524 -0.1774  0.0690
  810POPS   C4A11874   3.877  16.790   7.677  0.1671  0.2335 -0.0000
  810POPS   C1B11875   4.130  15.954   6.360 -0.1257 -0.1882  0.0460
  810POPS   C2B11876   4.161  16.082   6.758  0.2245 -0.0359 -0.2230
  810POPS   C3B11877   4.023  16.219   7.145 -0.2043  0.0578  0.1958
  810POPS   C4B11878   3.989  16.268   7.641 -0.0532 -0.2959 -0.2318
  811YOPS   CNO11879   7.907   1.271   5.817 -0.0754 -0.3686 -0.1613
  811YOPS   PO411880   7.814   1.708   5.767  0.2753  0.1090  0.1124
  811YOPS   GL111881   7.873   1.692   6.174 -0.1113 -0.1845 -0.3209
  811YOPS   GL211882   8.173   1.539   6.266 -0.2391 -0.4233  0.0088
  811YOPS   C1A11883   7.710   1.576   6.632 -0.2205 -0.1077 -0.1506
  811YOPS   D2A11884   7.569   1.438   7.073 -0.0085 -0.0180  0.0036
  811YOPS   C3A11885   7.707   1.535   7.491 -0.1732  0.0745  0.1104
  811YOPS   C4A11886   7.660   1.936   7.554 -0.2390 -0.0695 -0.0660
  811YOPS   C1B11887   8.229   1.743   6.638  0.5065  0.2689  0.3808
  811YOPS   C2B11888   8.121   2.050   6.909  0.1181  0.0632 -0.2958
  811YOPS   D3B11889   8.124   2.045   7.308  0.0797  0.3067  0.0254
  811YOPS   C4B11890   8.048   1.625   7.127 -0.1918  0.1999 -0.0331
  812YOPS   CNO11891   3.714  12.393   5.540 -0.0580  0.0277  0.2961
  812YOPS   PO411892   3.220  12.438   5.390 -0.0206 -0.3936  0.3416
  812YOPS   GL111893   2.963  12.438   5.674  0.0501 -0.2091  0.2656
  812YOPS   GL211894   2.575  12.488   5.744 -0.0039 -0.0878 -0.0490
  812YOPS   C1A11895   3.004  12.309   6.098 -0.3101 -0.0857  0.1323
  812YOPS   D2A11896   2.849  12.371   6.501 -0.1886 -0.1866  0.2627
  812YOPS   C3A11897   2.828  12.689   6.678 -0.1965  0.0395  0.2302
  812YOPS   C4A11898   2.454  13.060   6.481  0.0869  0.1325  0.3763
  812YOPS   C1B11899   2.456  12.563   6.137  0.3638  0.0302  0.0548
  812YOPS   C2B11900   2.328  12.595   6.541 -0.4039 -0.0377 -0.0261
  812YOPS   D3B11901   2.433  12.706   6.928  0.0845  0.0140  0.2488
  812YOPS   C4B11902   2.414  13.162   7.116 -0.0433 -0.1139  0.0911
  813YOPS   CNO11903  14.514   8.877   5.335 -0.1881 -0.0980 -0.1078
  813YOPS   PO411904  14.657   9.093   5.645 -0.1321  0.1108 -0.0187
  813YOPS   GL111905  14.844   9.330   5.850  0.0035 -0.0836 -0.2503
  813YOPS   GL211906  15.067   9.538   5.547  0.0144  0.1169 -0.1359
  813YOPS   C1A11907  15.183   9.430   6.269 -0.2745 -0.0786  0.0630
  813YOPS   D2A11908  15.218   9.529   6.639 -0.2329 -0.4581  0.0425
  813YOPS   C3A11909  15.257   9.516   7.083 -0.1840 -0.0628 -0.1118
  813YOPS   C4A11910  15.635   9.627   7.268  0.0617 -0.0143  0.0858
  813YOPS   C1B11911  15.172   9.741   5.899 -0.1289  0.1701  0.0850
  813YOPS   C2B11912  14.888   9.822   6.267  0.1467 -0.0670  0.1501
  813YOPS   D3B11913  14.871  10.007   6.629 -0.0176 -0.0102 -0.0086
  813YOPS   C4B11914  15.236   9.989   6.898  0.0010  0.3152  0.4403
  814YOPS   CNO11915   9.205   2.901   5.492  0.2770  0.3087  0.0404
  814YOPS   PO411916   9.103   3.000   5.934 -0.1030 -0.0641  0.1377
  814YOPS   GL111917   8.792   2.913   6.391  0.0225 -0.1075 -0.0111
  814YOPS   GL211918   8.766   3.187   6.572 -0.1219 -0.0528  0.0803
  814YOPS   C1A11919   8.532   2.846   6.824 -0.0220 -0.0076 -0.2220
  814YOPS   D2A11920   8.516   2.805   7.281  0.0001  0.1266  0.1124
  814YOPS   C3A11921   8.367   3.017   7.567  0.1073  0.2931  0.2032
  814YOPS   C4A11922   8.126   3.323   7.435 -0.0582  0.1344  0.0803
  814YOPS   C1B11923   8.906   3.176   6.995 -0.2728  0.4047 -0.0359
  814YOPS   C2B11924   9.018   3.170   7.357  0.1608  0.0010 -0.3073
  814YOPS   D3B11925   9.365   3.217   7.793 -0.2479  0.1465  0.5161
  814YOPS   C4B11926   9.414   3.550   8.072 -0.0761 -0.0193  0.1077
  815YOPS   CNO11927  10.479   0.877   6.238  0.1845  0.1907 -0.1891
  815YOPS   PO411928   9.976   0.678   6.009  0.1496 -0.0580 -0.1482
  815YOPS   GL111929   9.962   0.606   6.490 -0.0460 -0.1395  0.1358
  815YOPS   GL211930   9.730   0.733   6.701 -0.1311  0.2285 -0.3562
  815YOPS   C1A11931   9.655   0.275   6.643  0.0371  0.0820  0.1625
  815YOPS   D2A11932   9.516  -0.051   6.900  0.2146 -0.1643 -0.2705
  815YOPS   C3A11933   9.422  -0.116   7.271 -0.3532 -0.0855  0.2601
  815YOPS   C4A11934   9.230   0.228   7.369 -0.0002  0.2506  0.2074
  815YOPS   C1B11935   9.929   0.460   7.004 -0.2848 -0.3543  0.3084
  815YOPS   C2B11936   9.688   0.291   7.329 -0.1209 -0.0209  0.1653
  815YOPS   D3B11937   9.608   0.214   7.757  0.2143 -0.0318 -0.4006
  815YOPS   C4B11938   9.737  -0.172   7.690 -0.1222 -0.0867  0.2638
  816YOPS   CNO11939  15.830  10.262   4.796 -0.0530  0.0053 -0.0404
  816YOPS   PO411940  15.620  10.547   5.150 -0.2370 -0.0361 -0.0482
  816YOPS   GL111941  15.512  10.516   5.623  0.0622 -0.0954  0.3525
  816YOPS   GL211942  15.777  10.392   5.831  0.0927 -0.4496 -0.0564
  816YOPS   C1A11943  15.151  10.334   5.883  0.1392 -0.3089 -0.1074
  816YOPS   D2A11944  14.999  10.592   6.228 -0.0203  0.1477 -0.0854
  816YOPS   C3A11945  14.666  10.334   6.302 -0.1282 -0.0312 -0.5334
  816YOPS   C4A11946  14.398  10.465   6.614  0.2870 -0.0388  0.1520
  816YOPS   C1B11947  15.536  10.084   6.071  0.1043  0.3398 -0.1714
  816YOPS   C2B11948  15.355   9.974   6.407  0.2183  0.0631 -0.3321
  816YOPS   D3B11949  15.191  10.380   6.671  0.0578  0.1120 -0.0255
  816YOPS   C4B11950  15.317  10.431   7.112 -0.3066  0.2412 -0.0657
  817YOPS   CNO11951  11.056   9.068   6.510 -0.0582 -0.1653  0.0246
  817YOPS   PO411952  11.427   9.121   6.381 -0.1628  0.2302 -0.0206
  817YOPS   GL111953  11.569   9.024   6.779 -0.2947  0.4251 -0.1200
  817YOPS   GL211954  11.676   9.160   7.131 -0.0267  0.0690 -0.0268
  817YOPS   C1A11955  11.687   8.696   7.036 -0.1753  0.4328 -0.3900
  817YOPS   D2A11956  11.327   8.423   7.323 -0.2383  0.0507  0.1144
  817YOPS   C3A11957  11.026   8.248   7.552 -0.0693 -0.0126  0.1826
  817YOPS   C4A11958  10.734   7.979   7.386  0.1648 -0.0848  0.0322
  817YOPS   C1B11959  11.470   8.985   7.452 -0.2512  0.0564 -0.0204
  817YOPS   C2B11960  11.446   9.199   7.870  0.2652  0.0109 -0.0274
  817YOPS   D3B11961  11.556   9.178   8.298 -0.0568  0.1308 -0.2568
  817YOPS   C4B11962  11.864   9.495   8.575 -0.2295  0.1751 -0.1201
  818YOPS   CNO11963  18.190   0.258   5.568 -0.0432  0.0456  0.1368
  818YOPS   PO411964  17.859   0.041   5.674 -0.0589  0.5426  0.3069
  818YOPS   GL111965  17.513  -0.038   5.966  0.1976  0.4379  0.0401
  818YOPS   GL211966  17.682  -0.157   6.098  0.0225  0.0958 -0.3408
  818YOPS   C1A11967  17.385   0.202   6.328 -0.0884  0.0637  0.0623
  818YOPS   D2A11968  17.621   0.397   6.595 -0.1619 -0.0079  0.0794
  818YOPS   C3A11969  17.887   0.212   6.921 -0.1606  0.3791 -0.0303
  818YOPS   C4A11970  17.902   0.217   7.379 -0.1561 -0.2050 -0.0004
  818YOPS   C1B11971  17.625  -0.161   6.600  0.3099 -0.3803 -0.1829
  818YOPS   C2B11972  17.514  -0.191   6.974  0.0147 -0.0669 -0.0973
  818YOPS   D3B11973  17.253  -0.070   7.291 -0.0761 -0.0389 -0.2803
  818YOPS   C4B11974  17.432   0.251   7.667 -0.1582  0.0632  0.0237
  819YOPS   CNO11975  14.491   0.931   5.702  0.0210  0.1186 -0.0305
  819YOPS   PO411976  14.897   0.886   5.497 -0.1095  0.1558 -0.2377
  819YOPS   GL111977  14.828   0.738   6.009 -0.4304  0.3573 -0.2839
  819YOPS   GL211978  15.074   0.962   6.214 -0.0863  0.2160  0.2317
  819YOPS   C1A11979  14.490   0.750   6.260 -0.0679 -0.0297  0.1478
  819YOPS   D2A11980  14.405   0.782   6.655 -0.1176  0.1147  0.1972
  819YOPS   C3A11981  14.357   0.622   6.972  0.0550 -0.1619  0.0338
  819YOPS   C4A11982  13.987   0.532   7.089 -0.5205 -0.0311  0.0241
  819YOPS   C1B11983  14.845   0.570   6.572 -0.1513 -0.0308 -0.0272
  819YOPS   C2B11984  14.794   0.400   6.835 -0.1605  0.0452 -0.0395
  819YOPS   D3B11985  14.536   0.131   7.042  0.1736  0.0013  0.1141
  819YOPS   C4B11986  14.371   0.384   7.395  0.3588 -0.2201 -0.0344
  820YOPS   CNO11987  10.833   0.376   5.663 -0.3530 -0.1012 -0.0370
  820YOPS   PO411988  10.875   0.433   6.088  0.0222  0.2255  0.0146
  820YOPS   GL111989  10.755   0.395   6.520  0.0512 -0.0268 -0.4275
  820YOPS   GL211990  10.461   0.581   6.661  0.1244 -0.0567 -0.0530
  820YOPS   C1A11991  10.994   0.466   6.770 -0.4336  0.0672 -0.1042
  820YOPS   D2A11992  10.947   0.467   7.198 -0.3965  0.0007  0.2036
  820YOPS   C3A11993  10.880   0.312   7.486 -0.0430 -0.1901  0.0312
  820YOPS   C4A11994  10.871   0.298   7.916 -0.0185  0.1554 -0.2644
  820YOPS   C1B11995  10.453   0.660   7.034 -0.0657 -0.0720  0.2988
  820YOPS   C2B11996  10.420   0.825   7.402  0.3843 -0.0467 -0.0527
  820YOPS   D3B11997  10.241   1.024   7.765 -0.2633  0.1545  0.1707
  820YOPS   C4B11998  10.307   0.841   8.180 -0.0669  0.1783  0.3946
  821YOPS   CNO11999   6.793  16.462   5.607 -0.1404  0.3339  0.0124
  821YOPS   PO412000   6.527  16.045   5.836 -0.3586 -0.0723 -0.4220
  821YOPS   GL112001   6.623  15.998   6.256 -0.3340 -0.3126 -0.1186
  821YOPS   GL212002   6.899  15.879   6.351  0.0357 -0.0087  0.0237
  821YOPS   C1A12003   6.492  15.803   6.587 -0.4565 -0.0190  0.0725
  821YOPS   D2A12004   6.517  15.459   6.870 -0.0676 -0.0106  0.2571
  821YOPS   C3A12005   6.276  15.487   7.306 -0.3274  0.7910 -0.0818
  821YOPS   C4A12006   6.414  15.248   7.601  0.0545 -0.0671 -0.1127
  821YOPS   C1B12007   6.979  15.638   6.717 -0.1425  0.2379  0.0395
  821YOPS   C2B12008   6.978  15.246   6.840 -0.2712  0.2297  0.2108
  821YOPS   D3B12009   7.121  14.808   6.797  0.1261 -0.2302 -0.3307
  821YOPS   C4B12010   7.411  14.628   6.522  0.0534  0.0190 -0.0649
  822YOPS   CNO12011   4.882  16.032   5.732  0.1458 -0.0212  0.3349
  822YOPS   PO412012   5.238  15.800   5.646  0.0427  0.1084 -0.1608
  822YOPS   GL112013   5.107  15.684   6.023  0.0727 -0.0648 -0.0874
  822YOPS   GL212014   5.016  16.034   6.236 -0.1850  0.0825 -0.1399
  822YOPS   C1A12015   5.350  15.586   6.345 -0.1443 -0.1484  0.2142
  822YOPS   D2A12016   5.656  15.286   6.468  0.0871  0.1577 -0.0343
  822YOPS   C3A12017   5.586  14.972   6.697  0.3259  0.2330 -0.1590
  822YOPS   C4A12018   5.434  14.831   7.048  0.3683  0.2389 -0.0064
  822YOPS   C1B12019   5.020  16.186   6.607  0.2203  0.0376 -0.1104
  822YOPS   C2B12020   5.037  16.189   7.078 -0.4827 -0.2574  0.0546
  822YOPS   D3B12021   5.024  15.886   7.588 -0.0986  0.0747 -0.1488
  822YOPS   C4B12022   5.430  15.733   7.730 -0.0166  0.0394 -0.1611
  823YOPS   CNO12023   2.803   5.790   5.878  0.2926 -0.0339  0.2479
  823YOPS   PO412024   3.143   5.724   5.593  0.1324 -0.2304  0.3996
  823YOPS   GL112025   3.412   5.806   5.990  0.0395 -0.1049 -0.1120
  823YOPS   GL212026   3.729   5.830   5.962  0.1471 -0.0418  0.0651
  823YOPS   C1A12027   3.593   5.712   6.408  0.1525  0.0798  0.0427
  823YOPS   D2A12028   3.761   5.558   6.763  0.0780 -0.1248  0.1859
  823YOPS   C3A12029   3.674   5.340   7.106  0.0310  0.0664 -0.1109
  823YOPS   C4A12030   3.800   5.559   7.552 -0.2503 -0.1579  0.3067
  823YOPS   C1B12031   3.597   6.232   6.181 -0.0093  0.5123 -0.0976
  823YOPS   C2B12032   3.462   6.187   6.544  0.0348 -0.0012 -0.2833
  823YOPS   D3B12033   3.076   6.094   6.762 -0.1124 -0.0559 -0.2455
  823YOPS   C4B12034   3.056   6.004   7.217 -0.1480 -0.0976  0.1781
  824YOPS   CNO12035  16.943   8.773   5.675 -0.0891  0.0307 -0.1265
  824YOPS   PO412036  16.660   8.548   5.488  0.0754  0.1590  0.1737
  824YOPS   GL112037  16.626   8.280   5.780  0.4332  0.0276  0.0416
  824YOPS   GL212038  16.730   7.951   5.983 -0.0270  0.1331 -0.1278
  824YOPS   C1A12039  16.521   8.374   6.192 -0.0294  0.0995  0.2047
  824YOPS   D2A12040  16.379   8.631   6.502  0.1325 -0.2783 -0.1299
  824YOPS   C3A12041  16.625   9.061   6.530  0.0563  0.1162 -0.3803
  824YOPS   C4A12042  16.499   9.372   6.840  0.4102 -0.1872 -0.0514
  824YOPS   C1B12043  16.581   7.753   6.405 -0.0239  0.0655 -0.0121
  824YOPS   C2B12044  16.703   7.637   6.863 -0.1446  0.1196  0.0833
  824YOPS   D3B12045  16.849   7.825   7.268 -0.1165  0.4109  0.0501
  824YOPS   C4B12046  16.831   8.201   7.465  0.2243 -0.1200  0.3596
  825YOPS   CNO12047   7.419  14.370   5.600  0.1113  0.3288  0.1808
  825YOPS   PO412048   7.919  14.416   5.497 -0.1451 -0.2022  0.1085
  825YOPS   GL112049   7.804  14.206   5.887 -0.1023  0.0491 -0.0209
  825YOPS   GL212050   7.672  13.976   5.935  0.0958  0.1948 -0.0168
  825YOPS   C1A12051   7.745  14.232   6.354  0.0067 -0.1389  0.1898
  825YOPS   D2A12052   7.979  14.421   6.730 -0.1052  0.1579  0.0014
  825YOPS   C3A12053   8.038  14.431   7.161  0.2274 -0.2075  0.1392
  825YOPS   C4A12054   7.870  14.717   7.437 -0.2508 -0.2452 -0.0668
  825YOPS   C1B12055   7.565  13.697   6.303 -0.1336  0.0161  0.1950
  825YOPS   C2B12056   7.377  13.583   6.626 -0.1673  0.1197 -0.2070
  825YOPS   D3B12057   7.424  13.676   7.081  0.0536  0.0055 -0.3888
  825YOPS   C4B12058   7.153  13.983   7.121  0.2028  0.0445  0.2394
  826YOPS   CNO12059   8.533   5.371   5.828  0.0264  0.0290  0.3720
  826YOPS   PO412060   8.514   5.727   5.994 -0.1605  0.2361  0.3822
  826YOPS   GL112061   8.533   5.549   6.374  0.0131  0.2240  0.2742
  826YOPS   GL212062   8.449   5.301   6.445  0.0014  0.0110  0.0056
  826YOPS   C1A12063   8.681   5.738   6.735  0.1939 -0.0499 -0.0552
  826YOPS   D2A12064   8.748   5.692   7.152 -0.1233  0.3538 -0.1210
  826YOPS   C3A12065   8.603   5.888   7.603  0.1700 -0.1829  0.2008
  826YOPS   C4A12066   8.850   5.810   7.986  0.2861 -0.3485 -0.1126
  826YOPS   C1B12067   8.651   5.079   6.801  0.0504  0.1681  0.1399
  826YOPS   C2B12068   8.648   5.117   7.245  0.0697  0.1681 -0.0158
  826YOPS   D3B12069   8.651   5.089   7.721 -0.2347 -0.0054  0.1708
  826YOPS   C4B12070   8.628   5.342   7.944 -0.4460  0.0556  0.4293
  827YOPS   CNO12071   7.227  18.055   5.635 -0.2608 -0.0428  0.3026
  827YOPS   PO412072   7.067  18.220   5.961  0.1041 -0.0951 -0.0106
  827YOPS   GL112073   6.977  18.129   6.335 -0.2633 -0.1364 -0.1346
  827YOPS   GL212074   6.595  18.091   6.440  0.0272  0.1439 -0.2900
  827YOPS   C1A12075   6.984  18.244   6.715 -0.1549  0.0069 -0.0777
  827YOPS   D2A12076   6.813  18.375   7.125  0.0111  0.1775  0.1294
  827YOPS   C3A12077   6.860  18.160   7.487 -0.1462 -0.1867  0.3090
  827YOPS   C4A12078   6.531  18.101   7.697  0.1192 -0.0313  0.0746
  827YOPS   C1B12079   6.430  18.375   6.764  0.3746  0.0756  0.0790
  827YOPS   C2B12080   6.350  18.553   7.215  0.0380  0.3001  0.0595
  827YOPS   D3B12081   6.688  18.619   7.596  0.0632  0.0040 -0.0029
  827YOPS   C4B12082   6.464  18.478   7.989 -0.2122  0.1728 -0.1573
  828YOPS   CNO12083   9.634   6.807   5.749  0.1421 -0.0458 -0.1156
  828YOPS   PO412084   9.949   6.956   6.104  0.0068 -0.4032 -0.2231
  828YOPS   GL112085   9.748   7.055   6.492  0.1276 -0.2639 -0.0154
  828YOPS   GL212086   9.691   7.415   6.516 -0.2380 -0.1914 -0.0601
  828YOPS   C1A12087   9.705   6.782   6.878  0.3026  0.2897 -0.2803
  828YOPS   D2A12088   9.436   6.406   7.087 -0.0174 -0.1101 -0.1845
  828YOPS   C3A12089   9.475   6.234   7.490  0.0505  0.3047 -0.1839
  828YOPS   C4A12090   9.819   6.378   7.708 -0.0296  0.0814  0.1505
  828YOPS   C1B12091   9.531   7.449   7.093 -0.1787  0.3089 -0.0169
  828YOPS   C2B12092   9.408   7.592   7.710 -0.1127 -0.3458 -0.0245
  828YOPS   D3B12093   9.326   7.212   8.006 -0.0415 -0.2053  0.0145
  828YOPS   C4B12094   9.050   6.768   7.915 -0.1281 -0.0078  0.2381
  829YOPS   CNO12095  16.594   3.352   5.840 -0.0782  0.0728  0.1261
  829YOPS   PO412096  16.794   3.646   5.548 -0.0069  0.0193  0.2446
  829YOPS   GL112097  17.020   3.708   5.940 -0.1049  0.0962 -0.2298
  829YOPS   GL212098  16.777   3.921   6.007 -0.0015 -0.0447  0.2419
  829YOPS   C1A12099  17.324   3.744   6.387 -0.2633  0.3388  0.1728
  829YOPS   D2A12100  17.555   3.857   6.779  0.0712  0.3525  0.1461
  829YOPS   C3A12101  17.780   3.802   6.972 -0.1997  0.4337 -0.4286
  829YOPS   C4A12102  17.750   3.963   7.282  0.2528 -0.0719  0.0417
  829YOPS   C1B12103  16.431   3.741   6.113 -0.0010 -0.0343 -0.1344
  829YOPS   C2B12104  15.920   3.776   6.240 -0.3354 -0.1021  0.0089
  829YOPS   D3B12105  15.541   3.944   6.372  0.0323 -0.1167 -0.0041
  829YOPS   C4B12106  15.153   3.705   6.544 -0.2897 -0.0435  0.1009
  830YOPS   CNO12107  16.710  11.763   5.019  0.2814  0.2716  0.0709
  830YOPS   PO412108  16.391  11.752   5.250 -0.0073 -0.0566 -0.2172
  830YOPS   GL112109  16.472  11.921   5.731 -0.0293 -0.0942  0.0291
  830YOPS   GL212110  16.470  11.612   5.769 -0.0191  0.0481 -0.1475
  830YOPS   C1A12111  16.446  11.983   6.252  0.4165 -0.1595  0.0600
  830YOPS   D2A12112  16.700  12.068   6.588  0.0020 -0.2188  0.1862
  830YOPS   C3A12113  16.924  12.048   6.964  0.2701 -0.1256 -0.0246
  830YOPS   C4A12114  17.009  11.724   7.198  0.1137  0.3998 -0.1168
  830YOPS   C1B12115  16.295  11.521   6.140 -0.1260 -0.0083 -0.0645
  830YOPS   C2B12116  16.187  11.224   6.440 -0.0497  0.0362 -0.0562
  830YOPS   D3B12117  16.034  10.775   6.660  0.0746 -0.6401  0.4217
  830YOPS   C4B12118  16.469  10.540   6.655 -0.1271 -0.0131 -0.1693
  831YOPS   CNO12119  18.482  15.690   5.089  0.0682 -0.3734  0.1409
  831YOPS   PO412120  18.563  15.488   5.470  0.2662  0.1980 -0.3730
  831YOPS   GL112121  18.644  15.453   5.923  0.2315 -0.0983 -0.2123
  831YOPS   GL212122  18.468  15.214   5.954  0.3820  0.3396  0.0615
  831YOPS   C1A12123  19.113  15.376   6.211 -0.0057 -0.0865  0.1712
  831YOPS   D2A12124  19.285  15.203   6.558 -0.1709 -0.0507 -0.1700
  831YOPS   C3A12125  19.254  15.408   7.020  0.0475 -0.2256 -0.1617
  831YOPS   C4A12126  18.895  15.608   6.940  0.0826  0.2985 -0.0093
  831YOPS   C1B12127  18.629  15.200   6.383  0.1422 -0.2065  0.0402
  831YOPS   C2B12128  18.890  15.121   6.819 -0.1312 -0.4391  0.0412
  831YOPS   D3B12129  19.338  14.890   6.956  0.1607  0.1593  0.0998
  831YOPS   C4B12130  19.331  14.716   7.266  0.0024 -0.1046  0.0489
  832YOPS   CNO12131  11.956   4.981   6.345 -0.1959 -0.1155 -0.0008
  832YOPS   PO412132  12.365   4.796   6.281  0.0962  0.2201  0.1064
  832YOPS   GL112133  12.404   4.406   6.596 -0.1488  0.3160  0.1428
  832YOPS   GL212134  12.705   4.321   6.564  0.0239 -0.0550  0.0263
  832YOPS   C1A12135  12.081   4.219   6.936  0.1049 -0.1916 -0.3889
  832YOPS   D2A12136  12.202   4.350   7.394 -0.0204 -0.0736  0.5060
  832YOPS   C3A12137  12.259   4.481   7.816 -0.2449 -0.4605  0.2402
  832YOPS   C4A12138  12.237   4.253   8.142 -0.0525  0.0660 -0.2693
  832YOPS   C1B12139  12.723   4.299   7.058 -0.3174  0.0251  0.3179
  832YOPS   C2B12140  12.727   4.348   7.557 -0.0534 -0.3988 -0.1747
  832YOPS   D3B12141  12.681   4.156   7.952 -0.3541  0.0486  0.0632
  832YOPS   C4B12142  13.116   3.885   8.178 -0.1956 -0.1481  0.1265
  833YOPS   CNO12143  11.222   2.182   5.777 -0.3288  0.0547  0.0520
  833YOPS   PO412144  11.040   1.818   6.062 -0.4192 -0.3675 -0.2252
  833YOPS   GL112145  11.023   1.776   6.443  0.3596 -0.0682 -0.3601
  833YOPS   GL212146  11.262   1.601   6.531 -0.1901  0.0069 -0.0995
  833YOPS   C1A12147  10.827   1.620   6.858  0.2842  0.3205 -0.0497
  833YOPS   D2A12148  10.441   1.348   7.108  0.1454  0.3183 -0.0013
  833YOPS   C3A12149  10.289   1.355   7.403 -0.0163 -0.2577 -0.1346
  833YOPS   C4A12150   9.913   1.442   7.531  0.0364  0.0018  0.3273
  833YOPS   C1B12151  11.303   1.757   6.998  0.0537  0.0136  0.0169
  833YOPS   C2B12152  11.532   1.687   7.379  0.2354 -0.0475 -0.1436
  833YOPS   D3B12153  11.611   1.826   7.816  0.1502 -0.4103  0.1242
  833YOPS   C4B12154  12.037   1.671   7.949 -0.0309 -0.0446 -0.1041
  834YOPS   CNO12155   6.557   2.430   6.030 -0.0875  0.0464  0.3076
  834YOPS   PO412156   6.699   2.008   6.088  0.1757 -0.2722  0.2942
  834YOPS   GL112157   6.526   1.693   6.380 -0.2584  0.2414 -0.1876
  834YOPS   GL212158   6.804   1.630   6.471  0.1455  0.1142  0.0048
  834YOPS   C1A12159   6.272   1.798   6.720  0.2794  0.1772  0.2325
  834YOPS   D2A12160   5.997   1.840   6.960  0.1217 -0.0958  0.2760
  834YOPS   C3A12161   5.614   1.989   7.169  0.1751 -0.1774 -0.2542
  834YOPS   C4A12162   5.464   1.703   7.504  0.2123 -0.0023 -0.4941
  834YOPS   C1B12163   6.712   1.553   6.826 -0.1190  0.0295 -0.3405
  834YOPS   C2B12164   6.536   1.710   7.181  0.0673 -0.1247 -0.1798
  834YOPS   D3B12165   6.242   1.496   7.262 -0.2327  0.0503 -0.1881
  834YOPS   C4B12166   5.966   1.794   7.472 -0.1031 -0.4624 -0.0029
  835YOPS   CNO12167   8.505   1.279   5.966 -0.2928  0.2873 -0.0133
  835YOPS   PO412168   8.278   0.886   5.967 -0.2830  0.0452  0.2832
  835YOPS   GL112169   8.274   1.037   6.413  0.2514  0.2847 -0.3118
  835YOPS   GL212170   8.005   1.138   6.515 -0.0887 -0.0795 -0.1822
  835YOPS   C1A12171   8.520   1.333   6.561 -0.2187 -0.1257  0.1402
  835YOPS   D2A12172   8.589   1.116   6.859 -0.3852  0.1694 -0.0153
  835YOPS   C3A12173   8.695   0.764   6.956 -0.3137 -0.0621  0.2088
  835YOPS   C4A12174   8.871   0.577   7.309 -0.0907 -0.1696  0.1948
  835YOPS   C1B12175   8.041   1.070   6.904  0.1381  0.1244 -0.3238
  835YOPS   C2B12176   7.904   1.066   7.287  0.1610  0.1361 -0.0589
  835YOPS   D3B12177   7.929   1.087   7.687 -0.0481  0.1105  0.0108
  835YOPS   C4B12178   7.737   1.107   8.034  0.2090  0.3962  0.2366
  836YOPS   CNO12179  18.303   1.464   5.003  0.1945 -0.1419 -0.0414
  836YOPS   PO412180  18.074   1.260   5.314  0.0979  0.0413 -0.4254
  836YOPS   GL112181  18.093   1.029   5.683 -0.0194 -0.2520 -0.1299
  836YOPS   GL212182  18.254   0.756   5.539  0.0865 -0.1674  0.1388
  836YOPS   C1A12183  17.953   0.918   6.018  0.4292  0.0896  0.1291
  836YOPS   D2A12184  18.183   0.890   6.368 -0.0767 -0.0195  0.2088
  836YOPS   C3A12185  18.492   1.009   6.559 -0.5492  0.0193  0.0057
  836YOPS   C4A12186  18.620   1.011   7.049  0.2657 -0.1410 -0.0278
  836YOPS   C1B12187  18.297   0.555   5.923 -0.3265  0.3027  0.2460
  836YOPS   C2B12188  18.517   0.500   6.264  0.0740 -0.3033  0.4177
  836YOPS   D3B12189  18.501   0.589   6.764 -0.1285  0.0658  0.1863
  836YOPS   C4B12190  18.300   0.403   7.122 -0.1791  0.1381 -0.3579
  837YOPS   CNO12191   8.705  13.485   5.840 -0.1322 -0.0283  0.2495
  837YOPS   PO412192   9.068  13.315   5.778 -0.0890 -0.0709 -0.0047
  837YOPS   GL112193   9.117  13.317   6.240  0.3672  0.1245  0.1579
  837YOPS   GL212194   8.776  13.256   6.399 -0.0065 -0.0835  0.1594
  837YOPS   C1A12195   9.093  13.514   6.661  0.2336 -0.1002  0.2339
  837YOPS   D2A12196   9.075  13.493   7.127  0.1347  0.1129 -0.1319
  837YOPS   C3A12197   8.933  13.428   7.528 -0.1897  0.1235  0.1909
  837YOPS   C4A12198   8.557  13.391   7.692 -0.2042 -0.3001  0.2932
  837YOPS   C1B12199   8.783  13.189   6.879 -0.0226  0.0008 -0.1809
  837YOPS   C2B12200   8.689  12.985   7.311  0.0592 -0.0346 -0.0857
  837YOPS   D3B12201   8.500  12.708   7.698 -0.0736  0.0024  0.1112
  837YOPS   C4B12202   8.472  12.950   8.022  0.5493  0.3390 -0.0335
  838YOPS   CNO12203  10.482   7.822   6.028  0.2757 -0.4908 -0.0469
  838YOPS   PO412204  10.624   7.411   6.131  0.0332 -0.2734 -0.0289
  838YOPS   GL112205  10.560   7.565   6.439  0.1716  0.4531 -0.2217
  838YOPS   GL212206  10.777   7.618   6.696  0.1260  0.1189  0.0126
  838YOPS   C1A12207  10.143   7.704   6.549  0.3323  0.1894  0.2431
  838YOPS   D2A12208   9.953   7.806   6.892  0.3284  0.0344  0.1597
  838YOPS   C3A12209   9.734   7.935   7.270 -0.2805 -0.1013  0.0192
  838YOPS   C4A12210   9.680   8.023   7.679 -0.0437  0.0959 -0.2953
  838YOPS   C1B12211  10.873   7.528   7.093  0.4440 -0.0666 -0.0574
  838YOPS   C2B12212  10.947   7.493   7.480 -0.2632 -0.2472 -0.2532
  838YOPS   D3B12213  10.898   7.804   7.870 -0.0504 -0.1141  0.0845
  838YOPS   C4B12214  10.521   8.070   7.957  0.1106  0.0833 -0.0723
  839YOPS   CNO12215   7.286  12.558   5.734  0.1311  0.2802 -0.1153
  839YOPS   PO412216   7.192  12.936   5.847  0.0696  0.0233  0.0879
  839YOPS   GL112217   7.013  12.903   6.215 -0.0722 -0.2424 -0.2163
  839YOPS   GL212218   6.782  12.793   6.283 -0.0671 -0.0268 -0.3227
  839YOPS   C1A12219   6.946  13.125   6.658  0.1416 -0.0720 -0.3751
  839YOPS   D2A12220   6.910  13.413   6.966  0.0935 -0.3540  0.0953
  839YOPS   C3A12221   6.854  13.577   7.392  0.1405 -0.0001  0.2975
  839YOPS   C4A12222   6.466  13.716   7.588 -0.0721  0.1453 -0.1056
  839YOPS   C1B12223   6.539  12.617   6.607 -0.1651  0.1416  0.1444
  839YOPS   C2B12224   6.467  12.423   6.961 -0.2471  0.2972 -0.5282
  839YOPS   D3B12225   6.585  12.567   7.354 -0.0923  0.1392 -0.2179
  839YOPS   C4B12226   6.440  12.407   7.745 -0.1259  0.4306  0.1381
  840YOPS   CNO12227  13.738  11.959   5.912 -0.2246  0.4146 -0.2699
  840YOPS   PO412228  13.311  11.945   6.041 -0.2287  0.4675  0.0771
  840YOPS   GL112229  13.172  11.989   6.487  0.0458  0.2567  0.0829
  840YOPS   GL212230  12.994  11.784   6.439  0.0753  0.0251  0.1382
  840YOPS   C1A12231  13.097  12.158   6.872 -0.0051  0.0161  0.3435
  840YOPS   D2A12232  13.054  11.898   7.288  0.1412 -0.0957  0.0456
  840YOPS   C3A12233  13.334  11.656   7.586 -0.2379  0.2530  0.0270
  840YOPS   C4A12234  13.374  11.881   7.964  0.1412 -0.3240  0.0364
  840YOPS   C1B12235  13.112  11.662   6.871 -0.0612 -0.1273  0.0440
  840YOPS   C2B12236  12.976  11.320   7.201  0.1379 -0.2490 -0.0357
  840YOPS   D3B12237  12.901  11.124   7.629  0.1826 -0.0909  0.3458
  840YOPS   C4B12238  12.494  11.056   7.887 -0.2293  0.2477 -0.1189
  841POPE   NH312239   6.170  14.709   5.681  0.1832  0.0099  0.1523
  841POPE   PO412240   6.231  15.105   5.727 -0.1073  0.1469 -0.0091
  841POPE   GL112241   5.935  15.251   6.038 -0.0679  0.0251 -0.2991
  841POPE   GL212242   5.758  14.931   5.998  0.2320  0.1041  0.1233
  841POPE   C1A12243   6.100  15.527   6.338  0.1004  0.0471 -0.1319
  841POPE   D2A12244   6.080  15.688   6.840 -0.3489 -0.1581  0.0968
  841POPE   C3A12245   5.783  15.284   7.103 -0.3366  0.0051 -0.0315
  841POPE   C4A12246   5.458  15.162   7.525 -0.0539 -0.0240  0.0375
  841POPE   C1B12247   5.484  14.731   6.282 -0.1386  0.2652  0.0540
  841POPE   C2B12248   5.231  14.393   6.482  0.1883 -0.4423 -0.0273
  841POPE   C3B12249   4.952  14.133   6.353 -0.0449 -0.0241 -0.1619
  841POPE   C4B12250   4.567  13.890   6.260 -0.2497 -0.0491 -0.1155
  842POPE   NH312251  11.725  14.648   6.183  0.1614  0.1958  0.2046
  842POPE   PO412252  11.325  14.996   6.127 -0.1685  0.0421 -0.0441
  842POPE   GL112253  11.229  15.005   6.579 -0.1061  0.1239  0.1465
  842POPE   GL212254  11.028  14.748   6.720 -0.1094 -0.1074 -0.5104
  842POPE   C1A12255  11.106  15.112   6.976 -0.0699 -0.2203  0.0684
  842POPE   D2A12256  11.223  15.112   7.386  0.0322 -0.0081 -0.1443
  842POPE   C3A12257  11.098  15.126   7.785 -0.0904  0.0003 -0.1358
  842POPE   C4A12258  11.351  15.423   8.036  0.1558 -0.1812  0.3511
  842POPE   C1B12259  11.110  14.623   7.184  0.1608 -0.0127 -0.0935
  842POPE   C2B12260  11.296  14.585   7.513 -0.1096  0.1837  0.2532
  842POPE   C3B12261  11.472  14.621   7.956  0.2178  0.0092 -0.0305
  842POPE   C4B12262  11.695  14.672   8.307 -0.4135 -0.2419  0.0472
  843POPE   NH312263  11.668   6.243   6.530  0.0682  0.0771  0.1732
  843POPE   PO412264  11.785   6.594   6.365  0.0341  0.1542  0.1181
  843POPE   GL112265  11.660   6.665   6.808 -0.1282  0.2250  0.0005
  843POPE   GL212266  11.940   6.581   6.818 -0.2015  0.1458 -0.2717
  843POPE   C1A12267  11.415   6.643   7.271  0.1393 -0.0130 -0.1075
  843POPE   D2A12268  11.345   6.606   7.728  0.0854 -0.2144  0.0772
  843POPE   C3A12269  11.737   6.533   7.836  0.0912 -0.0966  0.1042
  843POPE   C4A12270  11.870   6.155   7.969  0.2931  0.0760  0.0541
  843POPE   C1B12271  12.194   6.933   6.704 -0.0245 -0.1027  0.0193
  843POPE   C2B12272  12.339   7.309   7.025  0.2886 -0.3838  0.1655
  843POPE   C3B12273  12.534   7.735   7.060  0.1406 -0.0922  0.2136
  843POPE   C4B12274  12.908   8.050   7.225  0.1753  0.0036  0.1518
  844POPE   NH312275  12.379   4.186   6.090  0.0005  0.1027 -0.2838
  844POPE   PO412276  12.071   3.809   5.962 -0.3418 -0.0340 -0.2664
  844POPE   GL112277  12.160   3.764   6.432 -0.3003  0.0826 -0.0945
  844POPE   GL212278  12.271   3.958   6.583  0.0845  0.2202 -0.0701
  844POPE   C1A12279  11.979   3.708   6.893 -0.0318 -0.0190  0.0121
  844POPE   D2A12280  11.990   3.921   7.338  0.0646 -0.0558  0.2894
  844POPE   C3A12281  12.188   3.804   7.646 -0.0558 -0.1194 -0.0666
  844POPE   C4A12282  12.590   3.542   7.591  0.1074  0.0269  0.3026
  844POPE   C1B12283  12.456   3.550   6.856 -0.2695  0.1331  0.1748
  844POPE   C2B12284  12.250   3.333   7.152 -0.0451  0.1361 -0.2490
  844POPE   C3B12285  12.190   3.187   7.551  0.0401 -0.1792 -0.0407
  844POPE   C4B12286  11.897   3.019   7.806  0.4290  0.0264 -0.1102
  845POPE   NH312287  10.278   3.624   6.425 -0.1480 -0.2997 -0.2418
  845POPE   PO412288   9.856   3.474   6.225 -0.3512  0.1511 -0.0293
  845POPE   GL112289   9.807   3.439   6.624  0.0410 -0.3207  0.1638
  845POPE   GL212290   9.808   3.139   6.613  0.1363  0.0229 -0.0292
  845POPE   C1A12291   9.812   3.213   7.073  0.0653  0.1091  0.1694
  845POPE   D2A12292   9.738   3.205   7.494  0.1028  0.1000 -0.0897
  845POPE   C3A12293   9.986   3.065   7.674 -0.0028  0.1980 -0.0603
  845POPE   C4A12294  10.376   2.965   7.966 -0.0145 -0.1358  0.3922
  845POPE   C1B12295   9.441   3.131   6.779 -0.0230  0.1714  0.2092
  845POPE   C2B12296   9.402   2.870   7.159  0.2985 -0.1165 -0.2062
  845POPE   C3B12297   9.460   2.809   7.567  0.0052 -0.0131  0.0475
  845POPE   C4B12298   9.307   2.794   8.046  0.0536 -0.0281  0.0143
  846POPE   NH312299   9.558   1.475   6.261  0.0249 -0.2527  0.1719
  846POPE   PO412300   9.359   1.042   6.430  0.1398  0.1474 -0.1265
  846POPE   GL112301   9.162   1.163   6.726 -0.0936 -0.1349  0.0192
  846POPE   GL212302   9.074   1.459   6.653 -0.0258  0.1871  0.0660
  846POPE   C1A12303   9.021   1.100   7.251 -0.1559  0.2081  0.0879
  846POPE   D2A12304   9.031   1.082   7.641 -0.1370  0.0474  0.0110
  846POPE   C3A12305   8.807   0.795   7.757 -0.0922  0.2304 -0.0257
  846POPE   C4A12306   8.504   0.615   8.157 -0.1441 -0.0888 -0.0371
  846POPE   C1B12307   9.023   1.603   6.989 -0.0797 -0.1850  0.1697
  846POPE   C2B12308   9.060   1.525   7.427  0.0315  0.1046 -0.0020
  846POPE   C3B12309   8.761   1.441   7.805 -0.0455 -0.0023  0.2457
  846POPE   C4B12310   8.557   1.503   8.147 -0.0092 -0.1834 -0.1271
  847POPE   NH312311  12.626  14.008   5.989 -0.0505 -0.0333  0.0612
  847POPE   PO412312  12.829  13.604   6.132 -0.0243  0.0580  0.2037
  847POPE   GL112313  12.882  13.975   6.401  0.3599 -0.0331  0.0439
  847POPE   GL212314  13.094  13.906   6.544  0.0029 -0.2576 -0.0882
  847POPE   C1A12315  12.781  13.970   6.919 -0.1831 -0.1710  0.0674
  847POPE   D2A12316  13.003  13.958   7.303 -0.2853  0.2277 -0.3891
  847POPE   C3A12317  13.343  13.709   7.482  0.0348  0.0938 -0.0243
  847POPE   C4A12318  13.654  13.546   7.625  0.3698  0.3773  0.0421
  847POPE   C1B12319  13.313  13.807   6.921 -0.3274  0.0626  0.0267
  847POPE   C2B12320  13.410  13.367   7.052 -0.0802  0.3935 -0.3460
  847POPE   C3B12321  13.451  13.046   7.383 -0.0969 -0.1569 -0.3851
  847POPE   C4B12322  13.401  12.725   7.648  0.1324 -0.2623  0.0230
  848POPE   NH312323  14.107   2.944   5.586  0.5851  0.0153 -0.2333
  848POPE   PO412324  14.477   3.100   5.913 -0.0779 -0.3405 -0.2721
  848POPE   GL112325  14.684   3.143   6.298  0.0480 -0.2108  0.1887
  848POPE   GL212326  14.785   3.417   6.408 -0.1060  0.2282 -0.0370
  848POPE   C1A12327  14.748   2.937   6.613 -0.2126  0.2021  0.0985
  848POPE   D2A12328  14.962   2.762   6.887  0.3072 -0.0759  0.0172
  848POPE   C3A12329  15.343   2.674   6.806  0.0035 -0.1581 -0.0075
  848POPE   C4A12330  15.700   2.459   6.561  0.1433  0.2012 -0.0946
  848POPE   C1B12331  14.802   3.397   6.781 -0.3533 -0.0161 -0.1230
  848POPE   C2B12332  14.981   3.349   7.291 -0.0198  0.3225  0.5097
  848POPE   C3B12333  14.845   3.458   7.674 -0.1034 -0.0006  0.2579
  848POPE   C4B12334  14.838   3.494   8.052 -0.1112  0.0607  0.0496
  849POPE   NH312335   3.441  16.774   5.625 -0.2111 -0.1906 -0.0899
  849POPE   PO412336   3.571  16.293   5.648  0.0425 -0.1135  0.0239
  849POPE   GL112337   3.425  16.431   5.979  0.0332  0.1631 -0.2182
  849POPE   GL212338   3.440  16.792   6.097  0.0507  0.1713 -0.0239
  849POPE   C1A12339   3.124  16.254   6.219  0.0534 -0.2235 -0.3103
  849POPE   D2A12340   2.896  16.224   6.608  0.1379 -0.1483  0.0611
  849POPE   C3A12341   2.904  16.396   6.978  0.2282 -0.0041  0.1057
  849POPE   C4A12342   2.691  16.807   7.201  0.1299 -0.0234 -0.1174
  849POPE   C1B12343   3.371  16.608   6.479  0.0745  0.2637  0.0139
  849POPE   C2B12344   3.437  16.644   6.858  0.1588 -0.0569 -0.3732
  849POPE   C3B12345   3.215  16.832   7.227 -0.1561 -0.1876  0.1960
  849POPE   C4B12346   3.084  16.659   7.603 -0.0267 -0.2451  0.0576
  850POPE   NH312347   6.185   3.429   6.181 -0.1306  0.0622  0.2707
  850POPE   PO412348   5.764   3.566   6.193 -0.0491 -0.0091  0.2344
  850POPE   GL112349   5.927   3.786   6.546 -0.1477 -0.1073  0.0620
  850POPE   GL212350   6.028   3.389   6.647  0.1644 -0.1559  0.3548
  850POPE   C1A12351   5.822   3.715   7.008  0.1922 -0.1568  0.3224
  850POPE   D2A12352   5.435   3.663   7.114  0.3484 -0.1547  0.0980
  850POPE   C3A12353   5.262   3.662   7.509  0.1740 -0.2873 -0.0374
  850POPE   C4A12354   4.999   3.688   7.788 -0.2017  0.1664 -0.0628
  850POPE   C1B12355   5.676   3.269   6.802 -0.0231 -0.0435 -0.0139
  850POPE   C2B12356   5.494   3.023   7.096  0.0234  0.1385  0.0073
  850POPE   C3B12357   5.215   3.121   7.543  0.5030  0.3062 -0.1557
  850POPE   C4B12358   4.867   2.924   7.788  0.2270 -0.0475  0.1494
  851POPE   NH312359   8.863   7.333   6.425 -0.1314 -0.1306 -0.2683
  851POPE   PO412360   8.594   7.739   6.421  0.0059 -0.1206  0.0187
  851POPE   GL112361   8.568   7.555   6.792 -0.2469  0.4954  0.0503
  851POPE   GL212362   8.412   7.315   6.750  0.0991  0.3289 -0.1177
  851POPE   C1A12363   8.557   7.530   7.191 -0.2416 -0.1007  0.4527
  851POPE   D2A12364   8.631   7.516   7.604  0.1240  0.0556  0.1891
  851POPE   C3A12365   8.371   7.551   7.976 -0.0843  0.0573  0.0341
  851POPE   C4A12366   8.217   7.772   8.307 -0.3246 -0.2509 -0.0030
  851POPE   C1B12367   8.108   7.024   6.887  0.0459 -0.4280  0.0754
  851POPE   C2B12368   7.721   6.842   7.064  0.0093 -0.3403  0.1528
  851POPE   C3B12369   7.495   6.976   7.443  0.2350  0.2897  0.2686
  851POPE   C4B12370   7.376   6.896   7.775 -0.0016 -0.0168 -0.0459
  852POPE   NH312371   8.280  14.119   5.655  0.2672  0.0071 -0.1320
  852POPE   PO412372   8.180  13.796   5.821 -0.3184  0.3877  0.0234
  852POPE   GL112373   8.089  13.763   6.141  0.3384  0.0931  0.1014
  852POPE   GL212374   8.329  13.533   6.264 -0.1854 -0.0041  0.1728
  852POPE   C1A12375   8.199  13.986   6.440  0.2118 -0.1100 -0.1013
  852POPE   D2A12376   8.242  13.896   6.871 -0.2861 -0.1080 -0.2654
  852POPE   C3A12377   8.062  13.776   7.240  0.2357  0.0210 -0.1854
  852POPE   C4A12378   8.064  13.526   7.634  0.2647  0.0236 -0.3112
  852POPE   C1B12379   8.581  13.701   6.565  0.0997  0.0884  0.1033
  852POPE   C2B12380   8.693  13.727   6.888 -0.1247 -0.2767  0.0168
  852POPE   C3B12381   8.537  13.558   7.202 -0.2249 -0.0066 -0.4219
  852POPE   C4B12382   8.258  13.191   7.288  0.2300 -0.1618  0.0264
  853POPE   NH312383  12.954  11.360   5.606 -0.0672  0.0858 -0.1718
  853POPE   PO412384  12.847  11.643   5.932  0.3876 -0.3012 -0.3479
  853POPE   GL112385  12.590  11.480   6.202  0.1287 -0.1850  0.1861
  853POPE   GL212386  12.116  11.514   6.181 -0.3279 -0.0084 -0.0934
  853POPE   C1A12387  12.649  11.330   6.648 -0.0726  0.2375 -0.1273
  853POPE   D2A12388  12.451  11.311   7.063  0.0752 -0.1016  0.0835
  853POPE   C3A12389  11.966  11.250   6.981  0.2916  0.0555 -0.3650
  853POPE   C4A12390  11.634  11.522   7.021  0.0565 -0.1210  0.0060
  853POPE   C1B12391  12.165  11.295   6.499 -0.2904  0.1063 -0.1232
  853POPE   C2B12392  12.331  10.948   6.671  0.1591  0.2044  0.1739
  853POPE   C3B12393  12.191  10.821   6.959  0.1117  0.1794  0.0325
  853POPE   C4B12394  12.040  10.666   7.335 -0.0358 -0.0750 -0.1905
  854POPE   NH312395  13.259   4.086   6.185  0.0088  0.0325 -0.0532
  854POPE   PO412396  12.962   4.437   6.122 -0.1575  0.0833 -0.0203
  854POPE   GL112397  12.941   4.768   6.445  0.0321 -0.1144  0.0959
  854POPE   GL212398  12.741   4.763   6.698  0.0013 -0.1708 -0.0708
  854POPE   C1A12399  13.041   5.158   6.777 -0.0106  0.3915  0.3185
  854POPE   D2A12400  13.264   5.358   6.976 -0.2302  0.1025 -0.0138
  854POPE   C3A12401  13.346   5.060   7.250  0.1108 -0.2050 -0.1180
  854POPE   C4A12402  13.475   4.931   7.569  0.0011 -0.1413 -0.0187
  854POPE   C1B12403  12.996   4.700   6.966  0.2112 -0.1919  0.0899
  854POPE   C2B12404  13.026   4.736   7.354 -0.1261 -0.0910 -0.0776
  854POPE   C3B12405  13.021   4.902   7.803 -0.0324 -0.0265 -0.0202
  854POPE   C4B12406  13.381   4.994   8.080  0.0315 -0.3119 -0.1628
  855POPE   NH312407  15.754  16.963   5.393  0.2319  0.1084  0.0917
  855POPE   PO412408  16.099  16.797   5.665  0.0738  0.1855  0.1319
  855POPE   GL112409  16.324  16.891   5.976  0.3886  0.0064 -0.1671
  855POPE   GL212410  16.114  16.930   6.209  0.0468  0.0610 -0.3732
  855POPE   C1A12411  16.778  16.825   6.179 -0.3139 -0.2096  0.0111
  855POPE   D2A12412  17.064  16.692   6.389 -0.0449 -0.1568 -0.1586
  855POPE   C3A12413  17.087  16.692   6.838 -0.0322  0.0155 -0.0748
  855POPE   C4A12414  17.365  16.721   7.213  0.4044 -0.0333  0.0198
  855POPE   C1B12415  16.462  17.073   6.461  0.0677 -0.0088  0.0212
  855POPE   C2B12416  16.711  17.082   6.958  0.2261 -0.1871  0.3134
  855POPE   C3B12417  16.876  16.995   7.409  0.2783 -0.3352 -0.0611
  855POPE   C4B12418  17.089  16.778   7.794  0.2700  0.2839 -0.2597
  856POPE   NH312419  13.485   3.327   6.005 -0.0426 -0.2781  0.1601
  856POPE   PO412420  13.025   3.583   6.010 -0.1963  0.2931  0.1430
  856POPE   GL112421  13.046   3.584   6.439  0.2019 -0.1389 -0.3759
  856POPE   GL212422  13.115   3.234   6.599 -0.1066 -0.1001 -0.0175
  856POPE   C1A12423  12.876   3.859   6.768 -0.0659  0.0354 -0.0943
  856POPE   D2A12424  12.853   3.877   7.270  0.0286 -0.1025  0.0006
  856POPE   C3A12425  12.959   3.848   7.645  0.3516 -0.0946 -0.0697
  856POPE   C4A12426  12.898   3.470   7.977 -0.0940 -0.0661  0.0019
  856POPE   C1B12427  13.461   3.199   6.852  0.0081  0.0030  0.3083
  856POPE   C2B12428  13.575   3.004   7.155  0.1015 -0.0442 -0.0038
  856POPE   C3B12429  13.540   2.861   7.605  0.0965 -0.2827 -0.0350
  856POPE   C4B12430  13.524   3.060   7.993  0.1546  0.0287 -0.4320
  857POPE   NH312431  17.382   5.683   5.316  0.1038 -0.0445 -0.1260
  857POPE   PO412432  17.760   5.964   5.382  0.1039 -0.0907 -0.1657
  857POPE   GL112433  17.698   5.669   5.795  0.0315  0.1601  0.2323
  857POPE   GL212434  17.471   5.506   5.802  0.0494 -0.1589  0.1456
  857POPE   C1A12435  17.739   5.754   6.140 -0.3195  0.1774 -0.0065
  857POPE   D2A12436  17.878   5.693   6.535 -0.0437  0.2990  0.2437
  857POPE   C3A12437  18.256   5.426   6.653  0.1729  0.3485 -0.2176
  857POPE   C4A12438  18.593   5.538   6.583 -0.2569 -0.1697  0.4170
  857POPE   C1B12439  17.555   5.259   6.259 -0.5289 -0.1609  0.1294
  857POPE   C2B12440  17.599   5.308   6.693 -0.3742 -0.1633  0.1715
  857POPE   C3B12441  17.558   5.341   7.163 -0.1813  0.0393 -0.1534
  857POPE   C4B12442  17.340   4.980   7.446  0.1843 -0.0995  0.0271
  858POPE   NH312443   8.964  12.153   5.956 -0.4948 -0.4070  0.2513
  858POPE   PO412444   8.601  12.159   5.769 -0.0866 -0.3156  0.0945
  858POPE   GL112445   8.546  12.221   6.234  0.1475  0.0776  0.1251
  858POPE   GL212446   8.652  12.533   6.301 -0.0426 -0.1408 -0.0242
  858POPE   C1A12447   8.383  12.157   6.631  0.0734 -0.3225 -0.5199
  858POPE   D2A12448   8.173  12.200   7.070 -0.0949 -0.0183  0.0765
  858POPE   C3A12449   7.832  11.999   7.196 -0.0240  0.0265 -0.2940
  858POPE   C4A12450   7.781  11.818   7.646 -0.1926 -0.0286  0.0229
  858POPE   C1B12451   8.691  12.515   6.653 -0.2017 -0.0947 -0.0142
  858POPE   C2B12452   8.650  12.351   7.049  0.4008 -0.1096 -0.0922
  858POPE   C3B12453   8.646  12.333   7.433 -0.0949  0.2012  0.3134
  858POPE   C4B12454   8.948  12.424   7.704  0.3059 -0.2614 -0.0600
  859POPE   NH312455   1.002   8.686   5.271 -0.0224 -0.4590  0.1674
  859POPE   PO412456   0.641   8.869   5.383 -0.1809  0.0672  0.1191
  859POPE   GL112457   0.408   8.911   5.776 -0.0327 -0.4033 -0.3743
  859POPE   GL212458   0.200   9.109   5.936 -0.2299  0.0839 -0.2538
  859POPE   C1A12459   0.471   8.792   6.223  0.0911  0.2794  0.0365
  859POPE   D2A12460   0.377   8.612   6.642  0.0579 -0.0582 -0.0454
  859POPE   C3A12461   0.163   8.195   6.576  0.0196  0.0612  0.0633
  859POPE   C4A12462   0.164   7.896   6.304 -0.1718 -0.1639  0.0160
  859POPE   C1B12463  -0.220   9.129   5.955 -0.0306 -0.0242  0.0324
  859POPE   C2B12464  -0.460   9.009   6.294 -0.2719  0.0898  0.1992
  859POPE   C3B12465  -0.440   9.114   6.683 -0.0552 -0.2232  0.0534
  859POPE   C4B12466  -0.086   9.019   6.980 -0.0751  0.0095  0.1597
  860POPE   NH312467  10.068   4.412   6.439  0.0362 -0.2450  0.1108
  860POPE   PO412468  10.330   4.131   6.462 -0.0125  0.1148  0.2297
  860POPE   GL112469  10.355   4.227   6.870  0.0702  0.0441  0.0713
  860POPE   GL212470  10.026   4.262   6.976 -0.1018  0.1862  0.2195
  860POPE   C1A12471  10.536   4.381   7.296 -0.1232 -0.2308  0.1532
  860POPE   D2A12472  10.570   4.301   7.662  0.0682  0.4932  0.1588
  860POPE   C3A12473  10.656   3.868   7.920 -0.1100 -0.0257  0.1010
  860POPE   C4A12474  10.844   3.783   8.250  0.0767 -0.2381  0.1926
  860POPE   C1B12475  10.045   4.267   7.372  0.2707  0.1055  0.2065
  860POPE   C2B12476  10.203   4.606   7.674  0.1286  0.0289  0.2400
  860POPE   C3B12477   9.835   4.843   7.874 -0.1112 -0.0047  0.1591
  860POPE   C4B12478   9.752   4.991   8.202  0.1085 -0.0280 -0.0150
  861POPE   NH312479   9.372   9.621   6.151 -0.0305 -0.2273 -0.2630
  861POPE   PO412480   9.132   9.860   5.886  0.2224 -0.3388 -0.0354
  861POPE   GL112481   9.073  10.119   6.309  0.2127 -0.2696  0.0444
  861POPE   GL212482   9.325  10.267   6.397 -0.3726  0.1115  0.3413
  861POPE   C1A12483   8.924  10.531   6.556  0.4488  0.2041 -0.0861
  861POPE   D2A12484   8.815  10.837   6.902  0.0504  0.4086 -0.1454
  861POPE   C3A12485   8.916  10.960   7.389  0.0036 -0.0432  0.2518
  861POPE   C4A12486   9.050  10.926   7.832  0.2281  0.0593  0.0592
  861POPE   C1B12487   9.330  10.330   6.786 -0.2248 -0.3328 -0.2726
  861POPE   C2B12488   9.146  10.499   7.031 -0.3416 -0.0185 -0.2296
  861POPE   C3B12489   8.822  10.388   7.193 -0.2805  0.1248  0.0902
  861POPE   C4B12490   8.553  10.443   7.545 -0.1891 -0.1181 -0.0915
  862POPE   NH312491  15.335   1.836   5.885  0.2604  0.0847 -0.0970
  862POPE   PO412492  15.609   2.126   5.748 -0.0564  0.1590  0.1527
  862POPE   GL112493  15.532   2.245   6.091 -0.0157 -0.0689 -0.0511
  862POPE   GL212494  15.802   2.453   6.105 -0.0460  0.1609  0.2096
  862POPE   C1A12495  15.423   2.015   6.479 -0.0545  0.0110  0.0903
  862POPE   D2A12496  15.368   2.041   6.956 -0.2043 -0.2417  0.0062
  862POPE   C3A12497  15.756   2.142   7.277  0.3567 -0.3104 -0.1016
  862POPE   C4A12498  15.766   2.394   7.789 -0.3659  0.1911  0.2898
  862POPE   C1B12499  15.697   2.907   6.352 -0.0178 -0.0491  0.1037
  862POPE   C2B12500  15.741   3.015   6.754 -0.1700 -0.2245 -0.1575
  862POPE   C3B12501  15.890   3.137   7.205  0.2238  0.0801 -0.1074
  862POPE   C4B12502  16.009   2.991   7.613 -0.0847  0.0953  0.0176
  863POPE   NH312503  16.648   5.844   4.948 -0.0032  0.4014  0.0529
  863POPE   PO412504  16.884   5.690   5.297  0.0342 -0.0648 -0.0200
  863POPE   GL112505  16.901   5.781   5.756 -0.3016  0.3337  0.1390
  863POPE   GL212506  16.768   5.606   5.975  0.3026 -0.0097 -0.0893
  863POPE   C1A12507  17.170   5.843   6.114  0.1062  0.2618  0.0866
  863POPE   D2A12508  17.271   5.642   6.408 -0.0435 -0.0649  0.1215
  863POPE   C3A12509  17.455   5.826   6.876 -0.1849  0.1404 -0.1649
  863POPE   C4A12510  17.507   6.115   7.238  0.0589  0.1182  0.3572
  863POPE   C1B12511  16.750   5.635   6.431 -0.1976 -0.0032  0.2464
  863POPE   C2B12512  16.569   5.725   6.726  0.3631 -0.2674  0.3248
  863POPE   C3B12513  16.590   5.550   7.143  0.2935 -0.1780  0.0013
  863POPE   C4B12514  16.470   5.384   7.552  0.2188  0.2592  0.0545
  864POPE   NH312515  14.792  15.683   5.600 -0.1737  0.0214  0.0250
  864POPE   PO412516  15.197  15.608   5.503 -0.1261  0.1958 -0.2154
  864POPE   GL112517  15.192  15.488   6.041  0.1663 -0.1695 -0.0301
  864POPE   GL212518  15.058  15.172   6.018  0.1105  0.0753  0.0050
  864POPE   C1A12519  15.177  15.375   6.493  0.0026 -0.1233 -0.2704
  864POPE   D2A12520  15.249  15.304   7.034  0.0186  0.3342 -0.1418
  864POPE   C3A12521  14.872  15.391   7.266  0.0253  0.1194 -0.0791
  864POPE   C4A12522  14.678  15.512   7.649  0.0468 -0.1573  0.1051
  864POPE   C1B12523  15.213  14.890   6.445  0.1505  0.2575 -0.2531
  864POPE   C2B12524  15.258  14.811   6.851 -0.0996 -0.0427 -0.0577
  864POPE   C3B12525  15.421  14.826   7.137  0.0239  0.0932 -0.0215
  864POPE   C4B12526  15.562  14.793   7.562  0.2302 -0.1225  0.2444
  865POPE   NH312527  13.272   1.762   5.826  0.0251  0.0138  0.2849
  865POPE   PO412528  13.668   1.839   5.994  0.2822 -0.1601  0.1827
  865POPE   GL112529  13.611   1.732   6.426  0.1469 -0.0932 -0.0624
  865POPE   GL212530  13.851   1.903   6.568  0.1060 -0.1807 -0.1169
  865POPE   C1A12531  13.475   1.684   6.841  0.0681  0.1597 -0.2199
  865POPE   D2A12532  13.478   1.587   7.283 -0.2330  0.0035 -0.2570
  865POPE   C3A12533  13.818   1.551   7.500  0.5892  0.0571  0.1436
  865POPE   C4A12534  13.930   1.583   7.956  0.0331  0.1888 -0.0316
  865POPE   C1B12535  13.943   1.637   6.928  0.1386 -0.3688 -0.1060
  865POPE   C2B12536  14.250   1.514   7.244 -0.1658 -0.0113  0.1202
  865POPE   C3B12537  14.238   1.318   7.634 -0.3667  0.1441 -0.3046
  865POPE   C4B12538  14.380   1.082   7.947 -0.2307  0.1482 -0.1028
  866POPE   NH312539   9.764  17.692   5.760 -0.0651  0.4427  0.1898
  866POPE   PO412540   9.590  18.170   5.853  0.2160  0.2761  0.1743
  866POPE   GL112541   9.631  18.274   6.326 -0.3949 -0.1333 -0.0825
  866POPE   GL212542   9.276  18.332   6.442  0.2352  0.0121 -0.0923
  866POPE   C1A12543   9.808  18.105   6.706 -0.0386  0.3845  0.2711
  866POPE   D2A12544   9.711  18.040   7.048 -0.0458  0.0887  0.0834
  866POPE   C3A12545   9.712  17.873   7.461  0.0647 -0.1249  0.0647
  866POPE   C4A12546   9.427  17.726   7.710  0.3004  0.2295  0.1347
  866POPE   C1B12547   8.978  18.386   6.858 -0.0993 -0.0418 -0.1672
  866POPE   C2B12548   8.893  18.344   7.289  0.0617  0.2790 -0.0654
  866POPE   C3B12549   8.887  18.569   7.614 -0.2831 -0.2738 -0.3813
  866POPE   C4B12550   9.001  18.876   7.836 -0.0703  0.0335 -0.4236
  867POPE   NH312551   7.442   6.980   6.317 -0.0155  0.0213 -0.0092
  867POPE   PO412552   7.093   7.055   6.250  0.1989  0.0413  0.2185
  867POPE   GL112553   7.044   7.148   6.652 -0.0136  0.0017 -0.2818
  867POPE   GL212554   7.357   7.025   6.793 -0.0883 -0.2692 -0.1810
  867POPE   C1A12555   7.027   7.315   7.057 -0.2186 -0.0024 -0.0063
  867POPE   D2A12556   7.067   7.200   7.439 -0.0355  0.1918 -0.2892
  867POPE   C3A12557   6.821   6.994   7.817 -0.2440  0.1905  0.2524
  867POPE   C4A12558   6.564   6.708   8.037 -0.0476 -0.1709 -0.1650
  867POPE   C1B12559   7.537   7.308   6.936 -0.1417  0.2226  0.0125
  867POPE   C2B12560   7.693   7.461   7.370  0.0602  0.3421 -0.0939
  867POPE   C3B12561   7.424   7.485   7.679  0.2471 -0.0056 -0.1945
  867POPE   C4B12562   7.097   7.411   7.877  0.1505 -0.2113 -0.0416
  868POPE   NH312563   0.910   0.528   5.713  0.0884 -0.1149  0.1508
  868POPE   PO412564   0.985   0.968   5.647 -0.0382 -0.2148  0.0140
  868POPE   GL112565   0.826   1.312   5.863  0.0154 -0.1110  0.0983
  868POPE   GL212566   0.608   1.173   6.124  0.0223  0.1237  0.2075
  868POPE   C1A12567   0.690   1.673   6.156  0.1165  0.0354  0.0955
  868POPE   D2A12568   1.044   1.874   6.293 -0.2823 -0.3747 -0.1046
  868POPE   C3A12569   1.346   2.148   6.467 -0.0654  0.0092 -0.0353
  868POPE   C4A12570   1.414   2.628   6.395 -0.1549  0.0985  0.0090
  868POPE   C1B12571   0.512   0.876   6.462 -0.3517 -0.2391  0.3509
  868POPE   C2B12572   0.622   0.961   6.957 -0.1794 -0.1542  0.0837
  868POPE   C3B12573   0.458   0.829   7.371  0.0935 -0.0715 -0.1027
  868POPE   C4B12574   0.392   0.958   7.723  0.0684  0.3276  0.3058
  869POPE   NH312575   5.661   4.072   6.283 -0.0785 -0.2087 -0.0110
  869POPE   PO412576   5.775   4.336   5.980  0.1086  0.0781 -0.1815
  869POPE   GL112577   5.839   4.623   6.353  0.0928  0.0990 -0.2012
  869POPE   GL212578   5.583   4.723   6.592 -0.2435 -0.0251  0.1463
  869POPE   C1A12579   5.988   4.662   6.845 -0.0644 -0.0218  0.2282
  869POPE   D2A12580   6.372   4.696   7.148 -0.1528 -0.3094 -0.0406
  869POPE   C3A12581   6.735   4.820   6.853 -0.3689  0.0517 -0.2230
  869POPE   C4A12582   7.061   5.058   6.589 -0.0881 -0.4964  0.0209
  869POPE   C1B12583   5.558   4.956   7.016  0.1806  0.1698  0.0629
  869POPE   C2B12584   5.470   4.866   7.548  0.0390  0.1009 -0.2451
  869POPE   C3B12585   5.566   4.444   7.696 -0.1969  0.0975 -0.0955
  869POPE   C4B12586   5.646   3.993   7.383 -0.3913 -0.2941 -0.1776
  870POPE   NH312587   5.285  14.229   5.411  0.0569  0.0915 -0.0941
  870POPE   PO412588   5.693  14.508   5.634  0.0030 -0.0260  0.1893
  870POPE   GL112589   5.968  14.293   5.761  0.0736 -0.3540  0.0845
  870POPE   GL212590   6.010  14.423   6.104 -0.2849 -0.1598  0.0310
  870POPE   C1A12591   5.984  13.903   6.023  0.0769  0.1464 -0.0364
  870POPE   D2A12592   6.068  13.561   5.846  0.1162  0.0227  0.0015
  870POPE   C3A12593   6.244  13.198   6.062  0.0406  0.1969  0.0125
  870POPE   C4A12594   6.293  12.803   6.212  0.2574  0.0215  0.2235
  870POPE   C1B12595   5.962  14.127   6.439 -0.2930  0.2179  0.1410
  870POPE   C2B12596   5.792  13.953   6.589  0.2010 -0.1643  0.2901
  870POPE   C3B12597   5.658  13.978   7.000 -0.2255 -0.0745  0.0612
  870POPE   C4B12598   5.375  14.313   7.210  0.3575 -0.0097 -0.0777
  871YOPE   NH312599   1.793  15.685   5.645  0.0020 -0.1019 -0.1258
  871YOPE   PO412600   1.837  16.061   5.841  0.0046  0.1404 -0.2073
  871YOPE   GL112601   1.816  16.173   6.305  0.2726 -0.3907 -0.0956
  871YOPE   GL212602   2.117  15.962   6.284 -0.0252  0.5418 -0.1934
  871YOPE   C1A12603   1.822  16.151   6.685 -0.0747  0.0199  0.0033
  871YOPE   D2A12604   2.054  16.135   7.063  0.0556 -0.1809 -0.1885
  871YOPE   C3A12605   2.085  16.546   7.176 -0.3089 -0.2781 -0.0063
  871YOPE   C4A12606   2.218  16.981   7.061 -0.0800 -0.1941 -0.1150
  871YOPE   C1B12607   2.145  15.654   6.539  0.0511 -0.1476  0.1809
  871YOPE   C2B12608   2.160  15.684   7.030  0.1096  0.3492 -0.1577
  871YOPE   D3B12609   2.553  15.773   7.218 -0.0639  0.0571 -0.2561
  871YOPE   C4B12610   2.803  15.635   7.526 -0.2993 -0.0896  0.1748
  872YOPE   NH312611   0.558   4.430   5.440 -0.1187  0.0149  0.0383
  872YOPE   PO412612   0.798   4.696   5.195  0.0699  0.1693 -0.1074
  872YOPE   GL112613   0.777   4.848   5.594 -0.1754 -0.2014 -0.0547
  872YOPE   GL212614   0.964   4.668   5.812 -0.0102 -0.0228  0.1810
  872YOPE   C1A12615   0.614   4.883   6.049  0.1018 -0.0930 -0.2430
  872YOPE   D2A12616   0.353   4.644   6.357  0.0595 -0.1631 -0.2605
  872YOPE   C3A12617  -0.096   4.797   6.520 -0.0039  0.0535 -0.0279
  872YOPE   C4A12618  -0.465   5.069   6.403 -0.0105 -0.0915  0.0110
  872YOPE   C1B12619   0.983   4.560   6.236 -0.2506  0.0227  0.1671
  872YOPE   C2B12620   1.040   4.490   6.665  0.2204 -0.1702 -0.1022
  872YOPE   D3B12621   1.239   4.547   7.006 -0.0664 -0.1434 -0.2630
  872YOPE   C4B12622   1.629   4.786   7.051 -0.2932  0.0631  0.2830
  873YOPE   NH312623  15.278   7.948   5.489 -0.0167 -0.0542 -0.4085
  873YOPE   PO412624  14.898   8.153   5.347  0.0047 -0.0158 -0.0116
  873YOPE   GL112625  14.971   8.187   5.793  0.2056  0.1793  0.1674
  873YOPE   GL212626  14.793   8.108   6.052 -0.1337 -0.1216  0.2191
  873YOPE   C1A12627  15.117   8.491   6.050  0.4952  0.3550  0.2219
  873YOPE   D2A12628  14.971   8.775   6.434 -0.1061 -0.0434 -0.0692
  873YOPE   C3A12629  15.001   8.453   6.772  0.0437  0.2387 -0.2414
  873YOPE   C4A12630  14.831   8.183   6.756 -0.0886 -0.0267  0.2252
  873YOPE   C1B12631  15.106   8.083   6.367 -0.0788  0.1953 -0.0431
  873YOPE   C2B12632  15.309   8.049   6.718 -0.1790  0.0644 -0.0662
  873YOPE   D3B12633  15.524   8.097   7.202  0.4402  0.1561  0.0958
  873YOPE   C4B12634  15.476   8.339   7.579 -0.0385 -0.0546 -0.0437
  874YOPE   NH312635  16.387  13.321   5.545  0.0411  0.3092 -0.2557
  874YOPE   PO412636  16.744  13.164   5.666  0.2718  0.0469  0.0943
  874YOPE   GL112637  16.590  13.540   5.927  0.0230 -0.0596  0.0189
  874YOPE   GL212638  16.636  13.853   6.024 -0.1100 -0.2319 -0.0125
  874YOPE   C1A12639  16.740  13.476   6.395 -0.0681  0.2008  0.1339
  874YOPE   D2A12640  16.893  13.666   6.749  0.0572 -0.2952  0.3975
  874YOPE   C3A12641  16.723  13.866   7.166 -0.1757 -0.0592  0.0583
  874YOPE   C4A12642  16.831  13.780   7.599  0.2983  0.1706  0.2866
  874YOPE   C1B12643  16.678  13.993   6.397 -0.0458 -0.2269  0.3157
  874YOPE   C2B12644  16.808  14.357   6.631 -0.1823  0.0202 -0.1182
  874YOPE   D3B12645  16.735  14.362   7.060  0.3336 -0.1181 -0.0602
  874YOPE   C4B12646  16.542  14.673   7.393  0.1307 -0.2231 -0.0197
  875YOPE   NH312647   0.075  13.873   5.583 -0.2185  0.0520  0.1248
  875YOPE   PO412648  -0.254  14.235   5.428  0.2748 -0.0357  0.2501
  875YOPE   GL112649  -0.292  14.184   5.909 -0.3485  0.3822 -0.0016
  875YOPE   GL212650  -0.369  14.300   6.163  0.2603  0.1418 -0.1700
  875YOPE   C1A12651  -0.217  13.775   6.199 -0.0081 -0.0589 -0.1985
  875YOPE   D2A12652  -0.473  13.542   6.590 -0.1925 -0.0503 -0.0350
  875YOPE   C3A12653  -0.529  13.246   6.988  0.0654  0.0541 -0.0916
  875YOPE   C4A12654  -0.791  13.345   7.370 -0.0392 -0.0014  0.0871
  875YOPE   C1B12655  -0.144  14.556   6.453 -0.1871 -0.2205  0.0471
  875YOPE   C2B12656  -0.125  14.789   6.795 -0.2544  0.1003  0.2060
  875YOPE   D3B12657  -0.161  15.238   6.875 -0.0452  0.1885  0.0468
  875YOPE   C4B12658  -0.039  15.468   7.222 -0.1949 -0.3591 -0.3246
  876YOPE   NH312659  14.744  14.829   5.675  0.3994  0.1117 -0.2014
  876YOPE   PO412660  14.314  14.930   5.675  0.3534 -0.2202  0.4343
  876YOPE   GL112661  14.359  14.939   6.022 -0.2422 -0.1702  0.1040
  876YOPE   GL212662  14.101  15.005   6.219 -0.0287  0.0492  0.1286
  876YOPE   C1A12663  14.611  14.937   6.285 -0.2126 -0.0563 -0.0216
  876YOPE   D2A12664  14.672  14.655   6.684  0.2508 -0.0310  0.2706
  876YOPE   C3A12665  14.498  14.469   6.967 -0.1226 -0.1941  0.0340
  876YOPE   C4A12666  14.465  14.409   7.482 -0.1476  0.0012  0.0811
  876YOPE   C1B12667  14.301  14.975   6.732  0.1248 -0.1272 -0.1906
  876YOPE   C2B12668  14.548  15.052   7.176  0.2869 -0.0692 -0.0165
  876YOPE   D3B12669  14.891  14.846   7.215  0.3553 -0.2052 -0.0087
  876YOPE   C4B12670  14.916  14.466   7.149  0.0110 -0.0080  0.1951
  877YOPE   NH312671  13.223  13.637   5.461 -0.0322 -0.3667 -0.5149
  877YOPE   PO412672  13.099  13.904   5.839 -0.0008  0.0722  0.3317
  877YOPE   GL112673  13.504  13.924   6.021  0.0963 -0.0587 -0.0238
  877YOPE   GL212674  13.486  14.192   6.339  0.1472  0.2142  0.1452
  877YOPE   C1A12675  13.593  13.653   6.285 -0.0554  0.1541 -0.1300
  877YOPE   D2A12676  13.350  13.502   6.500 -0.0371  0.1351  0.1456
  877YOPE   C3A12677  13.308  13.077   6.676 -0.2744 -0.1413 -0.4776
  877YOPE   C4A12678  12.996  13.020   6.969  0.1458 -0.2512  0.4063
  877YOPE   C1B12679  13.243  14.379   6.629 -0.2891 -0.0399  0.4299
  877YOPE   C2B12680  13.224  14.292   7.014  0.0051 -0.0402 -0.0898
  877YOPE   D3B12681  13.449  14.382   7.364  0.0459 -0.1297  0.2138
  877YOPE   C4B12682  13.839  14.560   7.511 -0.2447 -0.5102 -0.0753
  878YOPE   NH312683   9.770   6.087   6.494 -0.0601 -0.5511 -0.1108
  878YOPE   PO412684  10.214   6.187   6.316  0.4389  0.3713 -0.2860
  878YOPE   GL112685  10.303   6.378   6.682 -0.0424  0.2227 -0.0754
  878YOPE   GL212686  10.157   6.673   6.595 -0.1831  0.0081 -0.2696
  878YOPE   C1A12687  10.374   6.313   7.124  0.0316 -0.1569  0.1121
  878YOPE   D2A12688  10.242   6.143   7.522 -0.3376 -0.1429 -0.3143
  878YOPE   C3A12689  10.356   6.204   7.889 -0.2918 -0.1427 -0.0997
  878YOPE   C4A12690  10.234   6.424   8.235 -0.1352  0.1868  0.2016
  878YOPE   C1B12691  10.274   6.810   7.054 -0.0766  0.0673 -0.1824
  878YOPE   C2B12692  10.263   6.677   7.512  0.0467  0.2709  0.1013
  878YOPE   D3B12693  10.252   6.838   7.939 -0.0566 -0.0480 -0.1697
  878YOPE   C4B12694  10.207   6.986   8.356  0.0377 -0.1651  0.2688
  879YOPE   NH312695  17.120  13.408   5.381  0.2060  0.2368  0.3636
  879YOPE   PO412696  16.833  13.641   5.498  0.1101 -0.1932 -0.1535
  879YOPE   GL112697  17.066  13.586   5.875  0.2147 -0.0701  0.1108
  879YOPE   GL212698  17.168  13.345   5.907  0.0774 -0.3038  0.3785
  879YOPE   C1A12699  17.127  13.652   6.291 -0.0843 -0.1281  0.2297
  879YOPE   D2A12700  17.386  13.616   6.552  0.2340  0.0958 -0.2124
  879YOPE   C3A12701  17.596  13.747   6.808 -0.0212  0.0931  0.0653
  879YOPE   C4A12702  17.882  13.797   7.122 -0.0130  0.0647  0.0946
  879YOPE   C1B12703  17.083  13.082   6.232  0.1323  0.0743 -0.1169
  879YOPE   C2B12704  17.045  13.181   6.644 -0.1839 -0.0826  0.2528
  879YOPE   D3B12705  17.225  13.348   7.036  0.0030 -0.1573 -0.4414
  879YOPE   C4B12706  17.289  13.662   7.275  0.0244 -0.0709  0.1377
  880YOPE   NH312707  13.064  15.530   5.586  0.4263 -0.1479  0.1497
  880YOPE   PO412708  13.384  15.414   5.819  0.0113 -0.2914 -0.0080
  880YOPE   GL112709  13.017  15.439   6.141 -0.0502 -0.2418 -0.0621
  880YOPE   GL212710  13.103  15.392   6.416  0.0749  0.2648 -0.2347
  880YOPE   C1A12711  12.761  15.684   6.411  0.0573  0.1693  0.1064
  880YOPE   D2A12712  12.281  15.743   6.277 -0.1809  0.1829  0.2448
  880YOPE   C3A12713  11.941  15.734   6.653 -0.1871  0.5730  0.0892
  880YOPE   C4A12714  11.903  15.870   7.130 -0.2343  0.3337  0.1766
  880YOPE   C1B12715  13.453  15.326   6.708  0.1729 -0.0819 -0.0658
  880YOPE   C2B12716  13.569  15.454   6.963 -0.2025  0.3022 -0.0235
  880YOPE   D3B12717  13.767  15.444   7.361  0.0781  0.1645  0.2234
  880YOPE   C4B12718  13.870  15.713   7.728  0.1088 -0.0514 -0.2922
  881YOPE   NH312719   7.822  16.713   5.934  0.3309  0.0690 -0.3797
  881YOPE   PO412720   7.823  17.022   6.116  0.1232 -0.4126  0.0612
  881YOPE   GL112721   7.898  17.119   6.514  0.1139  0.3127 -0.2964
  881YOPE   GL212722   8.187  17.049   6.596 -0.3447 -0.2130  0.1266
  881YOPE   C1A12723   7.670  17.332   6.804 -0.1710  0.2755  0.4242
  881YOPE   D2A12724   7.246  17.258   6.897 -0.1346 -0.0835  0.0452
  881YOPE   C3A12725   7.074  17.587   7.048  0.0112 -0.0406  0.0553
  881YOPE   C4A12726   7.032  17.926   7.122 -0.2681 -0.0256 -0.0774
  881YOPE   C1B12727   8.473  16.973   6.916 -0.0827  0.0166 -0.1074
  881YOPE   C2B12728   8.436  16.845   7.281  0.2115 -0.2415 -0.3163
  881YOPE   D3B12729   8.180  16.947   7.616 -0.0971  0.2089  0.1114
  881YOPE   C4B12730   8.008  17.299   7.918  0.0745  0.1308 -0.0875
  882YOPE   NH312731   2.003  14.786   5.478  0.0819  0.2955  0.0910
  882YOPE   PO412732   2.357  14.950   5.804  0.1213 -0.0072 -0.2080
  882YOPE   GL112733   2.384  14.825   6.135 -0.0085 -0.2760  0.0877
  882YOPE   GL212734   2.301  14.515   6.102  0.0752  0.0732  0.3244
  882YOPE   C1A12735   2.113  14.858   6.506 -0.0614 -0.0091 -0.2400
  882YOPE   D2A12736   2.014  14.792   6.939  0.1036  0.3029 -0.0974
  882YOPE   C3A12737   1.764  14.396   6.984 -0.1470  0.2695  0.2474
  882YOPE   C4A12738   1.270  14.304   7.049  0.2270  0.2571  0.3218
  882YOPE   C1B12739   2.608  14.663   6.486  0.1643 -0.2542  0.1670
  882YOPE   C2B12740   2.597  14.790   6.911  0.1974 -0.2721 -0.0713
  882YOPE   D3B12741   2.395  14.692   7.248 -0.1181 -0.0615  0.1036
  882YOPE   C4B12742   2.155  14.376   7.296  0.0991  0.1507 -0.3961
  883YOPE   NH312743  12.976  13.091   5.660 -0.0922 -0.1680  0.3697
  883YOPE   PO412744  13.100  12.879   6.007  0.2331 -0.0435  0.0691
  883YOPE   GL112745  13.196  12.741   6.359  0.2343  0.3612  0.1626
  883YOPE   GL212746  13.077  12.373   6.263  0.2136 -0.0484  0.3598
  883YOPE   C1A12747  13.346  12.585   6.813 -0.0283  0.0267 -0.0157
  883YOPE   D2A12748  13.194  12.575   7.190 -0.2758  0.0112 -0.1456
  883YOPE   C3A12749  13.153  12.293   7.572 -0.1566  0.0205 -0.1583
  883YOPE   C4A12750  13.050  12.278   7.979 -0.3417 -0.2063 -0.0485
  883YOPE   C1B12751  12.832  12.592   6.687 -0.0467  0.1709 -0.0877
  883YOPE   C2B12752  12.661  12.460   7.153 -0.2459  0.2114  0.2696
  883YOPE   D3B12753  12.655  12.445   7.595 -0.0587 -0.3752 -0.0450
  883YOPE   C4B12754  12.527  12.263   7.999 -0.0256 -0.2851 -0.2924
  884YOPE   NH312755   1.777  13.536   5.197 -0.1198  0.0587 -0.3046
  884YOPE   PO412756   1.762  13.275   5.590 -0.2441  0.0181  0.1357
  884YOPE   GL112757   1.588  13.115   5.905  0.1917  0.1532 -0.0994
  884YOPE   GL212758   1.314  13.132   5.780  0.0020  0.2494 -0.2568
  884YOPE   C1A12759   1.405  13.149   6.329 -0.1906  0.1111 -0.1248
  884YOPE   D2A12760   1.323  13.233   6.771  0.1148 -0.0664  0.0275
  884YOPE   C3A12761   1.029  13.312   7.007  0.3327 -0.0798 -0.0353
  884YOPE   C4A12762   0.694  13.065   7.081 -0.0411  0.1390  0.0058
  884YOPE   C1B12763   1.148  13.481   6.005 -0.0595 -0.0065  0.0310
  884YOPE   C2B12764   1.359  13.624   6.393 -0.1287 -0.2188  0.1144
  884YOPE   D3B12765   1.436  13.840   6.684 -0.2106 -0.0412 -0.2711
  884YOPE   C4B12766   1.512  14.217   6.574  0.1438 -0.0603 -0.0941
  885YOPE   NH312767  12.125   0.901   5.762 -0.0971  0.0761 -0.0563
  885YOPE   PO412768  11.693   0.939   5.906  0.0252 -0.0411  0.3226
  885YOPE   GL112769  11.459   0.803   6.288  0.0371  0.1465  0.0368
  885YOPE   GL212770  11.437   0.503   6.251  0.1943 -0.1387  0.1632
  885YOPE   C1A12771  11.368   0.864   6.787  0.3472  0.1097  0.3176
  885YOPE   D2A12772  11.363   0.819   7.151  0.1516 -0.0767  0.1915
  885YOPE   C3A12773  11.355   0.637   7.526 -0.1431 -0.1383  0.3694
  885YOPE   C4A12774  11.239   0.665   7.943 -0.1465 -0.0373 -0.0302
  885YOPE   C1B12775  11.421   0.307   6.649  0.1267  0.0005  0.2340
  885YOPE   C2B12776  11.416   0.262   7.116  0.1085  0.2942 -0.3405
  885YOPE   D3B12777  11.339   0.126   7.636  0.0518  0.1635 -0.1850
  885YOPE   C4B12778  11.213  -0.082   7.956  0.1150 -0.0347 -0.2502
  886YOPE   NH312779  18.465  10.082   5.381  0.4480 -0.0440 -0.0925
  886YOPE   PO412780  18.711  10.392   5.383  0.3373 -0.0059 -0.2743
  886YOPE   GL112781  18.798  10.442   5.826  0.0597 -0.1243 -0.1852
  886YOPE   GL212782  19.076  10.186   5.943  0.0050  0.0139 -0.0044
  886YOPE   C1A12783  18.782  10.769   6.200  0.1696 -0.1064  0.1789
  886YOPE   D2A12784  18.998  10.899   6.530 -0.0953 -0.1656  0.0809
  886YOPE   C3A12785  18.937  10.867   6.902  0.0663 -0.2450 -0.2022
  886YOPE   C4A12786  18.751  10.543   6.987 -0.1241  0.1751  0.2875
  886YOPE   C1B12787  19.007   9.839   6.267 -0.1275 -0.0420 -0.3838
  886YOPE   C2B12788  18.776   9.861   6.622 -0.0887  0.2366 -0.0602
  886YOPE   D3B12789  18.462   9.910   6.942  0.0879  0.0055 -0.1919
  886YOPE   C4B12790  18.194  10.228   7.251 -0.1773 -0.0740  0.0897
  887YOPE   NH312791   6.763  15.163   5.747 -0.0850  0.1496 -0.1039
  887YOPE   PO412792   6.718  14.776   5.472  0.0212  0.1538 -0.0978
  887YOPE   GL112793   6.574  14.692   6.003 -0.1035  0.2819 -0.0755
  887YOPE   GL212794   6.787  14.847   6.137 -0.0001  0.0288 -0.1880
  887YOPE   C1A12795   6.435  14.435   6.367 -0.0914  0.1581 -0.2262
  887YOPE   D2A12796   6.314  14.530   6.901  0.1646  0.2341 -0.0195
  887YOPE   C3A12797   6.426  14.617   7.320  0.0053  0.1745 -0.2721
  887YOPE   C4A12798   6.637  14.523   7.759 -0.0596 -0.3454  0.1396
  887YOPE   C1B12799   6.740  14.820   6.530 -0.0297  0.2831  0.1480
  887YOPE   C2B12800   6.602  14.942   6.959 -0.1817  0.0742 -0.0607
  887YOPE   D3B12801   6.226  15.030   7.100  0.1600 -0.1222  0.0085
  887YOPE   C4B12802   5.844  14.695   7.275  0.1393  0.1210  0.3022
  888YOPE   NH312803   7.839  10.511   6.069  0.1073 -0.2956  0.0291
  888YOPE   PO412804   7.553  10.325   6.168  0.1079 -0.1700  0.1240
  888YOPE   GL112805   7.497  10.496   6.441 -0.2188  0.2714 -0.2036
  888YOPE   GL212806   7.537  10.776   6.446  0.0129 -0.0606 -0.3135
  888YOPE   C1A12807   7.265  10.225   6.735  0.1571  0.3382  0.2356
  888YOPE   D2A12808   7.295  10.304   7.157  0.1439 -0.0966 -0.0430
  888YOPE   C3A12809   7.421  10.745   7.427 -0.0782  0.0357 -0.0904
  888YOPE   C4A12810   7.336  11.155   7.240 -0.0453 -0.2500  0.0820
  888YOPE   C1B12811   7.719  11.062   6.693  0.0593  0.1738 -0.0337
  888YOPE   C2B12812   7.835  11.033   7.143  0.0086 -0.1995  0.0040
  888YOPE   D3B12813   7.960  10.956   7.538  0.1554  0.0507 -0.1295
  888YOPE   C4B12814   7.735  10.794   7.823  0.0373  0.4540 -0.4681
  889YOPE   NH312815   9.866  15.620   6.464 -0.0364 -0.1316  0.1658
  889YOPE   PO412816   9.904  16.027   6.459 -0.1682 -0.1639  0.1242
  889YOPE   GL112817   9.846  15.912   6.860 -0.2017 -0.3204  0.0651
  889YOPE   GL212818  10.139  15.829   6.947 -0.0910  0.1120  0.0527
  889YOPE   C1A12819   9.626  16.056   7.183 -0.0654 -0.0412  0.0122
  889YOPE   D2A12820   9.361  16.139   7.437  0.3918  0.3243  0.1342
  889YOPE   C3A12821   9.434  16.469   7.660  0.1232  0.2897  0.1585
  889YOPE   C4A12822   9.415  16.840   7.972 -0.1700  0.1907 -0.0864
  889YOPE   C1B12823  10.329  15.707   7.283  0.0669 -0.2449  0.2594
  889YOPE   C2B12824  10.249  15.799   7.645  0.1553 -0.1262 -0.0308
  889YOPE   D3B12825  10.145  15.971   8.086 -0.0809  0.0325  0.0821
  889YOPE   C4B12826   9.791  16.033   8.491 -0.3713 -0.1087  0.5112
  890YOPE   NH312827   0.397   2.255   5.475  0.0267 -0.1195  0.2874
  890YOPE   PO412828   0.180   1.955   5.253  0.6115 -0.4170  0.0832
  890YOPE   GL112829   0.076   1.983   5.790  0.1783  0.2694  0.0958
  890YOPE   GL212830  -0.236   1.889   5.887 -0.2408  0.1218 -0.2583
  890YOPE   C1A12831   0.198   1.787   6.178 -0.0143 -0.1189 -0.0597
  890YOPE   D2A12832   0.266   1.422   6.414  0.0391 -0.1254 -0.1316
  890YOPE   C3A12833   0.375   1.432   6.838  0.3053  0.0695  0.0730
  890YOPE   C4A12834   0.338   1.355   7.324  0.2242  0.1510 -0.0436
  890YOPE   C1B12835  -0.234   1.842   6.317  0.2850  0.2766  0.5016
  890YOPE   C2B12836  -0.039   1.736   6.680  0.2193 -0.1578  0.0814
  890YOPE   D3B12837  -0.060   1.461   7.084  0.1054 -0.0569 -0.1663
  890YOPE   C4B12838  -0.071   1.659   7.464 -0.0304 -0.3138  0.1940
  891YOPE   NH312839   3.233   8.663   5.123 -0.0371 -0.2649  0.1989
  891YOPE   PO412840   3.701   8.630   5.170 -0.1196  0.1582 -0.2902
  891YOPE   GL112841   3.651   8.819   5.575  0.1080  0.1702 -0.2681
  891YOPE   GL212842   3.878   8.803   5.699 -0.2812 -0.0917 -0.0050
  891YOPE   C1A12843   3.286   8.953   5.826  0.2052 -0.0895 -0.0036
  891YOPE   D2A12844   3.204   9.113   6.224 -0.4918 -0.1128 -0.3603
  891YOPE   C3A12845   3.310   8.832   6.580  0.2697 -0.0465  0.4704
  891YOPE   C4A12846   3.336   8.554   6.859  0.2706  0.0832  0.0079
  891YOPE   C1B12847   3.722   8.715   6.074  0.3087  0.2361 -0.1850
  891YOPE   C2B12848   3.864   8.651   6.545 -0.0329  0.1982  0.0487
  891YOPE   D3B12849   3.765   8.864   6.885  0.2756  0.4861  0.2441
  891YOPE   C4B12850   3.847   9.084   7.202  0.0405  0.4118  0.3904
  892YOPE   NH312851   1.940   0.942   5.836 -0.1457  0.0357  0.3558
  892YOPE   PO412852   2.129   0.588   5.729 -0.1384 -0.0236 -0.3318
  892YOPE   GL112853   2.181   0.614   6.121 -0.0594 -0.1609 -0.0465
  892YOPE   GL212854   1.992   0.835   6.360 -0.0225  0.0125 -0.2703
  892YOPE   C1A12855   2.472   0.507   6.425  0.0613 -0.1132  0.2713
  892YOPE   D2A12856   2.379   0.118   6.631  0.0153  0.1963  0.0489
  892YOPE   C3A12857   2.426   0.268   7.077  0.0416 -0.0534  0.1476
  892YOPE   C4A12858   2.248   0.558   7.336  0.1768 -0.1315 -0.1059
  892YOPE   C1B12859   2.389   1.022   6.606 -0.0521 -0.0749 -0.3127
  892YOPE   C2B12860   2.365   1.191   7.078  0.0237 -0.1737 -0.1051
  892YOPE   D3B12861   2.435   1.040   7.575 -0.3565 -0.1585  0.0343
  892YOPE   C4B12862   2.638   0.791   7.957 -0.0493  0.3102 -0.0188
  893YOPE   NH312863   5.413  13.631   4.733 -0.1668 -0.0297  0.2524
  893YOPE   PO412864   5.298  13.605   5.095 -0.2186  0.0630  0.0162
  893YOPE   GL112865   5.103  13.384   5.594  0.1263 -0.3838  0.1974
  893YOPE   GL212866   4.967  13.068   5.714  0.0308 -0.3829  0.2131
  893YOPE   C1A12867   5.194  13.462   6.098  0.0481 -0.0082 -0.1924
  893YOPE   D2A12868   4.972  13.574   6.474  0.0157  0.0637  0.0633
  893YOPE   C3A12869   5.202  13.432   6.795  0.0350 -0.0806  0.0336
  893YOPE   C4A12870   5.574  13.506   6.801 -0.2971 -0.0977  0.2502
  893YOPE   C1B12871   4.897  12.766   6.011 -0.2772  0.0515  0.1003
  893YOPE   C2B12872   5.091  12.573   6.449  0.3175 -0.3366 -0.0590
  893YOPE   D3B12873   5.283  12.320   6.683  0.2383  0.0138  0.2479
  893YOPE   C4B12874   5.432  12.128   7.040 -0.0387 -0.2038  0.0233
  894YOPE   NH312875  16.895   1.193   5.585  0.0090 -0.2487 -0.2948
  894YOPE   PO412876  16.513   1.276   5.653  0.1929 -0.1748 -0.1119
  894YOPE   GL112877  16.438   1.260   6.078 -0.1752  0.1177 -0.0555
  894YOPE   GL212878  16.217   1.553   6.250  0.0840  0.2448  0.2932
  894YOPE   C1A12879  16.614   1.044   6.363  0.1705 -0.1620  0.0749
  894YOPE   D2A12880  16.632   0.935   6.746 -0.1955  0.1001 -0.0921
  894YOPE   C3A12881  16.414   1.086   7.040 -0.0497  0.0329 -0.0815
  894YOPE   C4A12882  16.471   1.406   7.328 -0.1324 -0.0060 -0.1577
  894YOPE   C1B12883  16.355   1.782   6.579  0.1716 -0.3297 -0.1708
  894YOPE   C2B12884  16.522   1.897   7.056  0.0289 -0.1220  0.1529
  894YOPE   D3B12885  16.736   2.138   7.362  0.0138 -0.2117 -0.1181
  894YOPE   C4B12886  17.115   2.343   7.381 -0.1947 -0.2998 -0.1631
  895YOPE   NH312887  10.536   4.198   6.031  0.2108  0.0241 -0.2296
  895YOPE   PO412888  10.935   4.476   6.144  0.0265 -0.0221 -0.1347
  895YOPE   GL112889  10.994   4.653   6.495  0.0100 -0.0466  0.0877
  895YOPE   GL212890  10.923   4.928   6.551 -0.2357 -0.2762 -0.0751
  895YOPE   C1A12891  11.169   4.721   6.931 -0.1956  0.1494  0.1927
  895YOPE   D2A12892  11.015   4.611   7.307  0.3148  0.0795  0.6241
  895YOPE   C3A12893  10.606   4.859   7.382 -0.0162 -0.1338 -0.0819
  895YOPE   C4A12894  10.143   5.103   7.426  0.3439  0.2794  0.4056
  895YOPE   C1B12895  10.763   5.182   6.880  0.0230 -0.0151 -0.1340
  895YOPE   C2B12896  10.947   5.552   7.102 -0.2171  0.2516  0.1616
  895YOPE   D3B12897  11.341   5.591   7.333  0.1286 -0.2007  0.0184
  895YOPE   C4B12898  11.742   5.807   7.356 -0.2635  0.1862  0.0253
  896YOPE   NH312899   1.517   6.216   5.261 -0.0592  0.3243  0.2875
  896YOPE   PO412900   1.577   5.785   5.266 -0.0091 -0.2287  0.1963
  896YOPE   GL112901   1.562   5.818   5.716 -0.0000  0.0176 -0.0860
  896YOPE   GL212902   1.817   5.937   5.916 -0.2601 -0.0320 -0.1211
  896YOPE   C1A12903   1.321   5.953   5.980  0.3057  0.4059  0.1955
  896YOPE   D2A12904   1.014   5.943   6.337 -0.1925  0.2208  0.0415
  896YOPE   C3A12905   0.890   6.088   6.760  0.1691  0.2930  0.1756
  896YOPE   C4A12906   0.670   5.878   7.117 -0.0266  0.0117 -0.0889
  896YOPE   C1B12907   1.808   6.112   6.101  0.1367  0.1205  0.2664
  896YOPE   C2B12908   1.738   6.353   6.404 -0.0886  0.3242 -0.1977
  896YOPE   D3B12909   1.861   6.318   6.858  0.1510  0.1984 -0.0383
  896YOPE   C4B12910   2.031   6.286   7.217 -0.0167 -0.0446  0.0917
  897YOPE   NH312911  17.212   9.741   5.557  0.0357 -0.1825  0.1720
  897YOPE   PO412912  17.632   9.921   5.429  0.2736 -0.1884 -0.2052
  897YOPE   GL112913  17.665   9.929   5.852 -0.0484  0.2303 -0.0776
  897YOPE   GL212914  17.805  10.250   5.831 -0.0138 -0.0294 -0.1151
  897YOPE   C1A12915  17.457  10.132   6.205 -0.0276 -0.0309 -0.1070
  897YOPE   D2A12916  17.522  10.075   6.614  0.0516  0.1492  0.3777
  897YOPE   C3A12917  17.170   9.945   6.890  0.1621 -0.0610  0.0329
  897YOPE   C4A12918  16.824   9.767   7.114  0.0580  0.2746  0.1171
  897YOPE   C1B12919  18.070   9.996   6.168  0.1920  0.0097 -0.0457
  897YOPE   C2B12920  18.048  10.009   6.665 -0.1375  0.3184  0.0508
  897YOPE   D3B12921  17.852   9.914   7.088 -0.1368  0.0749 -0.1925
  897YOPE   C4B12922  17.486  10.043   7.311 -0.0464  0.2870  0.0036
  898YOPE   NH312923  15.037   9.075   5.259  0.1291  0.1986 -0.1995
  898YOPE   PO412924  15.465   9.366   5.333  0.1822 -0.1513  0.0217
  898YOPE   GL112925  15.629   9.509   5.778 -0.0768  0.1825 -0.0673
  898YOPE   GL212926  15.943   9.648   5.651 -0.3440  0.0832  0.1933
  898YOPE   C1A12927  15.685   9.419   6.144 -0.4217  0.4115  0.0402
  898YOPE   D2A12928  15.678   9.624   6.507 -0.0715 -0.2557  0.1124
  898YOPE   C3A12929  15.938   9.908   6.679 -0.1170 -0.2177  0.2072
  898YOPE   C4A12930  16.192  10.232   6.805 -0.0791  0.0001  0.0488
  898YOPE   C1B12931  15.973   9.843   6.065 -0.1472  0.2551 -0.1113
  898YOPE   C2B12932  16.053  10.270   6.267 -0.0496  0.0747  0.1395
  898YOPE   D3B12933  16.216  10.698   6.218  0.1749  0.3065  0.0557
  898YOPE   C4B12934  16.142  11.054   5.977  0.3977 -0.0580 -0.2351
  899YOPE   NH312935  13.523  12.450   6.028 -0.2283 -0.0184 -0.1741
  899YOPE   PO412936  13.770  12.598   5.763 -0.2286 -0.0959  0.3034
  899YOPE   GL112937  13.951  12.793   6.230 -0.2327 -0.2242  0.2570
  899YOPE   GL212938  13.726  12.662   6.444  0.2706  0.1196  0.0626
  899YOPE   C1A12939  14.186  12.934   6.444  0.1258 -0.1387 -0.0497
  899YOPE   D2A12940  14.366  13.055   6.803  0.0015  0.0081  0.1595
  899YOPE   C3A12941  14.287  12.689   7.109  0.1239 -0.1223  0.2673
  899YOPE   C4A12942  14.498  12.445   7.469  0.4099  0.0372  0.2340
  899YOPE   C1B12943  13.835  12.785   6.887  0.0414 -0.0365  0.1066
  899YOPE   C2B12944  13.731  12.690   7.266 -0.1659 -0.1147 -0.0981
  899YOPE   D3B12945  14.004  12.541   7.610  0.0229  0.2134 -0.2124
  899YOPE   C4B12946  13.958  12.599   8.024  0.0430 -0.0544 -0.2448
  900YOPE   NH312947  17.385  17.549   5.619  0.0125 -0.0018  0.0507
  900YOPE   PO412948  17.874  17.636   5.483  0.1266 -0.2127 -0.1072
  900YOPE   GL112949  17.932  17.819   5.900 -0.0970  0.1227 -0.3257
  900YOPE   GL212950  18.101  18.163   5.845 -0.1024  0.4240 -0.5582
  900YOPE   C1A12951  18.045  17.990   6.367  0.0089 -0.0320 -0.1182
  900YOPE   D2A12952  17.874  17.678   6.620 -0.1001 -0.0537  0.0586
  900YOPE   C3A12953  17.615  17.629   7.025 -0.2500 -0.2233 -0.0965
  900YOPE   C4A12954  17.853  17.645   7.417 -0.0231  0.0866  0.0352
  900YOPE   C1B12955  18.429  18.003   6.020 -0.0730  0.0660 -0.0747
  900YOPE   C2B12956  18.598  18.012   6.500 -0.1243 -0.3112  0.4967
  900YOPE   D3B12957  18.392  17.889   6.876  0.1050  0.1378  0.1295
  900YOPE   C4B12958  18.268  17.544   7.021 -0.1765 -0.3391 -0.0620
  901YOPE   NH312959   4.294   7.293   5.641 -0.1819 -0.4597 -0.2106
  901YOPE   PO412960   4.191   7.714   5.356  0.1265 -0.1481  0.2267
  901YOPE   GL112961   4.442   7.784   5.743 -0.0942  0.2996 -0.0383
  901YOPE   GL212962   4.656   7.516   5.855  0.1258  0.1778 -0.1499
  901YOPE   C1A12963   4.450   7.862   6.202  0.2903 -0.0364  0.1202
  901YOPE   D2A12964   4.499   7.722   6.655 -0.4487  0.1127  0.2331
  901YOPE   C3A12965   4.331   7.725   7.107 -0.2887  0.0333 -0.4598
  901YOPE   C4A12966   4.129   7.836   7.465  0.0076  0.1803  0.0123
  901YOPE   C1B12967   4.810   7.518   6.276 -0.0379 -0.3257 -0.1029
  901YOPE   C2B12968   4.842   7.307   6.728  0.2782  0.2842 -0.0268
  901YOPE   D3B12969   4.792   7.374   7.209 -0.0184 -0.0044  0.0837
  901YOPE   C4B12970   4.443   7.405   7.528  0.1333  0.0633  0.0593
  902YOPE   NH312971  14.872   3.428   5.883 -0.0621 -0.1132  0.0986
  902YOPE   PO412972  14.829   3.864   5.774 -0.2459  0.2203  0.3379
  902YOPE   GL112973  14.872   4.000   6.123 -0.1454  0.3494  0.2617
  902YOPE   GL212974  14.765   4.367   6.204 -0.1538 -0.2410 -0.0651
  902YOPE   C1A12975  15.056   4.225   6.553  0.1006  0.3301 -0.3501
  902YOPE   D2A12976  15.017   4.440   6.930  0.0063 -0.1372 -0.2946
  902YOPE   C3A12977  15.273   4.414   7.138  0.2536  0.0677  0.0676
  902YOPE   C4A12978  15.456   4.229   7.456 -0.0533  0.1434 -0.2051
  902YOPE   C1B12979  14.658   4.502   6.589 -0.1825 -0.2605  0.0405
  902YOPE   C2B12980  14.580   4.755   6.909  0.2435 -0.1628 -0.1089
  902YOPE   D3B12981  14.742   4.777   7.292  0.0108 -0.1082  0.0397
  902YOPE   C4B12982  14.878   4.547   7.577 -0.2769 -0.0719  0.1274
  903YOPE   NH312983  14.796  17.507   5.422 -0.0182 -0.2713  0.2267
  903YOPE   PO412984  15.151  17.821   5.504 -0.0768  0.1624 -0.0077
  903YOPE   GL112985  15.188  17.988   5.930 -0.1068  0.2389 -0.0472
  903YOPE   GL212986  15.521  18.020   5.976  0.1210  0.1014 -0.1202
  903YOPE   C1A12987  15.091  18.276   6.249  0.0559 -0.1680 -0.0575
  903YOPE   D2A12988  15.085  18.529   6.564  0.2763  0.1181  0.0043
  903YOPE   C3A12989  15.149  18.545   7.024  0.1407 -0.0045 -0.0625
  903YOPE   C4A12990  15.410  18.786   7.322 -0.0508  0.3146  0.1314
  903YOPE   C1B12991  15.551  18.210   6.400 -0.2420 -0.1029 -0.2955
  903YOPE   C2B12992  15.540  18.171   6.872  0.0666  0.0956 -0.0572
  903YOPE   D3B12993  15.612  18.238   7.297  0.4124  0.1820 -0.1509
  903YOPE   C4B12994  15.512  17.974   7.675  0.1615 -0.0572  0.0791
  904YOPE   NH312995   4.490  16.432   5.746 -0.3653 -0.3668 -0.3374
  904YOPE   PO412996   4.848  16.541   6.041  0.1834  0.0466  0.0899
  904YOPE   GL112997   4.944  16.662   6.342 -0.1676  0.0872 -0.0999
  904YOPE   GL212998   4.679  16.937   6.365  0.0228 -0.0509  0.1264
  904YOPE   C1A12999   5.030  16.668   6.836 -0.0357  0.0889  0.1298
  904YOPE   D2A13000   5.382  16.741   7.051  0.0023 -0.1325 -0.1218
  904YOPE   C3A13001   5.422  16.452   7.223 -0.1871  0.0703 -0.1142
  904YOPE   C4A13002   5.582  16.177   7.448 -0.2107 -0.4682 -0.3803
  904YOPE   C1B13003   4.699  17.022   6.741  0.1546 -0.1353  0.3495
  904YOPE   C2B13004   4.757  17.014   7.146 -0.4556 -0.0472 -0.1229
  904YOPE   D3B13005   4.959  16.824   7.338 -0.4020 -0.0513 -0.1885
  904YOPE   C4B13006   5.017  16.426   7.516  0.3039 -0.2320  0.1457
  905YOPE   NH313007   9.738  10.847   6.182 -0.3075 -0.0819 -0.1711
  905YOPE   PO413008   9.334  10.691   6.101  0.3927  0.2026  0.0268
  905YOPE   GL113009   9.036  10.898   6.322 -0.0981 -0.0392 -0.1287
  905YOPE   GL213010   9.052  11.361   6.433 -0.3475 -0.0735 -0.1930
  905YOPE   C1A13011   8.531  10.905   6.458 -0.0101 -0.2208 -0.1372
  905YOPE   D2A13012   8.263  11.026   6.795  0.1971  0.1835  0.0817
  905YOPE   C3A13013   8.394  10.963   7.276 -0.0805  0.0400 -0.0177
  905YOPE   C4A13014   8.504  10.916   7.659  0.0310 -0.0555  0.1065
  905YOPE   C1B13015   8.860  11.330   6.736  0.1563 -0.1512 -0.0197
  905YOPE   C2B13016   8.669  11.292   7.068  0.3419 -0.2203  0.2901
  905YOPE   D3B13017   8.718  11.511   7.428 -0.0938 -0.3801 -0.2485
  905YOPE   C4B13018   8.620  11.747   7.809 -0.1217 -0.0730  0.1310
  906YOPE   NH313019  11.250  13.992   5.658 -0.2372  0.0145 -0.1442
  906YOPE   PO413020  11.466  14.286   5.917 -0.1877 -0.0039  0.1087
  906YOPE   GL113021  11.550  14.119   6.187 -0.0123  0.0282  0.0768
  906YOPE   GL213022  11.310  14.035   6.393  0.0308 -0.0324  0.2354
  906YOPE   C1A13023  11.793  14.088   6.620  0.0985 -0.4999  0.0156
  906YOPE   D2A13024  11.888  13.795   6.963 -0.1438  0.3777  0.0040
  906YOPE   C3A13025  11.615  13.818   7.337  0.1107 -0.0360  0.3852
  906YOPE   C4A13026  11.308  13.645   7.451 -0.0711 -0.1693 -0.0588
  906YOPE   C1B13027  11.407  14.406   6.646  0.0551  0.0831  0.0481
  906YOPE   C2B13028  11.505  14.729   6.898  0.0389 -0.0389  0.0763
  906YOPE   D3B13029  11.678  14.837   7.297  0.2940 -0.0792  0.0305
  906YOPE   C4B13030  11.614  15.070   7.647 -0.0471 -0.2731  0.3303
  907YOPE   NH313031   7.854  11.314   5.717  0.0457  0.1458  0.3266
  907YOPE   PO413032   7.891  11.739   5.646 -0.0864  0.2803  0.1921
  907YOPE   GL113033   8.054  11.631   6.047 -0.3184 -0.1755 -0.1002
  907YOPE   GL213034   7.912  11.779   6.295 -0.0775  0.1931 -0.1285
  907YOPE   C1A13035   8.388  11.688   6.233 -0.0658  0.0643  0.2542
  907YOPE   D2A13036   8.814  11.785   6.349 -0.0397 -0.2639  0.1771
  907YOPE   C3A13037   8.917  11.862   6.860  0.1577  0.0534  0.0368
  907YOPE   C4A13038   9.144  12.207   7.065  0.0965 -0.0748 -0.2567
  907YOPE   C1B13039   7.889  11.876   6.727  0.1992 -0.4104 -0.0213
  907YOPE   C2B13040   7.984  11.484   6.967  0.4370 -0.1080 -0.0792
  907YOPE   D3B13041   8.147  11.415   7.224  0.0633 -0.1562 -0.0697
  907YOPE   C4B13042   8.277  11.364   7.651 -0.0336  0.0367  0.3456
  908YOPE   NH313043   0.712  10.589   5.489  0.2975  0.1379  0.1386
  908YOPE   PO413044   0.971  10.193   5.509  0.1779  0.1381  0.1058
  908YOPE   GL113045   0.959  10.471   5.925  0.0789 -0.0995 -0.2046
  908YOPE   GL213046   1.073  10.808   5.863 -0.0786  0.1033 -0.0629
  908YOPE   C1A13047   0.758  10.503   6.305 -0.3578 -0.1593  0.0365
  908YOPE   D2A13048   0.521  10.275   6.664 -0.1990  0.0838 -0.3036
  908YOPE   C3A13049   0.555  10.160   7.026 -0.0939 -0.0243  0.0451
  908YOPE   C4A13050   0.448   9.807   7.089  0.3916  0.2355 -0.0375
  908YOPE   C1B13051   1.046  10.952   6.256  0.2021 -0.2335 -0.2071
  908YOPE   C2B13052   1.011  11.064   6.656  0.0312  0.2415 -0.2681
  908YOPE   D3B13053   0.826  11.288   7.049 -0.0776 -0.1696 -0.1284
  908YOPE   C4B13054   1.070  11.199   7.448  0.1991 -0.2612  0.1126
  909YOPE   NH313055  10.883   1.313   6.321  0.2490 -0.1943  0.0022
  909YOPE   PO413056  10.409   1.353   6.383  0.0064  0.0698  0.0247
  909YOPE   GL113057  10.510   1.119   6.655 -0.0129  0.1889 -0.0764
  909YOPE   GL213058  10.225   1.008   6.749 -0.3041 -0.1180 -0.4026
  909YOPE   C1A13059  10.815   1.017   7.104  0.1586 -0.3899 -0.2422
  909YOPE   D2A13060  10.952   0.943   7.500  0.0638  0.0173  0.0429
  909YOPE   C3A13061  10.703   1.235   7.726  0.1253 -0.0857  0.0103
  909YOPE   C4A13062  10.739   1.626   7.941 -0.0383 -0.0122 -0.0016
  909YOPE   C1B13063   9.969   1.026   7.145  0.0514  0.2467  0.2361
  909YOPE   C2B13064   9.837   0.779   7.510  0.2186  0.0564 -0.2762
  909YOPE   D3B13065   9.848   0.683   7.996 -0.1816  0.0913  0.4287
  909YOPE   C4B13066   9.813   0.849   8.423  0.3461 -0.2184  0.1349
  910YOPE   NH313067   1.433  18.098   5.632  0.0929  0.1251 -0.0997
  910YOPE   PO413068   1.809  18.331   5.458  0.0261  0.0320  0.3811
  910YOPE   GL113069   1.826  18.310   5.966  0.1649  0.1840  0.0639
  910YOPE   GL213070   1.670  17.999   6.107 -0.0379 -0.2098  0.0234
  910YOPE   C1A13071   1.694  18.471   6.378 -0.0938  0.2494  0.3752
  910YOPE   D2A13072   1.587  18.493   6.791  0.3233 -0.4273  0.1262
  910YOPE   C3A13073   1.650  18.196   7.117  0.2837  0.0466  0.2100
  910YOPE   C4A13074   1.934  18.056   7.449  0.0282  0.1089 -0.0227
  910YOPE   C1B13075   1.642  18.026   6.569  0.1532 -0.1122  0.0025
  910YOPE   C2B13076   1.920  17.788   7.018  0.2465  0.0697 -0.0243
  910YOPE   D3B13077   2.174  17.527   7.323  0.1106 -0.3287  0.0622
  910YOPE   C4B13078   2.546  17.279   7.263 -0.0241  0.3635  0.1157
  911YOPE   NH313079   3.525  12.825   5.295  0.0853  0.2114  0.2246
  911YOPE   PO413080   3.994  12.782   5.299  0.0892  0.1083 -0.1673
  911YOPE   GL113081   3.959  12.956   5.681  0.5119 -0.0836 -0.4377
  911YOPE   GL213082   3.870  13.365   5.641 -0.0079 -0.1193 -0.3912
  911YOPE   C1A13083   4.255  13.023   6.026  0.1264  0.0179  0.1386
  911YOPE   D2A13084   4.702  13.233   6.122  0.0374  0.2965  0.1852
  911YOPE   C3A13085   4.852  13.048   6.486 -0.0616 -0.0346  0.0445
  911YOPE   C4A13086   4.726  13.149   6.823 -0.2238 -0.1431 -0.1698
  911YOPE   C1B13087   3.795  13.279   6.050 -0.0567  0.0101  0.1467
  911YOPE   C2B13088   3.805  13.246   6.458  0.0204 -0.2574  0.0081
  911YOPE   D3B13089   3.891  13.358   6.763 -0.1896 -0.1766  0.1220
  911YOPE   C4B13090   4.298  13.380   7.206 -0.3094  0.1760  0.1186
  912YOPE   NH313091   9.647   7.302   5.936 -0.0212  0.2516 -0.0605
  912YOPE   PO413092   9.301   7.512   6.246 -0.2345 -0.5325 -0.0098
  912YOPE   GL113093   9.245   7.600   6.711  0.0488 -0.0347  0.3919
  912YOPE   GL213094   9.040   7.623   6.937  0.0676 -0.1321  0.0188
  912YOPE   C1A13095   9.297   8.011   7.022  0.3219 -0.0452  0.0440
  912YOPE   D2A13096   9.296   8.247   7.358 -0.2116 -0.0433  0.4529
  912YOPE   C3A13097   9.236   8.061   7.849  0.0050  0.5675 -0.0183
  912YOPE   C4A13098   9.597   7.910   8.139  0.0582  0.3376 -0.0431
  912YOPE   C1B13099   9.055   7.783   7.459  0.1440  0.4588 -0.1097
  912YOPE   C2B13100   8.800   7.954   7.632  0.9200 -0.1137  0.2558
  912YOPE   D3B13101   8.344   8.057   7.684 -0.1848 -0.1580 -0.2603
  912YOPE   C4B13102   7.939   8.003   7.964 -0.2017  0.2851  0.1732
  913YOPE   NH313103  17.108   8.783   5.233  0.3190  0.3140  0.2177
  913YOPE   PO413104  17.426   8.863   5.441  0.0023 -0.0297 -0.1708
  913YOPE   GL113105  17.455   8.682   5.867  0.1370  0.4241  0.1006
  913YOPE   GL213106  17.386   8.477   5.893 -0.0632 -0.2001 -0.0419
  913YOPE   C1A13107  17.638   8.655   6.288  0.2359  0.0688 -0.2870
  913YOPE   D2A13108  17.838   8.560   6.700 -0.2589 -0.3581 -0.3029
  913YOPE   C3A13109  17.737   8.823   7.040 -0.2348 -0.0117 -0.2461
  913YOPE   C4A13110  18.042   8.978   7.323 -0.1383 -0.5794  0.1943
  913YOPE   C1B13111  17.088   8.355   6.209 -0.1072 -0.4568  0.1098
  913YOPE   C2B13112  16.883   8.109   6.469  0.1227  0.0632  0.1461
  913YOPE   D3B13113  16.559   8.135   6.751 -0.1699 -0.1704  0.0918
  913YOPE   C4B13114  16.284   7.854   6.774 -0.1730 -0.3293 -0.1205
  914YOPE   NH313115   4.031  10.584   5.187 -0.0055  0.0534 -0.1641
  914YOPE   PO413116   3.585  10.346   5.220  0.1036 -0.0967 -0.0457
  914YOPE   GL113117   3.488  10.131   5.622  0.2865  0.1482  0.0511
  914YOPE   GL213118   3.263   9.897   5.817 -0.1480 -0.2031  0.0060
  914YOPE   C1A13119   3.305  10.371   6.041  0.2615 -0.0547 -0.2638
  914YOPE   D2A13120   3.076  10.534   6.385 -0.1295  0.0857  0.4522
  914YOPE   C3A13121   3.082  10.810   6.657  0.1584  0.2820 -0.3124
  914YOPE   C4A13122   3.123  11.255   6.893  0.0722 -0.3496 -0.2447
  914YOPE   C1B13123   3.560   9.963   6.245 -0.0421  0.0577  0.0090
  914YOPE   C2B13124   3.533   9.887   6.713 -0.0047 -0.3237  0.2262
  914YOPE   D3B13125   3.534   9.984   7.229  0.0783 -0.0159 -0.1679
  914YOPE   C4B13126   3.475   9.737   7.548  0.3747 -0.0437 -0.1869
  915YOPE   NH313127   0.645   5.619   5.070  0.2217 -0.0709  0.2197
  915YOPE   PO413128   0.323   5.721   5.323  0.4468 -0.1361  0.0049
  915YOPE   GL113129   0.192   5.625   5.717 -0.1835  0.1378  0.1606
  915YOPE   GL213130   0.062   5.322   5.738 -0.3466 -0.1609  0.2471
  915YOPE   C1A13131   0.261   5.733   6.019  0.1903 -0.0507 -0.0991
  915YOPE   D2A13132   0.557   5.853   6.236  0.1508  0.0409 -0.0644
  915YOPE   C3A13133   0.386   5.936   6.689  0.1068 -0.1497 -0.0110
  915YOPE   C4A13134   0.219   5.742   7.041  0.0105  0.4565  0.1336
  915YOPE   C1B13135  -0.212   5.506   6.019  0.4350  0.2432  0.5595
  915YOPE   C2B13136  -0.292   5.960   6.145 -0.3040 -0.0441 -0.1958
  915YOPE   D3B13137  -0.188   6.037   6.648  0.0146 -0.2009  0.2080
  915YOPE   C4B13138  -0.033   6.179   6.951  0.1784  0.1933 -0.1205
  916YOPE   NH313139  15.560  14.772   5.511 -0.0330 -0.0145 -0.0409
  916YOPE   PO413140  15.977  15.080   5.616  0.3997 -0.2143  0.1516
  916YOPE   GL113141  16.049  15.215   6.056  0.2311  0.2815 -0.0484
  916YOPE   GL213142  15.985  15.503   6.189  0.1594 -0.0751  0.0059
  916YOPE   C1A13143  16.219  15.076   6.287 -0.0326  0.0599 -0.0688
  916YOPE   D2A13144  16.246  15.162   6.684  0.1607  0.1690 -0.0040
  916YOPE   C3A13145  16.069  14.842   7.088  0.0060  0.2190  0.0210
  916YOPE   C4A13146  16.035  14.648   7.417  0.1709 -0.0311  0.2262
  916YOPE   C1B13147  16.034  15.635   6.527 -0.0429  0.0817  0.1433
  916YOPE   C2B13148  15.892  15.885   6.802 -0.1435  0.1443  0.3423
  916YOPE   D3B13149  16.007  16.116   7.135  0.0186 -0.1371 -0.0432
  916YOPE   C4B13150  15.931  16.208   7.577 -0.1110  0.0377  0.1945
  917YOPE   NH313151   6.807  12.457   5.929 -0.1197 -0.0629  0.4961
  917YOPE   PO413152   6.463  12.279   5.737  0.1176  0.0044 -0.0452
  917YOPE   GL113153   6.513  12.228   6.224 -0.0481 -0.0385 -0.0887
  917YOPE   GL213154   6.751  12.153   6.357  0.2205  0.1113  0.4583
  917YOPE   C1A13155   6.162  12.342   6.534  0.0206  0.1126 -0.0515
  917YOPE   D2A13156   6.134  12.764   6.789 -0.0074 -0.3393 -0.1909
  917YOPE   C3A13157   6.399  13.162   6.540 -0.1983 -0.2333  0.0670
  917YOPE   C4A13158   6.667  13.318   6.267 -0.1835  0.2158  0.1950
  917YOPE   C1B13159   6.856  12.074   6.774  0.1402  0.1971  0.2986
  917YOPE   C2B13160   6.762  12.087   7.224 -0.0011  0.0901 -0.3223
  917YOPE   D3B13161   6.892  12.135   7.603 -0.2097 -0.1680  0.4287
  917YOPE   C4B13162   6.855  11.831   7.933  0.1131 -0.0661  0.4226
  918YOPE   NH313163   5.547   0.661   5.521  0.1764  0.0623 -0.1243
  918YOPE   PO413164   5.100   0.550   5.412 -0.2623  0.0708  0.0738
  918YOPE   GL113165   4.995   0.609   5.824  0.0337  0.1381 -0.1298
  918YOPE   GL213166   5.217   0.839   5.880 -0.1723  0.0231  0.1281
  918YOPE   C1A13167   5.053   0.503   6.229  0.1697 -0.2328 -0.2777
  918YOPE   D2A13168   5.005   0.325   6.596  0.3198 -0.1254 -0.3035
  918YOPE   C3A13169   5.371   0.273   6.886 -0.1256  0.1506 -0.0291
  918YOPE   C4A13170   5.580   0.416   7.200 -0.0131  0.0244  0.1360
  918YOPE   C1B13171   5.476   0.924   6.301 -0.1590  0.3453 -0.0453
  918YOPE   C2B13172   5.699   1.091   6.714  0.0153  0.2836  0.0285
  918YOPE   D3B13173   6.124   1.079   7.028 -0.0763  0.0267  0.0540
  918YOPE   C4B13174   6.632   1.115   7.055  0.0227  0.2007 -0.0690
  919YOPE   NH313175   4.678  14.794   5.559  0.3366 -0.0448  0.1017
  919YOPE   PO413176   4.912  14.460   5.678  0.1353 -0.0469  0.0994
  919YOPE   GL113177   4.633  14.448   6.052  0.1372 -0.0645 -0.1512
  919YOPE   GL213178   4.445  14.796   6.125 -0.1604 -0.0925  0.1536
  919YOPE   C1A13179   4.763  14.557   6.490 -0.2784 -0.2225 -0.0646
  919YOPE   D2A13180   4.886  14.555   6.995  0.3041 -0.2457  0.1124
  919YOPE   C3A13181   4.847  14.163   7.152  0.1151 -0.1284  0.2188
  919YOPE   C4A13182   4.824  13.903   7.530 -0.1610 -0.1229 -0.1454
  919YOPE   C1B13183   4.589  15.007   6.524 -0.0732  0.1164  0.2181
  919YOPE   C2B13184   4.813  15.144   6.861 -0.0551  0.1605 -0.1919
  919YOPE   D3B13185   5.051  15.004   7.306  0.4290  0.0054  0.3123
  919YOPE   C4B13186   5.349  14.650   7.510  0.0935  0.0587 -0.0288
  920YOPE   NH313187   2.764  14.341   5.814 -0.0763 -0.1563  0.1950
  920YOPE   PO413188   2.808  14.747   5.816 -0.0684 -0.2950 -0.0859
  920YOPE   GL113189   3.168  14.722   6.065  0.0274  0.0825  0.1408
  920YOPE   GL213190   3.513  14.756   5.946 -0.1682 -0.0863  0.1775
  920YOPE   C1A13191   3.457  14.653   6.400  0.2216 -0.2194  0.2066
  920YOPE   D2A13192   3.727  14.322   6.533 -0.0530 -0.0569  0.0957
  920YOPE   C3A13193   4.072  14.221   6.814  0.0663 -0.1782  0.1805
  920YOPE   C4A13194   4.560  14.135   6.719  0.0701 -0.2546 -0.0450
  920YOPE   C1B13195   3.456  15.102   6.257  0.0950 -0.1351  0.0674
  920YOPE   C2B13196   3.628  15.074   6.579 -0.1182 -0.3942 -0.3836
  920YOPE   D3B13197   3.675  14.718   6.844 -0.1585 -0.1830  0.3420
  920YOPE   C4B13198   3.786  14.551   7.204  0.0197 -0.2474  0.1352
  921YOPE   NH313199   8.847   8.858   5.815  0.0122 -0.0520  0.0691
  921YOPE   PO413200   8.883   8.357   6.027 -0.0177 -0.0877  0.1863
  921YOPE   GL113201   8.807   8.313   6.400  0.2961 -0.1134 -0.0781
  921YOPE   GL213202   9.045   8.172   6.591 -0.0863 -0.0701 -0.0131
  921YOPE   C1A13203   8.531   8.446   6.714 -0.1746 -0.3403  0.2069
  921YOPE   D2A13204   8.264   8.766   6.630  0.0398  0.0909 -0.0779
  921YOPE   C3A13205   7.852   8.661   6.536 -0.2679 -0.1333  0.0216
  921YOPE   C4A13206   7.565   8.315   6.566  0.0119 -0.0309 -0.0185
  921YOPE   C1B13207   9.023   8.409   7.002 -0.3754  0.0330  0.5197
  921YOPE   C2B13208   9.014   8.668   7.379 -0.0909  0.0325 -0.1560
  921YOPE   D3B13209   8.995   9.221   7.349  0.0988 -0.1258 -0.0399
  921YOPE   C4B13210   9.256   9.519   7.297 -0.3491  0.1020  0.2349
  922YOPE   NH313211   4.103  15.421   5.625 -0.3254 -0.4819 -0.0298
  922YOPE   PO413212   4.227  14.976   5.555  0.1114  0.0866  0.1309
  922YOPE   GL113213   3.991  14.664   5.748 -0.2771 -0.5105 -0.0297
  922YOPE   GL213214   4.192  14.476   5.735 -0.2609 -0.2090  0.0066
  922YOPE   C1A13215   3.944  14.587   6.199  0.0571 -0.3486 -0.1051
  922YOPE   D2A13216   4.319  14.485   6.466  0.0029  0.1070  0.0400
  922YOPE   C3A13217   4.351  14.657   6.911 -0.1372  0.1069  0.1938
  922YOPE   C4A13218   4.351  14.401   7.315  0.2512 -0.0226  0.1014
  922YOPE   C1B13219   4.217  14.215   6.049 -0.2159 -0.2031  0.2395
  922YOPE   C2B13220   4.092  14.030   6.375  0.1784  0.2767 -0.0969
  922YOPE   D3B13221   4.202  13.709   6.653  0.3100  0.1033  0.2777
  922YOPE   C4B13222   4.319  13.305   6.439 -0.1857 -0.0264  0.1214
  923YOPE   NH313223  17.574   4.094   5.693 -0.1531 -0.1747 -0.2753
  923YOPE   PO413224  17.813   4.492   5.781 -0.0314  0.2236  0.0013
  923YOPE   GL113225  17.979   4.764   5.975 -0.1979  0.0587 -0.2322
  923YOPE   GL213226  18.039   4.595   6.237  0.0222  0.3736 -0.0761
  923YOPE   C1A13227  18.421   4.900   6.011  0.4179  0.3067 -0.2072
  923YOPE   D2A13228  18.623   5.165   6.256 -0.2636 -0.2567 -0.2494
  923YOPE   C3A13229  18.757   5.061   6.722  0.3052  0.1136 -0.1417
  923YOPE   C4A13230  18.864   5.004   7.171  0.0276  0.1967  0.1291
  923YOPE   C1B13231  17.903   4.558   6.672 -0.2367  0.1721 -0.2337
  923YOPE   C2B13232  17.531   4.367   6.794 -0.1359  0.1701 -0.1340
  923YOPE   D3B13233  17.253   4.060   7.077  0.0925  0.3896  0.3017
  923YOPE   C4B13234  17.346   3.708   7.356  0.0135  0.0192 -0.2139
  924YOPE   NH313235  16.621   5.131   5.300  0.2022  0.0639 -0.4045
  924YOPE   PO413236  16.608   4.712   5.394  0.4347  0.0805 -0.0197
  924YOPE   GL113237  16.526   4.658   5.760 -0.0128 -0.0208  0.0868
  924YOPE   GL213238  16.298   4.787   5.966 -0.3364 -0.1761 -0.2393
  924YOPE   C1A13239  16.735   4.491   6.110 -0.2645  0.2762 -0.1858
  924YOPE   D2A13240  16.953   4.694   6.420 -0.0896 -0.0542  0.0060
  924YOPE   C3A13241  17.038   4.542   6.834 -0.1919  0.1143  0.1312
  924YOPE   C4A13242  16.982   4.727   7.210 -0.0307 -0.1026 -0.1315
  924YOPE   C1B13243  16.389   4.774   6.418 -0.1363  0.0853  0.0466
  924YOPE   C2B13244  16.689   4.891   6.806  0.0586 -0.1212  0.5097
  924YOPE   D3B13245  16.633   5.075   7.184  0.0291 -0.2518 -0.1328
  924YOPE   C4B13246  16.841   5.019   7.605  0.3107  0.1679 -0.0112
  925YOPE   NH313247   7.550   6.144   6.047  0.2769 -0.1625 -0.3003
  925YOPE   PO413248   7.587   5.728   6.006 -0.1631 -0.1398 -0.2257
  925YOPE   GL113249   7.722   5.785   6.420 -0.1239 -0.0079  0.0323
  925YOPE   GL213250   7.841   6.180   6.458  0.0187  0.1490  0.1334
  925YOPE   C1A13251   8.004   5.650   6.697  0.0549 -0.1117  0.3220
  925YOPE   D2A13252   8.273   5.480   6.898  0.0847  0.0513  0.1532
  925YOPE   C3A13253   8.177   5.067   7.057  0.2467 -0.1344 -0.0324
  925YOPE   C4A13254   7.998   4.753   6.861  0.1425 -0.1557 -0.0407
  925YOPE   C1B13255   7.717   6.165   6.956  0.2739 -0.0747  0.2129
  925YOPE   C2B13256   7.739   6.358   7.356  0.0119 -0.0402 -0.0899
  925YOPE   D3B13257   7.845   6.640   7.686 -0.2403 -0.0619  0.0517
  925YOPE   C4B13258   8.080   6.750   8.014 -0.0329  0.0056 -0.1085
  926YOPE   NH313259   5.024   0.081   5.422 -0.1014  0.3267  0.2330
  926YOPE   PO413260   5.413   0.173   5.328 -0.2691 -0.3600  0.1824
  926YOPE   GL113261   5.367   0.275   5.826 -0.1213  0.0022  0.1632
  926YOPE   GL213262   5.557   0.366   6.056  0.0783  0.0547  0.1813
  926YOPE   C1A13263   5.268   0.003   6.248  0.1911 -0.0695  0.0335
  926YOPE   D2A13264   5.481  -0.162   6.641 -0.1780  0.3198 -0.0454
  926YOPE   C3A13265   5.243  -0.253   6.971 -0.0053 -0.1125 -0.1383
  926YOPE   C4A13266   5.049   0.050   7.284 -0.0910  0.0719  0.0711
  926YOPE   C1B13267   5.580   0.404   6.433 -0.3057  0.1000  0.0494
  926YOPE   C2B13268   5.336   0.770   6.780  0.1598  0.2410  0.0642
  926YOPE   D3B13269   5.512   0.940   7.182  0.2314  0.0419 -0.0350
  926YOPE   C4B13270   5.778   0.825   7.644 -0.0037 -0.1790  0.0779
  927YOPE   NH313271   3.915  15.903   5.443 -0.0890  0.0235  0.1987
  927YOPE   PO413272   3.674  15.515   5.383 -0.1398  0.2679 -0.0288
  927YOPE   GL113273   3.711  15.481   5.900 -0.1905 -0.5276  0.0117
  927YOPE   GL213274   3.978  15.089   6.033  0.2289 -0.0510 -0.1133
  927YOPE   C1A13275   3.859  15.512   6.334 -0.3349  0.1530 -0.0249
  927YOPE   D2A13276   3.978  15.586   6.773 -0.0499 -0.0813 -0.0537
  927YOPE   C3A13277   3.841  15.573   7.097  0.3083  0.1981 -0.0386
  927YOPE   C4A13278   3.890  15.824   7.347  0.1361  0.1360  0.1006
  927YOPE   C1B13279   4.104  15.054   6.461  0.0442 -0.0758  0.0715
  927YOPE   C2B13280   4.001  15.126   6.963 -0.0743 -0.1840  0.1368
  927YOPE   D3B13281   4.151  14.877   7.312  0.0336  0.2404 -0.1232
  927YOPE   C4B13282   4.458  14.797   7.706 -0.0865  0.2484 -0.0786
  928YOPE   NH313283  11.528  15.440   6.200  0.0702  0.3919  0.4127
  928YOPE   PO413284  11.835  15.788   5.986 -0.0455  0.2325 -0.3068
  928YOPE   GL113285  11.668  16.020   6.328  0.0248 -0.1704  0.1263
  928YOPE   GL213286  11.860  16.214   6.400 -0.0267  0.2252 -0.1492
  928YOPE   C1A13287  11.492  16.044   6.821  0.0191 -0.1739  0.2678
  928YOPE   D2A13288  11.225  15.837   7.190 -0.1120  0.1991  0.1315
  928YOPE   C3A13289  11.424  15.562   7.506  0.2387 -0.0956  0.0312
  928YOPE   C4A13290  11.805  15.520   7.775  0.0094  0.3140 -0.1235
  928YOPE   C1B13291  11.869  16.390   6.754 -0.1637  0.2809 -0.1038
  928YOPE   C2B13292  12.075  16.461   7.140  0.2001 -0.2464 -0.1692
  928YOPE   D3B13293  12.145  16.167   7.448 -0.3099 -0.0642  0.0492
  928YOPE   C4B13294  12.553  16.053   7.491  0.2246  0.0565 -0.0745
  929YOPE   NH313295  16.409   1.747   5.780  0.2041  0.1028  0.0687
  929YOPE   PO413296  16.824   1.662   5.553 -0.1984  0.1316 -0.3040
  929YOPE   GL113297  16.933   1.612   5.896 -0.3745 -0.0981  0.3341
  929YOPE   GL213298  17.269   1.876   5.965 -0.0917  0.2181  0.1354
  929YOPE   C1A13299  16.751   1.559   6.348  0.1248 -0.1952  0.1247
  929YOPE   D2A13300  16.762   1.555   6.803 -0.0625  0.2884 -0.1593
  929YOPE   C3A13301  16.948   1.675   7.141  0.2349  0.0366  0.2200
  929YOPE   C4A13302  17.207   1.861   7.442  0.0130  0.0696 -0.0708
  929YOPE   C1B13303  17.295   1.590   6.294  0.0153 -0.1660 -0.0473
  929YOPE   C2B13304  17.274   1.587   6.785  0.0341 -0.2007 -0.2240
  929YOPE   D3B13305  17.646   1.454   7.050  0.1479 -0.0180 -0.2028
  929YOPE   C4B13306  17.982   1.390   7.347  0.0261 -0.1013  0.2174
  930YOPE   NH313307   5.174   4.963   5.820 -0.2820  0.4171  0.0892
  930YOPE   PO413308   5.577   5.270   5.804 -0.1616 -0.1033 -0.0203
  930YOPE   GL113309   5.227   5.325   6.137  0.1932  0.1508 -0.2501
  930YOPE   GL213310   5.518   5.137   6.286  0.1201 -0.0096 -0.0344
  930YOPE   C1A13311   5.239   5.465   6.553 -0.2659 -0.0303  0.0720
  930YOPE   D2A13312   5.103   5.498   6.944 -0.0679  0.1572  0.0581
  930YOPE   C3A13313   4.797   5.305   7.198 -0.0599 -0.2756  0.5332
  930YOPE   C4A13314   4.760   5.296   7.640  0.1555  0.2288  0.2933
  930YOPE   C1B13315   5.717   5.308   6.638  0.2681  0.2909  0.1834
  930YOPE   C2B13316   5.730   5.387   7.064 -0.0876 -0.1081 -0.0294
  930YOPE   D3B13317   5.676   5.802   7.265 -0.1569  0.0561  0.1154
  930YOPE   C4B13318   5.717   6.134   7.582 -0.2731 -0.2316 -0.0156
  931YOPE   NH313319   7.106  16.293   5.995  0.1587 -0.0572  0.0604
  931YOPE   PO413320   7.541  16.344   6.114 -0.1116 -0.0289 -0.1169
  931YOPE   GL113321   7.815  16.367   6.417 -0.0669 -0.5749 -0.1281
  931YOPE   GL213322   7.860  16.633   6.437  0.0098  0.2092 -0.1337
  931YOPE   C1A13323   7.730  16.295   6.850 -0.1687  0.3156 -0.2563
  931YOPE   D2A13324   7.639  16.222   7.273 -0.0338 -0.1188 -0.0752
  931YOPE   C3A13325   7.411  16.435   7.585  0.0913  0.1210  0.3525
  931YOPE   C4A13326   7.170  16.789   7.670 -0.0460 -0.0072  0.0946
  931YOPE   C1B13327   7.593  16.771   6.789  0.0176  0.2159 -0.1215
  931YOPE   C2B13328   7.469  16.856   7.220  0.0750  0.0822 -0.0384
  931YOPE   D3B13329   7.612  17.012   7.680 -0.4441  0.3786  0.1646
  931YOPE   C4B13330   7.544  17.056   8.133  0.2346  0.1025  0.0947
  932YOPE   NH313331   3.511  18.213   5.713 -0.0779 -0.0357 -0.1612
  932YOPE   PO413332   3.915  17.928   5.948 -0.0616 -0.1555  0.1454
  932YOPE   GL113333   4.054  17.657   6.312  0.0220 -0.0430 -0.0979
  932YOPE   GL213334   4.229  17.487   6.465  0.0749  0.1953 -0.0582
  932YOPE   C1A13335   3.891  17.442   6.757 -0.0204 -0.1468  0.2205
  932YOPE   D2A13336   3.979  17.478   7.172  0.0658  0.1937 -0.0037
  932YOPE   C3A13337   3.729  17.773   7.245 -0.2065 -0.1063  0.2090
  932YOPE   C4A13338   3.372  18.036   7.464 -0.0676 -0.2364 -0.1689
  932YOPE   C1B13339   4.449  17.477   6.876 -0.0704 -0.0380 -0.0672
  932YOPE   C2B13340   4.577  17.444   7.247  0.1595 -0.1649 -0.3480
  932YOPE   D3B13341   4.804  17.247   7.555  0.0007 -0.5560 -0.0662
  932YOPE   C4B13342   4.966  17.303   7.965 -0.2343 -0.1805  0.1620
  933YOPE   NH313343   6.930   5.502   5.800  0.2579 -0.2111 -0.2095
  933YOPE   PO413344   7.141   5.851   5.825  0.1872 -0.3135  0.1015
  933YOPE   GL113345   7.138   5.668   6.214  0.1095 -0.2943  0.2169
  933YOPE   GL213346   7.221   5.930   6.417 -0.2658  0.2717  0.0344
  933YOPE   C1A13347   7.249   5.531   6.694  0.3003 -0.1971  0.0722
  933YOPE   D2A13348   7.566   5.705   6.943  0.0034  0.0602  0.0445
  933YOPE   C3A13349   7.820   5.553   7.143 -0.1726  0.1350 -0.1808
  933YOPE   C4A13350   7.716   5.295   7.448  0.0794 -0.1801  0.1247
  933YOPE   C1B13351   7.258   6.066   6.804 -0.0722  0.2727 -0.2189
  933YOPE   C2B13352   7.178   6.065   7.195  0.0167 -0.3337  0.2720
  933YOPE   D3B13353   7.566   5.925   7.392 -0.0544  0.0527  0.0861
  933YOPE   C4B13354   7.873   5.777   7.576 -0.0143  0.1127  0.1423
  934YOPE   NH313355  11.180   4.037   6.287  0.0836  0.1574 -0.0461
  934YOPE   PO413356  10.849   4.123   6.546 -0.0890  0.0617  0.0546
  934YOPE   GL113357  11.088   3.942   6.797 -0.0352  0.2568 -0.2083
  934YOPE   GL213358  10.966   4.166   7.004  0.1513 -0.1831 -0.0382
  934YOPE   C1A13359  11.100   3.665   7.092  0.2300  0.1590  0.1416
  934YOPE   D2A13360  11.108   3.568   7.572 -0.0391  0.0753 -0.0014
  934YOPE   C3A13361  11.462   3.350   7.853  0.2022  0.1527 -0.1303
  934YOPE   C4A13362  11.563   3.128   8.219 -0.1301 -0.2275  0.1286
  934YOPE   C1B13363  10.935   4.078   7.351 -0.1393 -0.3863  0.1674
  934YOPE   C2B13364  11.094   4.178   7.769  0.0154  0.1628  0.2265
  934YOPE   D3B13365  11.394   4.384   7.963  0.5307  0.0355  0.0025
  934YOPE   C4B13366  11.714   4.477   8.187  0.0104 -0.1532  0.2854
  935YOPE   NH313367   3.239  10.823   5.270 -0.0859  0.2249 -0.1554
  935YOPE   PO413368   3.316  11.174   5.418  0.0385  0.1333  0.1928
  935YOPE   GL113369   3.346  11.447   5.733  0.1134 -0.1168  0.0241
  935YOPE   GL213370   3.626  11.593   5.602  0.0538  0.0383  0.2172
  935YOPE   C1A13371   3.169  11.414   6.100  0.0787 -0.3948  0.0583
  935YOPE   D2A13372   3.203  11.512   6.489 -0.2478 -0.0420 -0.0292
  935YOPE   C3A13373   3.494  11.876   6.715 -0.0420  0.1362  0.0018
  935YOPE   C4A13374   3.819  12.125   7.087  0.2141  0.0860 -0.1275
  935YOPE   C1B13375   3.810  11.430   6.040 -0.0597 -0.1206 -0.0820
  935YOPE   C2B13376   3.791  11.622   6.451  0.0162  0.1188 -0.3529
  935YOPE   D3B13377   4.043  11.695   6.761  0.0579  0.0647 -0.0642
  935YOPE   C4B13378   4.420  11.967   6.892  0.3151  0.0057 -0.1815
  936YOPE   NH313379  11.724  17.897   6.261 -0.0822 -0.2952  0.1646
  936YOPE   PO413380  11.310  17.861   6.442  0.1077  0.3002  0.0728
  936YOPE   GL113381  11.273  17.795   6.810 -0.0683  0.1343 -0.0671
  936YOPE   GL213382  11.011  17.400   6.884 -0.1880 -0.1146  0.1107
  936YOPE   C1A13383  11.361  17.805   7.191 -0.0381  0.3736 -0.2233
  936YOPE   D2A13384  11.433  17.505   7.564  0.0911  0.1499 -0.2128
  936YOPE   C3A13385  11.276  17.722   7.972  0.1443  0.0087 -0.1484
  936YOPE   C4A13386  11.431  18.018   8.229  0.1569 -0.0286 -0.0148
  936YOPE   C1B13387  11.035  17.375   7.257 -0.1552 -0.1423  0.0845
  936YOPE   C2B13388  10.948  17.383   7.726 -0.0183 -0.0972 -0.1320
  936YOPE   D3B13389  11.211  17.197   7.996  0.0816  0.0143 -0.1117
  936YOPE   C4B13390  11.392  16.791   8.216  0.0420  0.0282  0.1698
  937YOPE   NH313391  14.457  11.000   5.858 -0.0831 -0.2317 -0.2309
  937YOPE   PO413392  14.749  11.180   5.652 -0.1555 -0.0980 -0.0175
  937YOPE   GL113393  15.038  11.155   5.985  0.1005 -0.3319  0.0640
  937YOPE   GL213394  14.864  11.223   6.233  0.2782 -0.2281 -0.0729
  937YOPE   C1A13395  15.260  10.994   6.433 -0.1012  0.2586  0.0697
  937YOPE   D2A13396  15.493  10.907   6.688 -0.2836 -0.1198  0.0101
  937YOPE   C3A13397  15.781  11.170   6.788  0.1223 -0.2417  0.0789
  937YOPE   C4A13398  16.104  11.195   7.077 -0.0339 -0.1011 -0.0117
  937YOPE   C1B13399  14.777  10.871   6.558  0.0499  0.0311 -0.2444
  937YOPE   C2B13400  14.839  10.816   6.977 -0.4794 -0.0486  0.2574
  937YOPE   D3B13401  14.708  10.779   7.368  0.1635 -0.0932 -0.1051
  937YOPE   C4B13402  14.638  10.637   7.836 -0.4675  0.0528  0.0570
  938YOPE   NH313403  11.769  17.113   6.040  0.3225  0.1821  0.0575
  938YOPE   PO413404  11.448  17.393   6.267 -0.3181  0.2338  0.1135
  938YOPE   GL113405  11.461  17.238   6.656 -0.1675  0.0619 -0.1637
  938YOPE   GL213406  11.210  17.047   6.518  0.0034 -0.1445 -0.0806
  938YOPE   C1A13407  11.505  17.293   7.066  0.1151 -0.0610  0.0963
  938YOPE   D2A13408  11.842  17.528   7.224  0.0796  0.2696 -0.0062
  938YOPE   C3A13409  11.754  17.905   7.479  0.0530  0.1343  0.3731
  938YOPE   C4A13410  11.461  18.105   7.649 -0.1025  0.1382 -0.3000
  938YOPE   C1B13411  11.084  16.961   6.913 -0.1500  0.1300  0.0145
  938YOPE   C2B13412  10.971  16.880   7.328  0.0192 -0.3956  0.4395
  938YOPE   D3B13413  10.790  16.794   7.852  0.1632 -0.0167  0.1073
  938YOPE   C4B13414  10.994  16.443   8.119  0.2160 -0.0604  0.0187
  939YOPE   NH313415  14.990   5.637   5.645  0.2570  0.2501  0.1874
  939YOPE   PO413416  14.854   5.227   5.701  0.2175  0.4106 -0.0456
  939YOPE   GL113417  14.895   5.352   6.175 -0.0723 -0.0565  0.2591
  939YOPE   GL213418  14.838   5.693   6.104 -0.2555 -0.2489 -0.0222
  939YOPE   C1A13419  14.929   5.433   6.570  0.0464 -0.2224 -0.0753
  939YOPE   D2A13420  14.936   5.626   6.991 -0.3568 -0.0530 -0.1523
  939YOPE   C3A13421  14.942   5.327   7.342  0.2294  0.2155  0.0300
  939YOPE   C4A13422  15.150   5.349   7.720 -0.2794  0.0636  0.0348
  939YOPE   C1B13423  14.797   5.904   6.509  0.0396  0.1789  0.0122
  939YOPE   C2B13424  14.770   6.151   6.931  0.0337 -0.1209 -0.0303
  939YOPE   D3B13425  14.889   6.288   7.371  0.1007  0.0147  0.1876
  939YOPE   C4B13426  14.963   6.459   7.859  0.4277  0.3127 -0.1859
  940YOPE   NH313427   9.001   6.508   6.230  0.2628 -0.2042  0.0151
  940YOPE   PO413428   8.768   6.880   6.245 -0.2775 -0.0913  0.0190
  940YOPE   GL113429   8.918   6.817   6.634  0.0257  0.2088  0.1014
  940YOPE   GL213430   9.290   7.062   6.711 -0.0060 -0.2435 -0.0212
  940YOPE   C1A13431   9.050   6.667   7.007 -0.0914  0.0181 -0.1366
  940YOPE   D2A13432   9.055   6.659   7.456 -0.2241 -0.0378  0.0164
  940YOPE   C3A13433   9.463   6.772   7.620  0.4551 -0.1491  0.0222
  940YOPE   C4A13434   9.795   7.061   7.795  0.1215  0.1305 -0.1647
  940YOPE   C1B13435   9.286   7.057   7.202  0.0045 -0.0020 -0.2093
  940YOPE   C2B13436   9.035   7.215   7.538 -0.1026 -0.1380 -0.1134
  940YOPE   D3B13437   8.747   7.244   7.955  0.1627  0.1376 -0.1509
  940YOPE   C4B13438   8.544   7.102   8.178 -0.1430 -0.2955  0.4052
  941POPC   NC313439  10.158   6.247   5.773  0.0302 -0.0684  0.1129
  941POPC   PO413440  10.178   5.672   5.867 -0.0872  0.1073 -0.0577
  941POPC   GL113441  10.033   5.645   6.313 -0.0053 -0.1725 -0.2138
  941POPC   GL213442  10.148   5.801   6.654  0.2236 -0.1196  0.2270
  941POPC   C1A13443   9.960   5.257   6.586  0.3047 -0.0878 -0.3598
  941POPC   D2A13444  10.019   4.970   6.906 -0.1133  0.1189 -0.1027
  941POPC   C3A13445  10.249   4.702   7.049  0.2657  0.0213  0.0331
  941POPC   C4A13446  10.651   4.688   6.917  0.1797  0.0582 -0.0728
  941POPC   C1B13447  10.339   5.458   6.975 -0.0656  0.0017 -0.0695
  941POPC   C2B13448  10.542   5.423   7.377 -0.1358  0.0055 -0.2996
  941POPC   C3B13449  10.652   5.475   7.816  0.2264  0.2311 -0.0119
  941POPC   C4B13450  10.605   5.781   7.936 -0.1615  0.1550  0.1695
  942POPC   NC313451   1.151   0.755   5.241 -0.0672  0.0010  0.3507
  942POPC   PO413452   1.416   0.692   5.749  0.0876 -0.0310 -0.2104
  942POPC   GL113453   1.139   0.862   6.103 -0.3736  0.0049 -0.2257
  942POPC   GL213454   0.789   0.672   6.155 -0.3135 -0.0078  0.0365
  942POPC   C1A13455   1.057   1.039   6.541 -0.0710  0.1165  0.3388
  942POPC   D2A13456   0.897   1.411   6.567  0.0103 -0.0101  0.1496
  942POPC   C3A13457   0.831   1.452   6.928 -0.1672 -0.1535  0.0636
  942POPC   C4A13458   0.672   1.699   7.171 -0.1210  0.1691 -0.0642
  942POPC   C1B13459   1.007   0.579   6.626 -0.1062 -0.2498  0.0800
  942POPC   C2B13460   1.076   0.850   7.014  0.0144  0.1678  0.0979
  942POPC   C3B13461   0.880   1.139   7.353  0.2502 -0.3823  0.2235
  942POPC   C4B13462   0.694   1.364   7.661  0.0041  0.0537  0.1265
  943POPC   NC313463  17.902  12.774   4.810  0.3098  0.3811 -0.0258
  943POPC   PO413464  17.742  12.807   5.267 -0.0386  0.0265 -0.0111
  943POPC   GL113465  17.836  12.538   5.537 -0.1706  0.0478  0.0906
  943POPC   GL213466  17.569  12.348   5.641  0.1530 -0.1048 -0.2917
  943POPC   C1A13467  17.986  12.349   5.996  0.2261  0.0446  0.3628
  943POPC   D2A13468  18.047  12.261   6.408  0.2910  0.1459  0.1500
  943POPC   C3A13469  18.304  11.970   6.788 -0.1214  0.2834 -0.1478
  943POPC   C4A13470  18.631  12.040   7.175  0.3102 -0.2027 -0.3326
  943POPC   C1B13471  17.493  12.073   5.955 -0.1167 -0.2235 -0.1891
  943POPC   C2B13472  17.764  11.862   6.297  0.1453  0.1642  0.1056
  943POPC   C3B13473  17.931  11.690   6.657  0.1080 -0.2684  0.0819
  943POPC   C4B13474  17.843  11.849   7.029  0.1420  0.1561 -0.3954
  944POPC   NC313475   7.885   0.671   5.722 -0.0275 -0.0345 -0.3030
  944POPC   PO413476   7.494   0.494   5.860  0.1536 -0.1023 -0.1363
  944POPC   GL113477   7.728   0.374   6.224 -0.3565  0.0005  0.3281
  944POPC   GL213478   8.070   0.419   6.143 -0.1241  0.2180 -0.2308
  944POPC   C1A13479   7.492   0.298   6.625 -0.0988 -0.3399 -0.1079
  944POPC   D2A13480   7.233   0.396   6.955  0.6251 -0.0151 -0.0663
  944POPC   C3A13481   7.257   0.492   7.352 -0.3516 -0.0625 -0.0197
  944POPC   C4A13482   7.647   0.682   7.538  0.1400  0.0913  0.3880
  944POPC   C1B13483   8.044   0.521   6.636 -0.0273  0.1862  0.0792
  944POPC   C2B13484   8.245   0.574   6.985 -0.1970  0.0927 -0.1449
  944POPC   C3B13485   8.217   0.624   7.397 -0.2557  0.3344 -0.4804
  944POPC   C4B13486   8.052   0.589   7.911 -0.0387 -0.2460  0.2653
  945POPC   NC313487  13.328  16.042   5.502 -0.1540 -0.2498  0.1738
  945POPC   PO413488  12.741  15.952   5.596 -0.0893 -0.0713 -0.1571
  945POPC   GL113489  13.112  15.894   5.917 -0.0388  0.0304 -0.0615
  945POPC   GL213490  13.423  15.795   6.098  0.3420  0.2828 -0.3876
  945POPC   C1A13491  13.065  16.084   6.292 -0.1612  0.2475  0.3055
  945POPC   D2A13492  13.025  16.055   6.704  0.0699  0.1013 -0.0950
  945POPC   C3A13493  13.035  15.661   6.858  0.1241 -0.1057 -0.0954
  945POPC   C4A13494  13.152  15.471   7.188  0.2078 -0.0480 -0.3305
  945POPC   C1B13495  13.434  15.778   6.465 -0.3059  0.2041 -0.0661
  945POPC   C2B13496  13.459  15.956   6.877  0.1628 -0.1805  0.1807
  945POPC   C3B13497  13.464  15.855   7.324  0.1283 -0.1739  0.1964
  945POPC   C4B13498  13.404  15.550   7.710 -0.2735 -0.1932 -0.1202
  946POPC   NC313499  11.590   0.209   5.898 -0.4750 -0.3035  0.0776
  946POPC   PO413500  11.996   0.310   5.920 -0.2168 -0.3573 -0.1205
  946POPC   GL113501  11.839   0.250   6.361  0.1826 -0.1836 -0.0456
  946POPC   GL213502  12.148   0.280   6.441  0.1201 -0.3083 -0.0457
  946POPC   C1A13503  11.764  -0.074   6.635 -0.0062  0.0715  0.1212
  946POPC   D2A13504  11.342  -0.151   6.788 -0.0709  0.3221  0.1202
  946POPC   C3A13505  11.134  -0.171   7.180  0.0278  0.2677 -0.1337
  946POPC   C4A13506  10.941  -0.154   7.545 -0.0712  0.0007 -0.2054
  946POPC   C1B13507  12.248   0.077   6.821 -0.2868  0.1560  0.1069
  946POPC   C2B13508  12.258   0.041   7.174 -0.4115 -0.0463 -0.0312
  946POPC   C3B13509  12.341  -0.040   7.627  0.0646 -0.1141  0.3516
  946POPC   C4B13510  12.261   0.175   7.976  0.0829  0.0048  0.0437
  947POPC   NC313511   8.889  12.906   6.053  0.2152  0.3041 -0.4169
  947POPC   PO413512   9.163  12.595   6.142  0.1017 -0.0985  0.2947
  947POPC   GL113513   9.035  12.788   6.515 -0.0532 -0.2152  0.0847
  947POPC   GL213514   9.346  12.980   6.495  0.1190  0.1125 -0.1646
  947POPC   C1A13515   9.012  12.730   7.008  0.0694 -0.0261 -0.4775
  947POPC   D2A13516   9.165  12.866   7.493 -0.0315 -0.2932 -0.3231
  947POPC   C3A13517   8.957  12.937   7.836  0.1524  0.1023 -0.0724
  947POPC   C4A13518   8.984  12.890   8.257  0.1220  0.1869 -0.2390
  947POPC   C1B13519   9.412  13.117   6.926  0.1654  0.3256  0.1991
  947POPC   C2B13520   9.512  13.251   7.326 -0.0922  0.0807  0.0431
  947POPC   C3B13521   9.537  13.201   7.791  0.0740 -0.0447  0.1521
  947POPC   C4B13522   9.447  13.298   8.311  0.0726 -0.2411  0.0264
  948POPC   NC313523  12.160  12.900   5.856 -0.0025 -0.1170  0.0523
  948POPC   PO413524  12.238  13.042   6.279  0.0661  0.1716  0.1013
  948POPC   GL113525  12.113  12.826   6.638 -0.0544  0.0424 -0.0620
  948POPC   GL213526  12.302  12.636   6.795  0.3189 -0.0345  0.0419
  948POPC   C1A13527  11.951  12.978   7.061  0.2545 -0.2834  0.3594
  948POPC   D2A13528  11.976  13.393   7.217 -0.2772  0.0775 -0.0805
  948POPC   C3A13529  12.002  13.452   7.498 -0.2341  0.0905 -0.0821
  948POPC   C4A13530  12.185  13.393   7.901 -0.3431  0.1136 -0.1859
  948POPC   C1B13531  12.179  12.314   7.082  0.3983 -0.2178 -0.1190
  948POPC   C2B13532  12.197  12.467   7.464 -0.1105 -0.0861 -0.2920
  948POPC   C3B13533  12.226  12.654   7.926 -0.3311  0.3088  0.1473
  948POPC   C4B13534  12.577  12.712   8.227  0.2410 -0.0497 -0.5846
  949POPC   NC313535   6.699  13.294   5.287  0.0526 -0.2799  0.0735
  949POPC   PO413536   6.566  13.639   5.451 -0.1492  0.3073 -0.3640
  949POPC   GL113537   6.571  13.687   5.924 -0.1872 -0.2505 -0.0313
  949POPC   GL213538   6.468  14.057   5.996  0.0805  0.1407 -0.0709
  949POPC   C1A13539   6.238  13.624   6.332  0.0002  0.2314  0.2183
  949POPC   D2A13540   6.135  13.621   6.656 -0.0185  0.0932  0.2131
  949POPC   C3A13541   6.352  13.461   6.962  0.0104 -0.0826 -0.0478
  949POPC   C4A13542   6.508  13.795   7.086 -0.0600  0.1801 -0.2004
  949POPC   C1B13543   6.825  14.189   6.207 -0.0197 -0.1340 -0.2648
  949POPC   C2B13544   6.879  14.275   6.660 -0.0057  0.1559  0.4670
  949POPC   C3B13545   6.811  14.410   6.998 -0.1384 -0.3742 -0.0149
  949POPC   C4B13546   6.727  14.180   7.446 -0.3053 -0.0606  0.0823
  950POPC   NC313547  15.309   1.017   5.766  0.3900  0.0897  0.0285
  950POPC   PO413548  15.545   1.371   5.881 -0.0043  0.0708  0.0566
  950POPC   GL113549  15.470   1.255   6.204  0.0402  0.0725  0.0318
  950POPC   GL213550  15.644   1.490   6.422  0.1609  0.1002  0.0748
  950POPC   C1A13551  15.452   1.082   6.610 -0.0529 -0.0686  0.0704
  950POPC   D2A13552  15.542   1.024   7.028  0.0620 -0.0675 -0.0957
  950POPC   C3A13553  15.308   0.792   7.355  0.0721  0.2415  0.4615
  950POPC   C4A13554  15.284   0.580   7.731  0.0469  0.1392  0.0034
  950POPC   C1B13555  15.500   1.546   6.846 -0.2325  0.0511  0.1171
  950POPC   C2B13556  15.502   1.601   7.193 -0.1358 -0.1042 -0.3002
  950POPC   C3B13557  15.715   1.723   7.617  0.0039 -0.2524  0.1191
  950POPC   C4B13558  15.966   1.762   7.876  0.1313 -0.0367 -0.3535
  951POPC   NC313559  10.836  13.954   6.359 -0.2116 -0.0340 -0.0906
  951POPC   PO413560  11.105  13.732   6.054 -0.0013 -0.2356 -0.0200
  951POPC   GL113561  11.134  13.550   6.507 -0.1159  0.0154  0.3536
  951POPC   GL213562  10.987  13.518   6.728 -0.1491 -0.1582 -0.0401
  951POPC   C1A13563  11.374  13.824   6.846 -0.0683  0.1055 -0.2115
  951POPC   D2A13564  11.355  14.218   7.106 -0.0093  0.0741 -0.0815
  951POPC   C3A13565  11.647  14.237   7.573  0.0180  0.0363  0.0607
  951POPC   C4A13566  11.814  14.246   8.065 -0.3321 -0.0854  0.1452
  951POPC   C1B13567  10.992  13.341   7.136  0.2051  0.1448  0.2209
  951POPC   C2B13568  11.019  13.199   7.621 -0.0959  0.1574 -0.1777
  951POPC   C3B13569  10.982  13.520   7.869 -0.0598 -0.0496  0.0853
  951POPC   C4B13570  10.863  13.692   8.177  0.2347 -0.2893  0.1343
  952POPC   NC313571   7.841  17.462   5.881  0.1954  0.0339  0.0032
  952POPC   PO413572   7.751  17.875   5.877 -0.0110  0.0763 -0.0158
  952POPC   GL113573   7.499  17.957   6.243 -0.1637 -0.1614 -0.0687
  952POPC   GL213574   7.443  18.305   6.466  0.0142 -0.0885  0.2288
  952POPC   C1A13575   7.233  17.833   6.622 -0.2033 -0.0203  0.1446
  952POPC   D2A13576   6.791  17.667   6.628 -0.0424 -0.1375  0.1513
  952POPC   C3A13577   6.639  17.811   6.938 -0.3046 -0.1772  0.3951
  952POPC   C4A13578   6.413  18.038   7.218 -0.1108 -0.1353 -0.0450
  952POPC   C1B13579   7.465  18.291   6.867 -0.0628  0.2667  0.0954
  952POPC   C2B13580   7.455  18.508   7.203 -0.1971  0.0450 -0.0551
  952POPC   C3B13581   7.233  18.571   7.585 -0.0991 -0.1058  0.2313
  952POPC   C4B13582   7.154  18.466   7.976 -0.2214  0.3030 -0.0458
  953POPC   NC313583  11.792   3.506   6.237 -0.0289  0.0669 -0.2086
  953POPC   PO413584  11.566   3.881   5.990  0.1236  0.2265  0.2095
  953POPC   GL113585  11.738   3.954   6.356  0.0367  0.3851  0.0120
  953POPC   GL213586  11.588   3.732   6.609 -0.0073  0.2076  0.3886
  953POPC   C1A13587  11.888   4.370   6.494 -0.3103 -0.0861 -0.1222
  953POPC   D2A13588  12.025   4.683   6.785  0.0623 -0.2456  0.0152
  953POPC   C3A13589  12.383   4.666   6.985 -0.0088 -0.0123  0.1810
  953POPC   C4A13590  12.489   4.759   7.409  0.0128 -0.1501  0.2394
  953POPC   C1B13591  11.538   3.840   7.047 -0.0703  0.1403  0.3058
  953POPC   C2B13592  11.494   3.824   7.565  0.0213 -0.2615  0.0577
  953POPC   C3B13593  11.361   3.816   8.052 -0.3900 -0.2961  0.4259
  953POPC   C4B13594  11.222   3.467   8.361 -0.0677 -0.1666 -0.1581
  954POPC   NC313595   6.017  10.149   5.498  0.0780 -0.0931 -0.0837
  954POPC   PO413596   6.401  10.313   5.681 -0.2651 -0.3657 -0.2277
  954POPC   GL113597   6.695  10.533   5.984 -0.0858 -0.1615  0.0550
  954POPC   GL213598   6.947  10.309   6.197 -0.0072  0.2259  0.2059
  954POPC   C1A13599   6.524  10.513   6.315  0.2606  0.0926  0.1601
  954POPC   D2A13600   6.615  10.775   6.606 -0.1840 -0.0139 -0.0339
  954POPC   C3A13601   6.310  10.889   6.898  0.0062  0.0389  0.1699
  954POPC   C4A13602   6.205  11.191   7.254  0.2162  0.3278 -0.1439
  954POPC   C1B13603   6.885   9.891   6.433  0.1583  0.0697  0.0904
  954POPC   C2B13604   6.803   9.678   6.698 -0.0404 -0.1571  0.0342
  954POPC   C3B13605   6.417   9.723   6.990  0.0847 -0.1748  0.2175
  954POPC   C4B13606   6.215   9.748   6.774  0.1231 -0.0738 -0.1505
  955POPC   NC313607  12.621  12.043   6.188  0.0583  0.3187  0.0973
  955POPC   PO413608  12.244  12.347   6.307 -0.0383 -0.1672 -0.2840
  955POPC   GL113609  12.172  11.918   6.498 -0.3527 -0.2453  0.4100
  955POPC   GL213610  12.428  11.748   6.539 -0.0700 -0.2102  0.0011
  955POPC   C1A13611  12.087  11.793   6.881  0.1573 -0.2851 -0.2549
  955POPC   D2A13612  12.033  11.616   7.321 -0.1432 -0.1434  0.1028
  955POPC   C3A13613  11.883  11.669   7.677 -0.0674  0.0545  0.0202
  955POPC   C4A13614  11.830  11.680   8.121 -0.0061 -0.1281  0.0128
  955POPC   C1B13615  12.636  11.798   6.940 -0.0755  0.3265 -0.0741
  955POPC   C2B13616  12.542  12.024   7.314  0.1290  0.1478  0.1031
  955POPC   C3B13617  12.294  11.947   7.670 -0.1557 -0.5089  0.0540
  955POPC   C4B13618  12.007  12.084   7.942 -0.1772  0.0502  0.0357
  956POPC   NC313619   5.679   7.672   5.740  0.1732 -0.1155 -0.2233
  956POPC   PO413620   5.500   7.811   6.087  0.3531 -0.0180  0.0886
  956POPC   GL113621   5.709   7.954   6.413 -0.3549 -0.0762 -0.0018
  956POPC   GL213622   6.003   7.813   6.610 -0.1546  0.0224  0.0241
  956POPC   C1A13623   5.676   8.335   6.618 -0.2840  0.3760 -0.0046
  956POPC   D2A13624   5.420   8.745   6.724 -0.2756 -0.0487  0.1746
  956POPC   C3A13625   5.110   8.751   7.038  0.2037  0.2804  0.2599
  956POPC   C4A13626   5.127   8.590   7.501  0.2736 -0.2927 -0.0249
  956POPC   C1B13627   6.059   8.178   6.893 -0.0142 -0.1763 -0.1795
  956POPC   C2B13628   6.047   8.314   7.324 -0.3171 -0.2593 -0.2057
  956POPC   C3B13629   6.031   8.503   7.725 -0.0231  0.1265  0.1384
  956POPC   C4B13630   5.766   8.342   8.054  0.2865  0.2187 -0.2693
  957POPC   NC313631  14.234  10.117   6.009  0.1302  0.1400  0.0164
  957POPC   PO413632  14.343  10.503   5.990 -0.0014  0.1146 -0.0432
  957POPC   GL113633  14.086  10.678   6.225 -0.1671  0.2289 -0.0980
  957POPC   GL213634  14.157  11.001   6.385 -0.4510 -0.2647 -0.2108
  957POPC   C1A13635  13.950  10.698   6.675 -0.0049 -0.0017  0.1972
  957POPC   D2A13636  13.881  10.786   7.008  0.1549  0.0016  0.0842
  957POPC   C3A13637  13.756  11.123   7.409 -0.3616 -0.1576 -0.1306
  957POPC   C4A13638  13.373  11.193   7.672 -0.0126 -0.0192  0.1337
  957POPC   C1B13639  13.943  11.229   6.605 -0.1648  0.0587  0.2968
  957POPC   C2B13640  13.943  11.305   6.936  0.0441  0.0379 -0.0760
  957POPC   C3B13641  14.234  11.176   7.356  0.0618  0.0858 -0.0179
  957POPC   C4B13642  14.537  11.185   7.715 -0.3578  0.1712  0.4517
  958POPC   NC313643  13.000   1.066   6.008  0.0135 -0.2496 -0.0219
  958POPC   PO413644  12.534   1.287   6.032  0.0657  0.1952  0.2501
  958POPC   GL113645  12.250   1.198   6.424 -0.0990 -0.2264 -0.0092
  958POPC   GL213646  11.843   1.220   6.314 -0.2265 -0.0062 -0.1291
  958POPC   C1A13647  12.035   1.118   6.858  0.0969  0.0303  0.0473
  958POPC   D2A13648  11.681   1.137   7.235 -0.2187 -0.0265  0.0093
  958POPC   C3A13649  11.364   1.198   7.433 -0.0794  0.0897 -0.2229
  958POPC   C4A13650  11.191   1.398   7.792  0.0800 -0.1303  0.1042
  958POPC   C1B13651  11.607   1.266   6.628 -0.2364  0.1071 -0.0284
  958POPC   C2B13652  11.194   1.289   6.912  0.4316  0.1539  0.3656
  958POPC   C3B13653  10.967   1.520   7.331 -0.1211  0.1806 -0.0397
  958POPC   C4B13654  11.088   1.941   7.511 -0.0779 -0.0534  0.1311
  959POPC   NC313655  17.547   6.501   5.447 -0.3060 -0.1484 -0.1289
  959POPC   PO413656  17.947   6.800   5.356 -0.0317  0.0058  0.0565
  959POPC   GL113657  17.743   6.814   5.835  0.1543  0.1981 -0.0601
  959POPC   GL213658  17.398   6.734   5.905  0.0112  0.0095  0.0768
  959POPC   C1A13659  17.752   6.881   6.282 -0.1692 -0.2060 -0.0657
  959POPC   D2A13660  17.760   7.149   6.666 -0.3382  0.0426 -0.2494
  959POPC   C3A13661  17.510   7.461   6.797  0.4466 -0.2065  0.1840
  959POPC   C4A13662  17.184   7.483   7.201 -0.1166 -0.1409  0.3443
  959POPC   C1B13663  17.450   6.384   6.206  0.2853 -0.0807 -0.5016
  959POPC   C2B13664  17.730   6.213   6.393 -0.3052  0.1810 -0.2093
  959POPC   C3B13665  17.851   6.109   6.851 -0.3737 -0.2095 -0.0392
  959POPC   C4B13666  18.031   6.301   7.229 -0.1130  0.0846  0.1205
  960POPC   NC313667   0.905  16.518   5.173  0.0448  0.2282 -0.0775
  960POPC   PO413668   0.727  16.161   5.187  0.0048  0.3696  0.0145
  960POPC   GL113669   0.467  16.039   5.627  0.3085 -0.0006 -0.1587
  960POPC   GL213670   0.148  15.991   5.562 -0.1214 -0.0715 -0.1637
  960POPC   C1A13671   0.346  15.916   6.040 -0.1888 -0.0369  0.2733
  960POPC   D2A13672   0.303  15.712   6.445 -0.4936 -0.2410  0.2054
  960POPC   C3A13673   0.040  15.805   6.593 -0.3392  0.3031  0.0901
  960POPC   C4A13674   0.028  15.909   7.012  0.1498 -0.3369 -0.3290
  960POPC   C1B13675  -0.151  16.030   5.844 -0.2422 -0.0034 -0.0969
  960POPC   C2B13676  -0.368  15.968   6.275  0.1075  0.1542  0.2511
  960POPC   C3B13677  -0.118  16.245   6.536  0.2943  0.3131 -0.1818
  960POPC   C4B13678   0.101  16.379   6.816 -0.2492 -0.2970  0.2937
  961POPC   NC313679  11.533   1.762   6.093  0.1103  0.0912  0.0029
  961POPC   PO413680  11.738   2.167   6.120  0.2460  0.0002 -0.0831
  961POPC   GL113681  11.914   2.368   6.543  0.2464 -0.0720  0.0714
  961POPC   GL213682  12.218   2.516   6.489  0.0039  0.1408 -0.1300
  961POPC   C1A13683  12.038   2.588   6.907 -0.2513 -0.1280 -0.1949
  961POPC   D2A13684  12.409   2.579   7.054 -0.1736  0.1699  0.1346
  961POPC   C3A13685  12.490   2.918   7.272  0.0751  0.2505 -0.2048
  961POPC   C4A13686  12.626   3.039   7.721 -0.0845  0.1280 -0.2480
  961POPC   C1B13687  12.344   2.179   6.736 -0.1409  0.0024 -0.1721
  961POPC   C2B13688  12.128   2.112   7.116 -0.1640 -0.1039 -0.2875
  961POPC   C3B13689  12.000   2.068   7.533 -0.1533 -0.0206  0.1317
  961POPC   C4B13690  12.099   2.212   7.937 -0.0305  0.2232  0.2541
  962POPC   NC313691  14.243   9.334   5.526  0.0313  0.2994 -0.1340
  962POPC   PO413692  14.496   9.680   5.624  0.2229 -0.1031  0.0178
  962POPC   GL113693  14.486   9.613   6.046  0.2289  0.3601  0.0935
  962POPC   GL213694  14.313   9.336   6.094  0.0566  0.0559 -0.0038
  962POPC   C1A13695  14.403   9.654   6.525  0.2391 -0.3063 -0.1726
  962POPC   D2A13696  14.767   9.638   6.899 -0.1819  0.1067  0.2100
  962POPC   C3A13697  14.740   9.787   7.280  0.0003 -0.1385  0.0473
  962POPC   C4A13698  15.103  10.001   7.392  0.1568 -0.1797 -0.0881
  962POPC   C1B13699  14.655   9.221   6.356  0.1281  0.3158  0.5630
  962POPC   C2B13700  14.851   9.201   6.695 -0.6147  0.1212  0.0727
  962POPC   C3B13701  15.067   8.925   6.960  0.0734  0.3072  0.1935
  962POPC   C4B13702  15.127   8.603   7.228 -0.2689  0.0220  0.1147
  963POPC   NC313703   4.063   8.905   5.014  0.2231 -0.0671  0.2637
  963POPC   PO413704   3.880   9.165   5.305  0.1886  0.0251  0.3665
  963POPC   GL113705   4.095   9.437   5.487 -0.0109 -0.0994  0.3914
  963POPC   GL213706   4.180   9.659   5.476  0.0958  0.3653 -0.0464
  963POPC   C1A13707   4.097   9.489   5.935 -0.0572  0.1956  0.0409
  963POPC   D2A13708   4.206   9.457   6.363  0.1849  0.0434  0.2467
  963POPC   C3A13709   4.021   9.769   6.566 -0.0340 -0.1446 -0.4306
  963POPC   C4A13710   3.967  10.171   6.483 -0.0221 -0.3498  0.2155
  963POPC   C1B13711   4.520   9.755   5.696  0.0585 -0.1547 -0.2020
  963POPC   C2B13712   4.633   9.631   6.017 -0.1278  0.1826  0.1451
  963POPC   C3B13713   4.687   9.425   6.307 -0.1015 -0.1151 -0.1574
  963POPC   C4B13714   4.789   9.522   6.728  0.0264 -0.0453 -0.1822
  964POPC   NC313715  11.242   7.189   5.740  0.1083  0.0161  0.0179
  964POPC   PO413716  11.576   7.263   5.988 -0.3345  0.1777 -0.1472
  964POPC   GL113717  11.731   7.532   6.417  0.0151 -0.2113 -0.0769
  964POPC   GL213718  11.406   7.841   6.563  0.0725  0.1891  0.0705
  964POPC   C1A13719  11.836   7.445   6.800  0.1936 -0.1643  0.1063
  964POPC   D2A13720  11.791   7.111   7.155  0.1767  0.0051 -0.3392
  964POPC   C3A13721  12.045   6.769   7.304  0.5043  0.1024 -0.1631
  964POPC   C4A13722  12.129   6.338   7.457 -0.1248 -0.1885 -0.0678
  964POPC   C1B13723  11.185   7.893   6.937 -0.2218  0.1820  0.1992
  964POPC   C2B13724  11.308   7.842   7.474 -0.2477 -0.3006 -0.2509
  964POPC   C3B13725  11.334   8.027   7.858 -0.1454  0.0349  0.0492
  964POPC   C4B13726  11.158   8.193   8.246 -0.1236  0.3053 -0.0618
  965POPC   NC313727  10.169   1.596   5.683  0.3689  0.0460  0.2910
  965POPC   PO413728  10.054   1.573   6.073 -0.0465  0.0414 -0.2668
  965POPC   GL113729   9.951   1.540   6.586 -0.0254  0.1681  0.0260
  965POPC   GL213730   9.708   1.269   6.694  0.1768  0.0813 -0.1638
  965POPC   C1A13731   9.948   1.532   7.052  0.5191  0.0461  0.0817
  965POPC   D2A13732  10.223   1.796   7.143  0.1404 -0.3034 -0.1332
  965POPC   C3A13733  10.069   2.209   7.413 -0.1772  0.1090 -0.2137
  965POPC   C4A13734   9.909   2.547   7.688 -0.1409  0.0817 -0.1686
  965POPC   C1B13735   9.474   1.358   7.032  0.2085  0.0221 -0.1103
  965POPC   C2B13736   9.507   1.192   7.316 -0.0853  0.0214 -0.0943
  965POPC   C3B13737   9.455   1.317   7.674 -0.0980  0.1510 -0.2271
  965POPC   C4B13738   9.484   1.045   7.979 -0.4021 -0.1228 -0.0383
  966POPC   NC313739   0.084   9.011   5.338  0.0465  0.3341  0.0855
  966POPC   PO413740  -0.271   8.730   5.476  0.2188  0.0919  0.1664
  966POPC   GL113741  -0.256   8.365   5.726 -0.0218  0.1785  0.2445
  966POPC   GL213742  -0.549   8.380   5.913 -0.2113  0.0758  0.0854
  966POPC   C1A13743  -0.164   8.051   5.903  0.2528 -0.0292 -0.1161
  966POPC   D2A13744  -0.178   7.628   6.026  0.0218 -0.2354  0.1892
  966POPC   C3A13745   0.112   7.410   6.353  0.2029 -0.0436  0.1434
  966POPC   C4A13746   0.488   7.269   6.446  0.3159 -0.1160  0.0577
  966POPC   C1B13747  -0.382   8.488   6.295  0.0905  0.0264 -0.2123
  966POPC   C2B13748  -0.105   8.746   6.562  0.1521  0.0546 -0.0507
  966POPC   C3B13749   0.003   9.163   6.412 -0.2605  0.2122 -0.0557
  966POPC   C4B13750   0.334   9.399   6.309  0.5649 -0.0988 -0.2275
  967POPC   NC313751   8.054   8.015   5.858 -0.2478 -0.2027  0.0880
  967POPC   PO413752   8.003   7.706   6.181  0.1793  0.0309 -0.2010
  967POPC   GL113753   8.060   7.619   6.612  0.0802  0.0384  0.0630
  967POPC   GL213754   8.258   7.945   6.704 -0.0710  0.0581 -0.1637
  967POPC   C1A13755   8.119   7.502   7.100 -0.2154  0.0972  0.0192
  967POPC   D2A13756   8.161   7.617   7.459  0.2441 -0.0824 -0.1200
  967POPC   C3A13757   7.842   7.958   7.486 -0.0732 -0.2257 -0.1005
  967POPC   C4A13758   7.662   8.252   7.251 -0.0572 -0.0018 -0.3766
  967POPC   C1B13759   8.674   7.992   7.024 -0.0035  0.0719 -0.1191
  967POPC   C2B13760   8.660   8.269   7.309  0.4460  0.0945 -0.0889
  967POPC   C3B13761   8.617   8.469   7.603 -0.3621  0.0067  0.0225
  967POPC   C4B13762   8.732   8.846   7.702  0.1805 -0.0623  0.0809
  968POPC   NC313763   5.360  15.410   5.321  0.1482  0.2429 -0.2685
  968POPC   PO413764   5.003  15.127   5.541 -0.0352  0.0037  0.0614
  968POPC   GL113765   4.950  15.211   5.955  0.3182 -0.0230 -0.3407
  968POPC   GL213766   4.941  14.839   6.118 -0.2487 -0.1910  0.3409
  968POPC   C1A13767   4.870  15.370   6.297  0.0798  0.1025 -0.1609
  968POPC   D2A13768   4.986  15.587   6.686 -0.1988 -0.3769 -0.0655
  968POPC   C3A13769   5.335  15.881   6.841 -0.3157  0.0932 -0.1663
  968POPC   C4A13770   5.609  15.743   6.796  0.1880 -0.1132  0.0488
  968POPC   C1B13771   5.159  15.017   6.518  0.1169 -0.2740 -0.1460
  968POPC   C2B13772   5.285  15.267   6.859  0.0818  0.1304  0.1006
  968POPC   C3B13773   5.427  15.570   7.258  0.0128 -0.0893 -0.0211
  968POPC   C4B13774   5.847  15.736   7.330  0.0389 -0.1348  0.0937
  969POPC   NC313775   5.805  11.716   5.252  0.1279  0.1783  0.1304
  969POPC   PO413776   5.831  11.873   5.654  0.1537  0.1865 -0.2119
  969POPC   GL113777   5.936  11.508   5.980 -0.2148  0.1040 -0.2193
  969POPC   GL213778   5.848  11.135   6.007 -0.2171 -0.3553 -0.1412
  969POPC   C1A13779   6.081  11.417   6.368 -0.3093  0.0728  0.1187
  969POPC   D2A13780   5.946  11.269   6.803 -0.1614  0.0308  0.0059
  969POPC   C3A13781   5.915  11.498   7.019 -0.0224 -0.0120 -0.2012
  969POPC   C4A13782   5.764  11.790   7.220 -0.0519 -0.1820  0.0117
  969POPC   C1B13783   5.654  10.878   6.276  0.1094  0.2929 -0.0170
  969POPC   C2B13784   5.329  10.953   6.722  0.1310  0.0408  0.2427
  969POPC   C3B13785   5.151  10.736   7.117  0.0054 -0.0805  0.1340
  969POPC   C4B13786   4.840  10.818   7.268 -0.0763  0.0312 -0.0209
  970POPC   NC313787  14.063   3.850   5.951  0.2728 -0.0520 -0.1426
  970POPC   PO413788  13.691   3.758   6.084 -0.1771 -0.0445  0.1470
  970POPC   GL113789  13.852   3.579   6.342 -0.1673 -0.1950 -0.0986
  970POPC   GL213790  14.011   3.827   6.497 -0.0617 -0.1522 -0.1067
  970POPC   C1A13791  13.865   3.455   6.740 -0.4174  0.0419 -0.1823
  970POPC   D2A13792  13.838   3.454   7.112  0.1309  0.1411  0.0079
  970POPC   C3A13793  14.204   3.227   7.376  0.2671  0.1228  0.2519
  970POPC   C4A13794  14.496   3.113   7.083  0.1983 -0.1105 -0.1221
  970POPC   C1B13795  13.946   3.892   6.943 -0.0787 -0.2928 -0.0423
  970POPC   C2B13796  14.085   3.910   7.246  0.1661  0.0672 -0.2003
  970POPC   C3B13797  14.129   3.653   7.559 -0.2303 -0.1878 -0.3071
  970POPC   C4B13798  14.357   3.408   7.800 -0.0452 -0.2529 -0.1449
  971POPC   NC313799  11.225   3.119   6.005  0.0295  0.1084 -0.0923
  971POPC   PO413800  11.328   3.530   6.234  0.1890 -0.2931  0.0585
  971POPC   GL113801  11.247   3.371   6.676 -0.2763  0.3479 -0.0989
  971POPC   GL213802  11.377   3.103   6.572  0.2209  0.0843 -0.1329
  971POPC   C1A13803  11.153   3.160   7.042 -0.0183  0.2593 -0.2968
  971POPC   D2A13804  10.881   3.106   7.388  0.1849  0.3273 -0.0764
  971POPC   C3A13805  10.545   2.920   7.413  0.1939  0.2516 -0.0494
  971POPC   C4A13806  10.097   2.833   7.231  0.1236  0.2249  0.0909
  971POPC   C1B13807  11.540   2.777   6.916  0.1432 -0.2247 -0.3483
  971POPC   C2B13808  11.814   2.842   7.243 -0.0704 -0.1473  0.1377
  971POPC   C3B13809  12.060   2.653   7.511 -0.1098 -0.0495  0.0728
  971POPC   C4B13810  12.292   2.687   7.933 -0.2159  0.2251 -0.2013
  972POPC   NC313811   8.348  14.948   6.268  0.0646  0.4589 -0.2185
  972POPC   PO413812   8.402  15.306   5.930 -0.2192  0.0255  0.0155
  972POPC   GL113813   8.276  15.435   6.427  0.0265  0.1964 -0.2406
  972POPC   GL213814   7.912  15.471   6.383 -0.2506 -0.1236 -0.2465
  972POPC   C1A13815   8.102  15.370   6.805  0.2086 -0.1585 -0.2181
  972POPC   D2A13816   7.876  15.364   7.147  0.4434 -0.2130  0.0925
  972POPC   C3A13817   7.915  15.275   7.541  0.1190 -0.1434 -0.0149
  972POPC   C4A13818   8.245  15.102   7.743  0.1239  0.2223  0.3033
  972POPC   C1B13819   7.821  15.771   6.752 -0.0179 -0.0958  0.0728
  972POPC   C2B13820   7.934  15.851   7.203  0.0438  0.0969  0.4495
  972POPC   C3B13821   7.727  15.823   7.529  0.0518  0.1312 -0.3150
  972POPC   C4B13822   7.703  15.939   7.971 -0.1946 -0.3711  0.3619
  973POPC   NC313823   6.717   2.681   5.622  0.1929 -0.0240 -0.1281
  973POPC   PO413824   6.473   3.077   5.746 -0.4585 -0.1054 -0.0683
  973POPC   GL113825   6.415   2.931   6.140 -0.4190  0.2522 -0.0600
  973POPC   GL213826   6.322   3.055   6.485 -0.0292 -0.0939 -0.0528
  973POPC   C1A13827   6.661   2.677   6.501  0.0469  0.1803 -0.2156
  973POPC   D2A13828   6.890   2.496   6.914  0.1683 -0.2404  0.4313
  973POPC   C3A13829   7.251   2.315   6.893 -0.0045  0.0349 -0.0786
  973POPC   C4A13830   7.655   2.031   6.998 -0.0668  0.2556 -0.0173
  973POPC   C1B13831   6.103   2.879   6.827 -0.1800 -0.2093  0.0006
  973POPC   C2B13832   6.208   2.864   7.231  0.2560  0.1428  0.1632
  973POPC   C3B13833   6.248   3.082   7.562  0.2207 -0.0544  0.0657
  973POPC   C4B13834   6.543   3.089   7.784  0.1511 -0.2685  0.0927
  974POPC   NC313835  16.512  15.951   5.332  0.0439  0.0680  0.1327
  974POPC   PO413836  16.735  16.267   5.381  0.1651 -0.0928  0.3057
  974POPC   GL113837  17.000  16.274   5.761 -0.0935 -0.1620  0.0279
  974POPC   GL213838  16.828  16.366   5.961 -0.1858  0.2218 -0.1000
  974POPC   C1A13839  17.288  16.361   6.106 -0.1295 -0.2209  0.1818
  974POPC   D2A13840  17.400  16.135   6.472 -0.4129  0.3121 -0.3298
  974POPC   C3A13841  17.813  16.284   6.509  0.0467  0.0223 -0.0722
  974POPC   C4A13842  17.995  16.618   6.437 -0.0767 -0.0370 -0.2452
  974POPC   C1B13843  16.830  16.205   6.324 -0.2827 -0.0822 -0.0841
  974POPC   C2B13844  16.876  16.094   6.750 -0.2539 -0.4040  0.0054
  974POPC   C3B13845  16.731  16.378   7.027  0.0928  0.1673  0.0990
  974POPC   C4B13846  16.846  16.492   7.433 -0.0382  0.0740 -0.2974
  975POPC   NC313847   7.287   3.106   6.182 -0.5743  0.0768  0.2165
  975POPC   PO413848   7.213   3.457   6.359 -0.1398 -0.1409  0.1435
  975POPC   GL113849   7.068   3.391   6.661  0.1960  0.0518 -0.2092
  975POPC   GL213850   6.854   3.130   6.670  0.2849  0.1685  0.1317
  975POPC   C1A13851   6.926   3.556   7.068  0.1370 -0.0440  0.1549
  975POPC   D2A13852   6.789   3.789   7.342  0.1927 -0.1062 -0.3912
  975POPC   C3A13853   6.587   3.592   7.640 -0.0863 -0.1713  0.1763
  975POPC   C4A13854   6.202   3.506   7.884 -0.0613  0.0108 -0.0959
  975POPC   C1B13855   6.600   3.032   7.013  0.1467  0.1625 -0.0844
  975POPC   C2B13856   6.702   3.225   7.330  0.2015  0.1089  0.0467
  975POPC   C3B13857   6.995   3.245   7.665  0.1400 -0.1505  0.0424
  975POPC   C4B13858   7.227   3.548   7.521 -0.1596 -0.3343 -0.1775
  976POPC   NC313859  14.783   0.423   5.600 -0.1022  0.0589  0.0479
  976POPC   PO413860  14.514   0.031   5.594  0.1417 -0.1237  0.0205
  976POPC   GL113861  14.522  -0.080   6.027 -0.1271  0.0989  0.3485
  976POPC   GL213862  14.605  -0.284   6.241  0.1262 -0.1432  0.1649
  976POPC   C1A13863  14.597   0.152   6.411  0.0283 -0.1182 -0.2454
  976POPC   D2A13864  14.340   0.304   6.585  0.1306  0.0582 -0.1895
  976POPC   C3A13865  14.102   0.114   6.828  0.0563  0.0909 -0.0604
  976POPC   C4A13866  14.023   0.009   7.314 -0.0908 -0.1058  0.1617
  976POPC   C1B13867  14.656  -0.279   6.694  0.0745  0.0195 -0.0576
  976POPC   C2B13868  14.980  -0.465   6.961 -0.1385 -0.1912 -0.1931
  976POPC   C3B13869  15.307  -0.816   7.105  0.2968  0.0449 -0.0586
  976POPC   C4B13870  15.518  -1.026   6.949  0.0757 -0.1279  0.1019
  977POPC   NC313871   2.510   9.418   5.011 -0.0613  0.0915 -0.0336
  977POPC   PO413872   2.167   9.312   5.277  0.0211 -0.2433 -0.1424
  977POPC   GL113873   2.003   9.451   5.717 -0.0041 -0.0636  0.0315
  977POPC   GL213874   1.936   9.755   5.682 -0.2478  0.1305 -0.0891
  977POPC   C1A13875   1.940   9.329   6.137 -0.1062  0.0570 -0.1447
  977POPC   D2A13876   2.067   9.209   6.456  0.1393  0.0293 -0.4337
  977POPC   C3A13877   2.038   8.857   6.454 -0.0828  0.1922  0.1012
  977POPC   C4A13878   1.841   8.414   6.279  0.1520 -0.2317 -0.2540
  977POPC   C1B13879   1.940   9.876   6.040 -0.0344 -0.2221  0.1674
  977POPC   C2B13880   1.816  10.023   6.361 -0.2552 -0.0107  0.3122
  977POPC   C3B13881   1.525  10.168   6.642 -0.1673 -0.1877  0.1097
  977POPC   C4B13882   1.276  10.240   6.976 -0.3740  0.0299  0.3502
  978POPC   NC313883   6.518   4.877   5.893 -0.1560  0.2001 -0.1661
  978POPC   PO413884   6.204   4.939   6.070  0.0956 -0.1284 -0.3810
  978POPC   GL113885   6.150   5.133   6.491 -0.3694 -0.0508  0.4128
  978POPC   GL213886   6.343   4.936   6.559  0.0949  0.1226  0.0076
  978POPC   C1A13887   6.159   5.146   6.995  0.1320 -0.0639 -0.0050
  978POPC   D2A13888   5.941   4.915   7.337  0.1416 -0.0061  0.0063
  978POPC   C3A13889   5.764   5.266   7.540 -0.1107 -0.1193 -0.0785
  978POPC   C4A13890   5.576   5.726   7.768  0.1305 -0.1044 -0.0852
  978POPC   C1B13891   6.615   5.272   6.750  0.1264  0.2450  0.1593
  978POPC   C2B13892   6.625   5.237   7.128  0.2591  0.0005 -0.1604
  978POPC   C3B13893   6.463   5.074   7.438 -0.0524  0.0557  0.0859
  978POPC   C4B13894   6.138   4.979   7.767 -0.1372 -0.2991  0.0207
  979POPC   NC313895  11.516   5.540   6.372  0.0107  0.0109 -0.1800
  979POPC   PO413896  11.327   5.963   6.260  0.3107  0.2297 -0.2947
  979POPC   GL113897  11.050   6.127   6.625  0.2776  0.0348  0.1524
  979POPC   GL213898  11.288   6.311   6.897  0.0106 -0.1366 -0.0972
  979POPC   C1A13899  10.770   5.930   6.854 -0.0177  0.0556  0.0452
  979POPC   D2A13900  10.634   5.888   7.330  0.0560  0.1859 -0.1786
  979POPC   C3A13901  10.924   5.785   7.569 -0.0886 -0.3344  0.1885
  979POPC   C4A13902  11.337   6.042   7.733 -0.0579  0.0063 -0.2373
  979POPC   C1B13903  11.106   6.125   7.223  0.0060 -0.0758 -0.0482
  979POPC   C2B13904  10.738   6.311   7.548  0.0790 -0.0807 -0.0850
  979POPC   C3B13905  10.691   6.609   7.903  0.0685 -0.1372 -0.2223
  979POPC   C4B13906  10.733   6.911   8.275 -0.2354  0.2154 -0.1975
  980POPC   NC313907   1.731  14.290   4.705  0.3243  0.2101  0.2166
  980POPC   PO413908   1.677  14.009   5.012  0.2306  0.3830 -0.1522
  980POPC   GL113909   1.653  14.025   5.441 -0.1834  0.0763 -0.0355
  980POPC   GL213910   1.835  14.198   5.611 -0.0762  0.1412 -0.0034
  980POPC   C1A13911   1.561  13.820   5.904 -0.2421 -0.1122  0.3501
  980POPC   D2A13912   1.809  13.475   6.186  0.3684  0.0154 -0.0342
  980POPC   C3A13913   1.831  13.472   6.507 -0.0376 -0.1207 -0.1631
  980POPC   C4A13914   1.781  13.467   7.084 -0.2250 -0.0389 -0.0400
  980POPC   C1B13915   1.797  14.236   6.063  0.0099  0.0040 -0.1495
  980POPC   C2B13916   1.860  13.958   6.371  0.0496 -0.0357 -0.0258
  980POPC   C3B13917   1.978  13.933   6.778 -0.0241 -0.0377 -0.2580
  980POPC   C4B13918   1.860  13.963   7.230 -0.3023  0.0323  0.0499
  981YOPC   NC313919   2.886   7.732   4.807  0.0016  0.2834  0.2176
  981YOPC   PO413920   3.019   8.084   5.073  0.0799  0.0164  0.1566
  981YOPC   GL113921   3.206   7.929   5.532 -0.1542  0.1727 -0.0713
  981YOPC   GL213922   3.597   7.877   5.523 -0.0247 -0.2707  0.1197
  981YOPC   C1A13923   3.331   8.183   5.986 -0.0559  0.0756  0.0843
  981YOPC   D2A13924   3.363   8.313   6.432 -0.0824 -0.1634 -0.1226
  981YOPC   C3A13925   3.671   8.236   6.735  0.2332 -0.0140 -0.0485
  981YOPC   C4A13926   3.846   7.951   6.973 -0.0277  0.0751  0.1411
  981YOPC   C1B13927   3.750   7.751   5.895  0.1063 -0.1533  0.0136
  981YOPC   C2B13928   3.812   7.749   6.406  0.0619 -0.1992  0.2505
  981YOPC   D3B13929   3.905   7.485   6.722  0.0715 -0.0111 -0.0328
  981YOPC   C4B13930   3.897   7.443   7.128 -0.2463  0.2136 -0.0500
  982YOPC   NC313931   7.129   1.934   5.693  0.0213  0.1469 -0.1731
  982YOPC   PO413932   7.137   2.294   6.077  0.0623  0.2813 -0.0285
  982YOPC   GL113933   7.017   2.096   6.544 -0.3135  0.1018  0.2001
  982YOPC   GL213934   6.690   2.151   6.577 -0.0405  0.1609 -0.0033
  982YOPC   C1A13935   7.261   1.826   6.829  0.5561 -0.1052  0.2946
  982YOPC   D2A13936   7.272   1.840   7.295 -0.3537  0.2872  0.2042
  982YOPC   C3A13937   6.857   1.858   7.626  0.0661 -0.1517  0.2362
  982YOPC   C4A13938   6.546   2.075   7.916 -0.3396  0.0808  0.0659
  982YOPC   C1B13939   6.877   2.066   7.038 -0.0534 -0.1623 -0.3096
  982YOPC   C2B13940   6.779   2.269   7.449 -0.1780  0.4659 -0.0095
  982YOPC   D3B13941   6.741   2.716   7.381  0.4696  0.1761  0.3750
  982YOPC   C4B13942   7.119   2.955   7.134 -0.0939 -0.2129  0.0697
  983YOPC   NC313943   2.565   0.257   5.446  0.1537 -0.0763  0.0928
  983YOPC   PO413944   2.622  -0.238   5.686  0.0530  0.0444  0.0227
  983YOPC   GL113945   2.400  -0.219   6.062  0.0042  0.0308  0.1330
  983YOPC   GL213946   2.091  -0.321   6.331  0.3316  0.0731 -0.1806
  983YOPC   C1A13947   2.150   0.096   6.160 -0.0625 -0.3387 -0.2804
  983YOPC   D2A13948   1.929   0.355   6.540  0.4359 -0.0027 -0.1903
  983YOPC   C3A13949   1.969   0.459   6.887  0.1719  0.0537 -0.0360
  983YOPC   C4A13950   1.879   0.125   7.162 -0.0330 -0.1306 -0.0052
  983YOPC   C1B13951   2.013  -0.782   6.534 -0.4040 -0.0184 -0.2735
  983YOPC   C2B13952   2.242  -1.020   6.814 -0.1114  0.0171  0.1995
  983YOPC   D3B13953   2.529  -1.369   6.706  0.3327 -0.0203  0.0290
  983YOPC   C4B13954   2.497  -1.859   6.783  0.0892  0.3940  0.0700
  984YOPC   NC313955  10.464   7.029   5.874  0.1591  0.0106 -0.0827
  984YOPC   PO413956  10.852   6.920   6.146 -0.1213  0.3279 -0.0578
  984YOPC   GL113957  10.584   7.015   6.414 -0.2659  0.0785  0.1545
  984YOPC   GL213958  10.249   7.177   6.415 -0.2460 -0.1460  0.0934
  984YOPC   C1A13959  10.620   7.118   6.810 -0.2720  0.0509 -0.1752
  984YOPC   D2A13960  10.510   7.265   7.246  0.0800 -0.1451  0.2693
  984YOPC   C3A13961  10.365   7.169   7.563 -0.0323 -0.0665 -0.2213
  984YOPC   C4A13962  10.415   7.314   8.006  0.0416 -0.2013 -0.0438
  984YOPC   C1B13963  10.110   7.281   6.819  0.1066 -0.0331  0.1290
  984YOPC   C2B13964   9.925   7.054   7.276  0.0180  0.3992 -0.0978
  984YOPC   D3B13965   9.854   6.561   7.274  0.1231 -0.0804  0.1379
  984YOPC   C4B13966   9.851   6.123   7.162  0.0512 -0.0634 -0.0112
  985YOPC   NC313967   0.761  13.701   5.108 -0.2337 -0.0856 -0.0740
  985YOPC   PO413968   0.422  13.577   5.347 -0.1526  0.1980  0.2415
  985YOPC   GL113969   0.315  13.431   5.753  0.1820  0.1486 -0.1009
  985YOPC   GL213970   0.248  13.574   6.026 -0.2036 -0.0443  0.1226
  985YOPC   C1A13971   0.154  13.103   5.839  0.0971  0.2881  0.7176
  985YOPC   D2A13972  -0.312  12.844   5.938 -0.3905 -0.1260  0.1139
  985YOPC   C3A13973  -0.478  12.806   6.340 -0.2561 -0.2278  0.3450
  985YOPC   C4A13974  -0.444  12.756   6.887  0.2526 -0.2826 -0.1461
  985YOPC   C1B13975   0.191  13.688   6.472 -0.1379  0.0244  0.2024
  985YOPC   C2B13976  -0.033  13.653   6.828 -0.1074  0.1117  0.2072
  985YOPC   D3B13977   0.252  13.591   7.252 -0.0189  0.0242 -0.1077
  985YOPC   C4B13978   0.694  13.448   7.367 -0.2897  0.0368 -0.1070
  986YOPC   NC313979  18.120   8.254   5.173 -0.0542 -0.2797  0.3496
  986YOPC   PO413980  18.071   7.810   5.195 -0.1415  0.1621 -0.0751
  986YOPC   GL113981  18.010   7.626   5.629 -0.1555  0.2255  0.3007
  986YOPC   GL213982  17.666   7.501   5.772 -0.2194  0.1555  0.1309
  986YOPC   C1A13983  17.880   7.838   5.987  0.0215 -0.0143 -0.0209
  986YOPC   D2A13984  18.135   7.937   6.350 -0.0172  0.0077 -0.2933
  986YOPC   C3A13985  18.166   8.157   6.687 -0.0053 -0.0036 -0.0413
  986YOPC   C4A13986  18.273   8.478   7.033  0.3133 -0.1772 -0.1053
  986YOPC   C1B13987  17.760   7.467   6.289 -0.1701 -0.3027 -0.1635
  986YOPC   C2B13988  17.962   7.604   6.652  0.1797 -0.1471  0.0294
  986YOPC   D3B13989  18.324   7.695   6.771  0.1420  0.0161 -0.0151
  986YOPC   C4B13990  18.475   8.004   7.087 -0.3390 -0.0356  0.1327
  987YOPC   NC313991  13.568   8.252   5.648  0.2475  0.2611  0.2063
  987YOPC   PO413992  13.530   7.901   5.979 -0.0294 -0.1465  0.1163
  987YOPC   GL113993  13.753   7.836   6.351 -0.0087  0.3595 -0.0834
  987YOPC   GL213994  13.499   7.692   6.542 -0.0317  0.0648  0.0116
  987YOPC   C1A13995  13.859   7.935   6.783 -0.2691  0.0410  0.0914
  987YOPC   D2A13996  13.760   8.037   7.194  0.0091  0.2007 -0.1984
  987YOPC   C3A13997  13.912   8.003   7.601 -0.5294 -0.0332 -0.1240
  987YOPC   C4A13998  14.257   7.938   7.923  0.2234  0.0367 -0.0135
  987YOPC   C1B13999  13.395   8.031   6.898  0.0885 -0.2045 -0.2049
  987YOPC   C2B14000  13.389   8.338   7.220 -0.0450  0.2246 -0.2734
  987YOPC   D3B14001  13.212   8.217   7.612 -0.3858  0.1649  0.0345
  987YOPC   C4B14002  13.389   8.047   7.988  0.0833  0.0655  0.0742
  988YOPC   NC314003  12.829  18.104   5.937  0.0103 -0.0196  0.2024
  988YOPC   PO414004  12.805  18.493   5.807  0.1112 -0.0884  0.1039
  988YOPC   GL114005  13.102  18.511   6.117 -0.1078  0.1669  0.1351
  988YOPC   GL214006  13.419  18.658   6.045 -0.1817 -0.0281 -0.0212
  988YOPC   C1A14007  13.104  18.704   6.466  0.2828  0.2619 -0.0492
  988YOPC   D2A14008  13.158  18.991   6.766 -0.0623 -0.1511  0.1279
  988YOPC   C3A14009  12.907  19.379   6.939 -0.2827 -0.0061  0.3555
  988YOPC   C4A14010  12.743  19.338   7.251 -0.0428 -0.1261 -0.1067
  988YOPC   C1B14011  13.646  18.739   6.483  0.0454  0.0854 -0.1326
  988YOPC   C2B14012  13.572  18.699   6.938 -0.0546 -0.1676  0.0551
  988YOPC   D3B14013  13.570  18.406   7.189 -0.2134  0.1228 -0.0078
  988YOPC   C4B14014  13.380  17.959   7.319  0.0299 -0.1096 -0.0788
  989YOPC   NC314015  18.404   7.011   4.929 -0.1254 -0.4888 -0.3799
  989YOPC   PO414016  18.804   7.132   5.095 -0.3917  0.1312  0.0936
  989YOPC   GL114017  18.658   7.176   5.514 -0.1574 -0.3607  0.0841
  989YOPC   GL214018  18.812   6.992   5.785 -0.1005  0.0722  0.0356
  989YOPC   C1A14019  18.393   7.153   5.792 -0.0439  0.0013  0.0634
  989YOPC   D2A14020  18.044   7.219   5.975  0.2383 -0.2705  0.1953
  989YOPC   C3A14021  18.185   7.166   6.360 -0.2046  0.3646 -0.0393
  989YOPC   C4A14022  18.223   7.198   6.829 -0.0830 -0.1076 -0.3122
  989YOPC   C1B14023  18.638   6.901   6.156 -0.0075  0.0623  0.0212
  989YOPC   C2B14024  18.616   6.977   6.640 -0.1765  0.0916  0.0504
  989YOPC   D3B14025  18.712   7.410   6.884  0.2243 -0.2513  0.0098
  989YOPC   C4B14026  18.923   7.759   6.735 -0.0421 -0.0702 -0.0084
  990YOPC   NC314027   1.137  14.714   5.283  0.1324 -0.1748 -0.1360
  990YOPC   PO414028   1.494  14.472   5.364 -0.1563  0.2438 -0.1598
  990YOPC   GL114029   1.458  14.757   5.710 -0.0534 -0.0558 -0.0793
  990YOPC   GL214030   1.145  14.751   5.762  0.2379  0.0070 -0.0763
  990YOPC   C1A14031   1.500  15.071   6.132 -0.0446  0.2133  0.0784
  990YOPC   D2A14032   1.415  15.079   6.578  0.0456  0.1856 -0.0639
  990YOPC   C3A14033   1.235  15.197   6.793 -0.1119 -0.0642 -0.1442
  990YOPC   C4A14034   1.192  15.062   7.226  0.0613 -0.2211 -0.0494
  990YOPC   C1B14035   1.332  14.537   6.163  0.0075  0.0981  0.1661
  990YOPC   C2B14036   1.695  14.677   6.484  0.0508 -0.0430  0.3134
  990YOPC   D3B14037   1.976  14.410   6.502  0.1638  0.1700  0.2813
  990YOPC   C4B14038   2.322  14.378   6.818  0.1967  0.0248 -0.1339
  991YOPC   NC314039   8.223  18.291   5.815 -0.0794  0.3760 -0.0496
  991YOPC   PO414040   8.620  18.069   5.931 -0.1222 -0.2678  0.3073
  991YOPC   GL114041   8.427  17.953   6.259 -0.0184  0.1639  0.2689
  991YOPC   GL214042   8.081  17.801   6.267  0.1491  0.0453 -0.2894
  991YOPC   C1A14043   8.309  18.147   6.673  0.1969  0.1702 -0.0328
  991YOPC   D2A14044   8.482  18.256   7.054  0.0880  0.0629  0.1063
  991YOPC   C3A14045   8.461  18.228   7.556  0.2574 -0.3410  0.1512
  991YOPC   C4A14046   8.381  18.323   7.969 -0.1391 -0.0164  0.1446
  991YOPC   C1B14047   7.781  17.897   6.595  0.0739  0.2220  0.0523
  991YOPC   C2B14048   7.554  17.789   6.939 -0.0262  0.0080  0.4028
  991YOPC   D3B14049   7.512  18.017   7.287 -0.0391  0.0024 -0.0521
  991YOPC   C4B14050   7.657  18.241   7.611 -0.2023  0.2278  0.1562
  992YOPC   NC314051   5.720   5.875   5.271  0.2366 -0.1765  0.0765
  992YOPC   PO414052   5.447   6.175   5.444  0.0471 -0.0909  0.0068
  992YOPC   GL114053   5.280   6.253   5.837 -0.1768  0.1735  0.3354
  992YOPC   GL214054   5.032   6.018   5.990  0.0324  0.1444 -0.0371
  992YOPC   C1A14055   5.139   6.388   6.272 -0.0279  0.4088 -0.0794
  992YOPC   D2A14056   5.177   6.438   6.721  0.0025  0.0032  0.0721
  992YOPC   C3A14057   4.755   6.349   7.022  0.2240 -0.1977  0.0363
  992YOPC   C4A14058   4.769   6.287   7.479  0.2687 -0.0495  0.0944
  992YOPC   C1B14059   4.895   5.778   6.219 -0.0401  0.0982 -0.1906
  992YOPC   C2B14060   4.620   5.635   6.519  0.0357  0.3020 -0.2557
  992YOPC   D3B14061   4.710   5.772   6.986 -0.0551  0.0376  0.2475
  992YOPC   C4B14062   4.779   5.767   7.499 -0.1917 -0.0079 -0.0883
  993YOPC   NC314063  17.654   1.090   5.449  0.1433  0.0167  0.2216
  993YOPC   PO414064  17.267   0.792   5.452  0.1545 -0.2115 -0.1214
  993YOPC   GL114065  17.170   0.876   5.914 -0.2731  0.0766  0.1515
  993YOPC   GL214066  17.024   1.160   6.172  0.2320 -0.3431 -0.3230
  993YOPC   C1A14067  17.427   0.666   6.137 -0.0135  0.1096  0.2126
  993YOPC   D2A14068  17.892   0.372   6.116  0.2136 -0.2801  0.0885
  993YOPC   C3A14069  18.075   0.451   6.467  0.0833  0.1595 -0.2662
  993YOPC   C4A14070  17.979   0.724   6.791 -0.1231 -0.2012  0.0065
  993YOPC   C1B14071  17.101   1.159   6.574 -0.2418  0.0835 -0.1021
  993YOPC   C2B14072  16.997   1.073   7.046  0.0353  0.1520  0.2948
  993YOPC   D3B14073  16.984   1.282   7.451 -0.1511  0.0025  0.0979
  993YOPC   C4B14074  17.021   1.592   7.768 -0.1264  0.1722  0.0555
  994YOPC   NC314075  15.399   2.687   5.809  0.2235 -0.0276 -0.0133
  994YOPC   PO414076  15.056   2.822   5.836 -0.1288 -0.0934 -0.2211
  994YOPC   GL114077  15.268   3.131   6.107  0.2188  0.2240  0.1491
  994YOPC   GL214078  15.538   3.269   5.958 -0.0963 -0.0311  0.0636
  994YOPC   C1A14079  15.184   3.156   6.495  0.1837  0.1088  0.0788
  994YOPC   D2A14080  15.233   3.207   6.849  0.1062  0.0916  0.1664
  994YOPC   C3A14081  15.416   3.035   7.173  0.2595  0.0316  0.0317
  994YOPC   C4A14082  15.624   2.649   7.212  0.1097  0.1976 -0.0199
  994YOPC   C1B14083  15.575   3.424   6.385 -0.1898 -0.1482 -0.2221
  994YOPC   C2B14084  15.723   3.588   6.750 -0.0736  0.0444 -0.0315
  994YOPC   D3B14085  16.030   3.798   6.767 -0.0624 -0.2189 -0.1087
  994YOPC   C4B14086  16.473   3.755   6.810 -0.1008  0.1353 -0.1798
  995YOPC   NC314087   8.915  17.643   6.028  0.3561 -0.1164  0.0597
  995YOPC   PO414088   9.033  17.367   6.349  0.1157  0.0749 -0.3187
  995YOPC   GL114089   9.032  17.273   6.762 -0.2307 -0.1077  0.1686
  995YOPC   GL214090   9.079  17.529   6.925  0.2590  0.0597  0.0163
  995YOPC   C1A14091   9.044  17.047   7.201 -0.1351 -0.1580  0.0674
  995YOPC   D2A14092   8.880  17.081   7.577 -0.3432  0.1233 -0.1052
  995YOPC   C3A14093   8.933  16.686   7.814  0.1294  0.4181  0.1316
  995YOPC   C4A14094   8.959  16.564   8.226  0.2414  0.0900 -0.3338
  995YOPC   C1B14095   8.684  17.393   7.077 -0.0943  0.1533 -0.0320
  995YOPC   C2B14096   8.393  17.428   7.473  0.0748 -0.0880 -0.0473
  995YOPC   D3B14097   8.507  17.372   7.954  0.0166  0.1834 -0.2435
  995YOPC   C4B14098   8.307  17.367   8.307  0.2190 -0.0678 -0.2456
  996YOPC   NC314099   0.837  15.317   5.100  0.0012  0.1546 -0.0813
  996YOPC   PO414100   1.030  15.263   5.434 -0.2146  0.2135 -0.0681
  996YOPC   GL114101   1.196  15.244   5.794 -0.0184 -0.0629 -0.0185
  996YOPC   GL214102   1.277  15.596   5.846 -0.3484  0.0549 -0.0747
  996YOPC   C1A14103   0.962  14.941   6.158  0.0106  0.0390 -0.0796
  996YOPC   D2A14104   0.891  14.712   6.440  0.0683  0.1163  0.2376
  996YOPC   C3A14105   1.264  14.616   6.692  0.2166 -0.0219 -0.0422
  996YOPC   C4A14106   1.547  14.807   6.962  0.1284  0.2325  0.0087
  996YOPC   C1B14107   1.100  15.482   6.323  0.1051 -0.2447 -0.0714
  996YOPC   C2B14108   0.819  15.737   6.611  0.0376 -0.0616  0.0136
  996YOPC   D3B14109   1.021  15.866   6.965  0.0347  0.0516 -0.2925
  996YOPC   C4B14110   1.034  16.111   7.316 -0.4085  0.0827  0.0625
  997YOPC   NC314111  12.528   8.407   6.006  0.2220  0.3980 -0.1373
  997YOPC   PO414112  12.280   8.037   6.340 -0.3377  0.0651  0.3932
  997YOPC   GL114113  12.159   7.945   6.779  0.0519 -0.0581  0.1198
  997YOPC   GL214114  11.853   7.997   6.797  0.3496 -0.3092 -0.0284
  997YOPC   C1A14115  12.044   7.692   7.125 -0.2788  0.1881  0.0410
  997YOPC   D2A14116  12.214   7.640   7.545 -0.1810  0.2311  0.1987
  997YOPC   C3A14117  12.620   7.636   7.538 -0.1247 -0.0549  0.1775
  997YOPC   C4A14118  12.977   7.766   7.669  0.0260 -0.1454  0.1226
  997YOPC   C1B14119  11.661   8.121   7.117 -0.2024  0.0310 -0.3050
  997YOPC   C2B14120  11.789   8.030   7.423 -0.1658 -0.0219 -0.1312
  997YOPC   D3B14121  11.825   7.870   7.852  0.0895  0.2314  0.1665
  997YOPC   C4B14122  11.661   7.969   8.274 -0.1776  0.5361  0.1976
  998YOPC   NC314123   9.052   5.207   5.834  0.0869 -0.0540 -0.0707
  998YOPC   PO414124   8.850   5.066   6.105  0.0594 -0.0971 -0.1777
  998YOPC   GL114125   9.282   5.014   6.348  0.0800  0.2015  0.1653
  998YOPC   GL214126   9.037   4.800   6.589  0.1532 -0.1767 -0.2088
  998YOPC   C1A14127   9.476   5.248   6.607  0.5016 -0.1061  0.1007
  998YOPC   D2A14128   9.596   5.176   7.048  0.4351  0.0274  0.1028
  998YOPC   C3A14129   9.632   5.606   7.358 -0.0546 -0.2962  0.1297
  998YOPC   C4A14130   9.946   5.666   7.650  0.0411 -0.2967 -0.0394
  998YOPC   C1B14131   9.170   4.985   6.866 -0.2333  0.3027 -0.2049
  998YOPC   C2B14132   9.107   5.299   6.926 -0.0323 -0.2032  0.2177
  998YOPC   D3B14133   9.194   5.402   7.278 -0.3381 -0.0290  0.1072
  998YOPC   C4B14134   9.038   5.441   7.723 -0.2823  0.3432 -0.1253
  999YOPC   NC314135  11.484  15.565   5.671  0.1571  0.1705 -0.0733
  999YOPC   PO414136  11.768  15.062   5.876 -0.1184 -0.2849  0.0194
  999YOPC   GL114137  12.040  15.219   6.292 -0.0614 -0.0715  0.1544
  999YOPC   GL214138  11.800  15.085   6.495  0.1931  0.2790  0.3227
  999YOPC   C1A14139  12.194  15.330   6.647 -0.1012  0.2794  0.2403
  999YOPC   D2A14140  12.209  15.481   7.000  0.0836  0.0572 -0.0766
  999YOPC   C3A14141  12.199  15.692   7.436  0.2944 -0.2414 -0.3328
  999YOPC   C4A14142  12.250  15.820   7.855  0.1693 -0.0375 -0.0707
  999YOPC   C1B14143  12.017  14.852   6.745 -0.2132  0.1871  0.1431
  999YOPC   C2B14144  11.870  14.386   7.053  0.2468 -0.2103 -0.0175
  999YOPC   D3B14145  12.034  14.531   7.439  0.0625  0.1105 -0.0983
  999YOPC   C4B14146  12.051  14.694   7.856  0.3021  0.1027  0.2143
 1000YOPC   NC314147  13.124   9.997   5.443  0.0652  0.0031  0.3168
 1000YOPC   PO414148  13.232  10.047   5.906 -0.1744 -0.2783  0.1550
 1000YOPC   GL114149  13.333  10.158   6.371 -0.0290 -0.0530  0.0799
 1000YOPC   GL214150  13.182   9.876   6.657  0.0350 -0.1022  0.0504
 1000YOPC   C1A14151  13.625  10.232   6.608 -0.2053  0.1964  0.0819
 1000YOPC   D2A14152  13.992  10.123   6.640  0.3762 -0.1061  0.2617
 1000YOPC   C3A14153  14.431  10.086   6.945 -0.0071 -0.2046  0.2671
 1000YOPC   C4A14154  14.817  10.340   7.107  0.1552  0.1573 -0.0170
 1000YOPC   C1B14155  13.534   9.889   6.901  0.0255  0.1402  0.1714
 1000YOPC   C2B14156  13.622   9.796   7.290 -0.1497 -0.0361  0.1285
 1000YOPC   D3B14157  13.595  10.065   7.510 -0.1437 -0.0486 -0.0966
 1000YOPC   C4B14158  13.782  10.333   7.681 -0.0882  0.1146  0.0878
 1001YOPC   NC314159  11.248   9.542   6.173 -0.0093  0.0541  0.1470
 1001YOPC   PO414160  10.948   9.553   5.851 -0.3508  0.0034 -0.1480
 1001YOPC   GL114161  10.737   9.481   6.275  0.1582 -0.1405  0.1845
 1001YOPC   GL214162  10.308   9.475   6.290 -0.1553  0.0834 -0.0134
 1001YOPC   C1A14163  10.732   9.492   6.744  0.5268 -0.1876 -0.1493
 1001YOPC   D2A14164  10.517   9.761   6.961  0.1158  0.0084  0.1627
 1001YOPC   C3A14165  10.468   9.675   7.358 -0.0090  0.0357  0.4966
 1001YOPC   C4A14166  10.408   9.918   7.769 -0.1405  0.0829  0.2747
 1001YOPC   C1B14167  10.184   9.788   6.585 -0.1859 -0.2175  0.2237
 1001YOPC   C2B14168  10.134  10.139   6.873  0.0154  0.0178  0.2349
 1001YOPC   D3B14169   9.745  10.253   7.105  0.2271  0.0040  0.1088
 1001YOPC   C4B14170   9.315  10.035   7.230  0.1151  0.0603 -0.2792
 1002YOPC   NC314171  16.240   0.623   5.636 -0.0641 -0.0398 -0.5870
 1002YOPC   PO414172  16.581   0.789   5.457 -0.3186 -0.3433  0.0941
 1002YOPC   GL114173  16.647   0.792   5.891  0.0910  0.5000 -0.1830
 1002YOPC   GL214174  16.366   0.736   6.103  0.0129 -0.0287  0.0545
 1002YOPC   C1A14175  16.861   0.532   6.216 -0.2054 -0.1086  0.0067
 1002YOPC   D2A14176  16.930   0.193   6.438  0.2752 -0.0969 -0.1663
 1002YOPC   C3A14177  16.664   0.292   6.805 -0.1831  0.1161 -0.1126
 1002YOPC   C4A14178  16.939   0.305   7.257 -0.0887 -0.1419 -0.0511
 1002YOPC   C1B14179  16.407   0.513   6.471  0.2364  0.1092  0.0515
 1002YOPC   C2B14180  16.183   0.090   6.739 -0.0728 -0.1892 -0.1270
 1002YOPC   D3B14181  15.817   0.138   6.907 -0.2231 -0.1049  0.1499
 1002YOPC   C4B14182  15.564   0.167   6.621  0.2631 -0.0829 -0.1594
 1003YOPC   NC314183  15.107   7.295   5.417 -0.1259 -0.1753  0.0377
 1003YOPC   PO414184  15.058   7.648   5.818  0.2507  0.0125  0.1987
 1003YOPC   GL114185  15.367   7.900   5.990  0.2708  0.1522  0.2162
 1003YOPC   GL214186  15.705   7.970   5.836 -0.1301  0.0427  0.0599
 1003YOPC   C1A14187  15.581   7.821   6.423  0.1224  0.1540  0.1341
 1003YOPC   D2A14188  15.806   8.130   6.652  0.3884  0.2073 -0.1894
 1003YOPC   C3A14189  16.133   8.218   6.446 -0.0929 -0.3242 -0.1210
 1003YOPC   C4A14190  16.116   8.044   6.126 -0.0456 -0.0909  0.3716
 1003YOPC   C1B14191  15.656   8.231   6.167  0.1129  0.2582  0.2568
 1003YOPC   C2B14192  15.480   8.449   6.403  0.0523  0.0847 -0.1119
 1003YOPC   D3B14193  15.493   8.483   6.874 -0.0182 -0.3719 -0.1977
 1003YOPC   C4B14194  15.796   8.633   7.177 -0.0198 -0.1307  0.0215
 1004YOPC   NC314195   2.537  11.273   5.229 -0.3782  0.0838  0.1179
 1004YOPC   PO414196   1.990  11.144   5.245  0.1572  0.1021  0.1651
 1004YOPC   GL114197   2.240  10.954   5.524  0.0032  0.1186  0.1420
 1004YOPC   GL214198   2.423  11.201   5.710  0.0977 -0.0108 -0.1006
 1004YOPC   C1A14199   2.360  10.692   5.788 -0.2794  0.1926 -0.4541
 1004YOPC   D2A14200   2.555  10.440   6.114  0.0699 -0.0539 -0.1580
 1004YOPC   C3A14201   2.407  10.059   6.235  0.1764  0.2006 -0.3413
 1004YOPC   C4A14202   2.187   9.708   6.503  0.4341  0.0083  0.2372
 1004YOPC   C1B14203   2.144  11.386   5.921  0.3160  0.3040  0.0952
 1004YOPC   C2B14204   1.746  11.491   6.085 -0.2905 -0.0853  0.0227
 1004YOPC   D3B14205   1.819  11.706   6.454 -0.0511 -0.0541 -0.0553
 1004YOPC   C4B14206   2.005  11.789   6.781  0.1308  0.0565  0.0966
 1005YOPC   NC314207  12.216  17.647   5.573  0.1878 -0.3240 -0.0032
 1005YOPC   PO414208  12.035  17.519   6.040 -0.1108  0.2963 -0.0225
 1005YOPC   GL114209  11.939  17.450   6.460 -0.2582 -0.0712 -0.2007
 1005YOPC   GL214210  11.789  17.625   6.715  0.0791  0.0861  0.0548
 1005YOPC   C1A14211  12.205  17.282   6.862 -0.3957  0.0840  0.1012
 1005YOPC   D2A14212  12.306  17.282   7.319  0.1599 -0.1608  0.0295
 1005YOPC   C3A14213  12.023  17.358   7.707 -0.1067 -0.0252 -0.0556
 1005YOPC   C4A14214  11.795  17.133   8.054 -0.0539 -0.0212  0.1914
 1005YOPC   C1B14215  11.745  18.003   6.974  0.0102 -0.1194 -0.0866
 1005YOPC   C2B14216  11.719  18.385   7.129 -0.0609  0.0430  0.2624
 1005YOPC   D3B14217  11.912  18.368   7.417  0.0014  0.1580 -0.0862
 1005YOPC   C4B14218  11.919  18.313   7.875 -0.0214  0.0155 -0.0806
 1006YOPC   NC314219  17.522   2.071   5.492  0.0918 -0.1240  0.2764
 1006YOPC   PO414220  17.036   2.182   5.560 -0.0493 -0.1590  0.0588
 1006YOPC   GL114221  17.191   2.387   5.841 -0.1019 -0.0544  0.1246
 1006YOPC   GL214222  17.026   2.577   6.030  0.1059 -0.2263 -0.0402
 1006YOPC   C1A14223  17.416   2.313   6.236 -0.1620  0.4655 -0.0598
 1006YOPC   D2A14224  17.571   2.311   6.632 -0.0443 -0.1644  0.2185
 1006YOPC   C3A14225  17.825   2.091   6.620  0.1534  0.3171 -0.0996
 1006YOPC   C4A14226  17.901   1.755   6.649 -0.0046 -0.0103 -0.1575
 1006YOPC   C1B14227  16.977   2.586   6.415  0.0306  0.0305  0.1164
 1006YOPC   C2B14228  17.097   2.586   6.919 -0.0490 -0.0615 -0.1722
 1006YOPC   D3B14229  17.480   2.507   7.099  0.0360  0.1158  0.2435
 1006YOPC   C4B14230  17.594   2.784   7.367  0.0607 -0.1589  0.0268
 1007YOPC   NC314231   2.063   3.756   5.609 -0.0964 -0.1636  0.0451
 1007YOPC   PO414232   2.328   4.040   5.431  0.0334  0.1427 -0.3585
 1007YOPC   GL114233   2.229   4.181   5.830  0.0794  0.1897 -0.1618
 1007YOPC   GL214234   2.101   4.541   5.867 -0.1708  0.0219  0.0049
 1007YOPC   C1A14235   2.464   4.217   6.176 -0.1436 -0.1328 -0.0735
 1007YOPC   D2A14236   2.430   4.089   6.628 -0.0532 -0.0280 -0.3601
 1007YOPC   C3A14237   2.790   3.711   6.756 -0.0954 -0.0746  0.2586
 1007YOPC   C4A14238   3.081   3.584   6.808  0.0126 -0.0533 -0.4113
 1007YOPC   C1B14239   1.856   4.875   6.058 -0.1107  0.1993  0.2593
 1007YOPC   C2B14240   1.731   5.112   6.422 -0.1369 -0.0680  0.2978
 1007YOPC   D3B14241   1.429   5.056   6.672 -0.0803  0.0591  0.0799
 1007YOPC   C4B14242   1.254   5.120   7.028  0.2455  0.1190 -0.1357
 1008YOPC   NC314243   8.837   3.386   6.158 -0.0377 -0.0245  0.1640
 1008YOPC   PO414244   8.471   3.656   6.053 -0.0999  0.0491 -0.0090
 1008YOPC   GL114245   8.430   3.562   6.482 -0.2686 -0.0031  0.0923
 1008YOPC   GL214246   8.326   3.324   6.424  0.1381  0.2216 -0.3216
 1008YOPC   C1A14247   8.446   3.385   6.936 -0.1734  0.0423  0.1109
 1008YOPC   D2A14248   8.531   3.549   7.336 -0.0478 -0.3480  0.1135
 1008YOPC   C3A14249   8.289   3.707   7.690 -0.1756 -0.1827  0.1777
 1008YOPC   C4A14250   8.077   3.883   8.064  0.1099 -0.1817 -0.0854
 1008YOPC   C1B14251   8.127   3.076   6.667 -0.2377 -0.2250  0.2736
 1008YOPC   C2B14252   8.053   2.952   7.015  0.1267  0.2249  0.2289
 1008YOPC   D3B14253   7.557   2.940   7.233  0.2359  0.0491  0.2182
 1008YOPC   C4B14254   7.424   2.924   7.644 -0.2049  0.4252  0.0468
 1009YOPC   NC314255   6.302   0.816   5.209  0.1204 -0.0695  0.0649
 1009YOPC   PO414256   6.010   0.664   5.477 -0.3141 -0.1687  0.1246
 1009YOPC   GL114257   5.923   0.688   5.929 -0.0963 -0.2845 -0.0224
 1009YOPC   GL214258   5.833   1.002   5.927  0.0227  0.0727  0.3921
 1009YOPC   C1A14259   6.050   0.466   6.255 -0.1360 -0.4410 -0.0445
 1009YOPC   D2A14260   6.253   0.281   6.558  0.2719  0.1353 -0.2618
 1009YOPC   C3A14261   6.326   0.549   7.028 -0.0365 -0.2733 -0.2006
 1009YOPC   C4A14262   6.048   0.601   7.192 -0.1679  0.0101 -0.2696
 1009YOPC   C1B14263   5.985   0.930   6.353  0.4982  0.0582 -0.0577
 1009YOPC   C2B14264   5.917   0.638   6.734  0.3259 -0.1205  0.3019
 1009YOPC   D3B14265   5.886   0.091   6.865  0.0089  0.1447  0.2779
 1009YOPC   C4B14266   5.645  -0.043   7.271 -0.0919  0.1656 -0.0144
 1010YOPC   NC314267   1.190   2.523   5.670 -0.0588 -0.1129 -0.2592
 1010YOPC   PO414268   1.158   2.908   5.771 -0.0477 -0.0647  0.0855
 1010YOPC   GL114269   1.261   2.981   6.143  0.4070  0.1711  0.0822
 1010YOPC   GL214270   1.635   3.087   6.218  0.0312 -0.0412  0.1078
 1010YOPC   C1A14271   1.214   3.027   6.568  0.0079  0.0356 -0.0614
 1010YOPC   D2A14272   1.003   3.327   6.871 -0.2038 -0.0067  0.1505
 1010YOPC   C3A14273   1.293   3.590   7.047  0.0613 -0.1080 -0.2851
 1010YOPC   C4A14274   1.362   3.720   7.563 -0.0157 -0.1905 -0.2294
 1010YOPC   C1B14275   1.723   2.996   6.615 -0.0751 -0.0843  0.0180
 1010YOPC   C2B14276   1.948   2.589   6.732 -0.1623  0.3609  0.0888
 1010YOPC   D3B14277   1.695   2.391   6.803 -0.5599  0.0043  0.1463
 1010YOPC   C4B14278   1.223   2.269   6.939  0.3086  0.1667 -0.2885
 1011YOPC   NC314279  18.473   3.736   5.673  0.1649  0.1253  0.0847
 1011YOPC   PO414280  18.739   4.095   5.630 -0.0508  0.0647  0.1799
 1011YOPC   GL114281  18.704   4.174   6.065  0.1356 -0.2047 -0.3123
 1011YOPC   GL214282  18.489   4.315   6.139 -0.0063 -0.1709 -0.0419
 1011YOPC   C1A14283  18.692   3.939   6.519  0.1330  0.1632  0.0345
 1011YOPC   D2A14284  18.624   3.833   6.838 -0.1130  0.0075 -0.0399
 1011YOPC   C3A14285  18.834   3.918   7.119  0.4623  0.0965 -0.1218
 1011YOPC   C4A14286  19.086   4.069   7.443 -0.2618 -0.0150  0.0522
 1011YOPC   C1B14287  18.283   4.243   6.460  0.5999  0.1468  0.0735
 1011YOPC   C2B14288  18.178   4.113   6.806  0.1214 -0.1036  0.0467
 1011YOPC   D3B14289  18.329   4.381   7.024  0.0452  0.3891 -0.0762
 1011YOPC   C4B14290  18.464   4.720   7.084 -0.3311 -0.0050 -0.3534
 1012YOPC   NC314291   0.911   7.777   5.287 -0.0401  0.0971 -0.0415
 1012YOPC   PO414292   1.096   8.214   5.093  0.0753 -0.2764  0.4145
 1012YOPC   GL114293   1.090   8.247   5.604 -0.0433 -0.1753  0.0018
 1012YOPC   GL214294   1.233   8.548   5.694 -0.1759  0.0585 -0.0866
 1012YOPC   C1A14295   0.930   8.190   5.938  0.2095  0.1208  0.0080
 1012YOPC   D2A14296   0.830   8.444   6.188 -0.1792 -0.2943 -0.1705
 1012YOPC   C3A14297   0.915   8.357   6.588 -0.1062 -0.0650  0.0176
 1012YOPC   C4A14298   1.126   8.289   7.098 -0.0038  0.3824 -0.1637
 1012YOPC   C1B14299   1.292   8.469   6.168  0.0938  0.0060  0.1782
 1012YOPC   C2B14300   1.337   8.508   6.650 -0.2502  0.1570  0.1073
 1012YOPC   D3B14301   1.636   8.268   6.860  0.2466  0.2803  0.2721
 1012YOPC   C4B14302   1.626   8.202   7.264  0.2719 -0.0877 -0.0351
 1013YOPC   NC314303   1.403   7.091   5.473  0.1716  0.1885 -0.1437
 1013YOPC   PO414304   1.369   7.532   5.464  0.1613 -0.1185 -0.0024
 1013YOPC   GL114305   1.142   7.622   5.870  0.1595 -0.0673 -0.2938
 1013YOPC   GL214306   1.345   7.508   6.019  0.3191 -0.0905  0.0921
 1013YOPC   C1A14307   0.847   7.725   6.170  0.1565 -0.4561 -0.1684
 1013YOPC   D2A14308   0.635   8.035   6.368 -0.1030 -0.1671 -0.0680
 1013YOPC   C3A14309   0.340   8.279   6.014 -0.2823  0.0490  0.0905
 1013YOPC   C4A14310   0.025   8.625   6.054 -0.0801 -0.3246  0.2356
 1013YOPC   C1B14311   1.805   7.595   6.215  0.0532  0.0289 -0.1579
 1013YOPC   C2B14312   1.921   7.956   6.560  0.0586  0.1308  0.1171
 1013YOPC   D3B14313   2.125   8.377   6.751  0.0043 -0.0430  0.3430
 1013YOPC   C4B14314   2.160   8.567   7.231  0.1588 -0.0025  0.2396
 1014YOPC   NC314315   1.211  11.559   4.658 -0.0019  0.0480  0.0050
 1014YOPC   PO414316   0.850  11.598   5.014  0.0817 -0.0076  0.0476
 1014YOPC   GL114317   0.941  11.732   5.419  0.1459 -0.0470 -0.2124
 1014YOPC   GL214318   1.350  11.808   5.510  0.2768  0.0953  0.0170
 1014YOPC   C1A14319   0.868  11.850   5.804  0.0261  0.0585  0.2113
 1014YOPC   D2A14320   0.878  11.792   6.285  0.0357 -0.1370  0.1883
 1014YOPC   C3A14321   0.661  11.982   6.535 -0.0781 -0.2679  0.3835
 1014YOPC   C4A14322   0.552  12.367   6.493 -0.1415  0.1324 -0.1529
 1014YOPC   C1B14323   1.354  11.820   5.949 -0.0827 -0.0586 -0.1783
 1014YOPC   C2B14324   1.188  11.432   6.264 -0.1196  0.2382 -0.3838
 1014YOPC   D3B14325   1.450  11.199   6.518  0.2615 -0.2083 -0.0709
 1014YOPC   C4B14326   1.899  11.324   6.745  0.0194  0.5487  0.0616
 1015YOPC   NC314327  14.010   5.558   5.890  0.2888 -0.1785 -0.0525
 1015YOPC   PO414328  13.919   5.200   6.054 -0.2197 -0.0711  0.3125
 1015YOPC   GL114329  13.879   5.301   6.487  0.3174  0.2226  0.2708
 1015YOPC   GL214330  13.867   5.594   6.638 -0.2126 -0.0719  0.0381
 1015YOPC   C1A14331  13.741   5.234   6.952 -0.0656  0.1174  0.0603
 1015YOPC   D2A14332  13.911   5.257   7.351 -0.0700  0.0263 -0.1568
 1015YOPC   C3A14333  13.758   5.332   7.747 -0.0663 -0.4438  0.1098
 1015YOPC   C4A14334  13.696   5.418   8.163 -0.1639 -0.0027 -0.0056
 1015YOPC   C1B14335  13.875   5.713   7.010 -0.1935  0.0532  0.1971
 1015YOPC   C2B14336  14.113   5.789   7.398 -0.0363 -0.0221  0.1849
 1015YOPC   D3B14337  14.055   5.675   7.829 -0.1114  0.1014  0.1483
 1015YOPC   C4B14338  14.213   5.282   7.893 -0.0318  0.2262  0.2810
 1016YOPC   NC314339  15.522   4.055   5.399  0.3454 -0.1428  0.1302
 1016YOPC   PO414340  15.756   4.246   5.771 -0.0245  0.4350 -0.2417
 1016YOPC   GL114341  15.827   4.282   6.135  0.0830 -0.0814  0.2241
 1016YOPC   GL214342  16.261   4.225   6.084  0.1847 -0.0477  0.2410
 1016YOPC   C1A14343  16.095   4.313   6.501  0.0619  0.1030  0.0271
 1016YOPC   D2A14344  16.130   4.210   6.945  0.0733 -0.1813  0.3199
 1016YOPC   C3A14345  15.924   4.425   7.190  0.0133  0.0584 -0.1523
 1016YOPC   C4A14346  15.858   4.383   7.725 -0.2834  0.0606  0.3202
 1016YOPC   C1B14347  16.594   4.096   6.418  0.2922  0.0658  0.0360
 1016YOPC   C2B14348  16.556   4.307   6.759 -0.0398 -0.1671  0.0713
 1016YOPC   D3B14349  16.604   4.167   7.191 -0.0610  0.0537 -0.0677
 1016YOPC   C4B14350  16.806   3.828   7.197 -0.1764  0.2154 -0.0475
 1017YOPC   NC314351  11.336   8.664   6.291 -0.0819 -0.2135  0.1746
 1017YOPC   PO414352  11.213   8.280   6.223  0.1456 -0.0556 -0.1728
 1017YOPC   GL114353  10.899   8.234   6.604  0.3012 -0.0298  0.1039
 1017YOPC   GL214354  10.615   8.172   6.453 -0.3300 -0.0469 -0.0722
 1017YOPC   C1A14355  10.873   8.246   6.992  0.1093  0.2066  0.2050
 1017YOPC   D2A14356  10.578   8.423   7.240 -0.3370 -0.1946  0.0639
 1017YOPC   C3A14357  10.724   8.708   7.562 -0.3015  0.0607  0.1469
 1017YOPC   C4A14358  11.062   8.827   7.803  0.1904  0.1094 -0.0569
 1017YOPC   C1B14359  10.397   8.049   6.822  0.0305  0.0383  0.2774
 1017YOPC   C2B14360  10.407   7.692   7.055  0.0114 -0.2471 -0.1024
 1017YOPC   D3B14361  10.057   7.525   7.295 -0.0547 -0.0527 -0.0869
 1017YOPC   C4B14362   9.947   7.515   7.707  0.0754 -0.2239  0.0259
 1018YOPC   NC314363  15.217  10.949   5.543  0.0771 -0.1673 -0.0830
 1018YOPC   PO414364  15.630  11.106   5.387  0.1248 -0.2275 -0.0091
 1018YOPC   GL114365  15.607  10.946   5.913 -0.0440 -0.0174 -0.1748
 1018YOPC   GL214366  15.375  10.781   5.999  0.0555 -0.2042  0.4184
 1018YOPC   C1A14367  15.727  11.203   6.299  0.0768 -0.3514 -0.1343
 1018YOPC   D2A14368  15.716  11.607   6.546  0.2063 -0.2365  0.0147
 1018YOPC   C3A14369  15.844  11.622   6.937  0.0215  0.3764  0.1023
 1018YOPC   C4A14370  16.057  11.591   7.363  0.2557  0.0660 -0.0413
 1018YOPC   C1B14371  15.588  10.546   6.326 -0.3353 -0.5091  0.0219
 1018YOPC   C2B14372  15.716  10.393   6.712  0.1260 -0.1419 -0.0834
 1018YOPC   D3B14373  15.721  10.164   7.087  0.0475 -0.0150 -0.0957
 1018YOPC   C4B14374  15.990  10.122   7.479 -0.0960  0.0873 -0.4707
 1019YOPC   NC314375   0.673  17.408   5.430 -0.0033  0.0785 -0.1943
 1019YOPC   PO414376   0.885  17.722   5.630 -0.1884  0.4662 -0.2193
 1019YOPC   GL114377   0.714  17.655   6.103  0.1310  0.1221  0.0187
 1019YOPC   GL214378   0.803  17.926   6.218  0.0477 -0.3080 -0.1777
 1019YOPC   C1A14379   0.817  17.397   6.413 -0.2415  0.1399 -0.0177
 1019YOPC   D2A14380   0.580  17.200   6.814 -0.2071 -0.3374  0.0901
 1019YOPC   C3A14381   0.676  17.129   7.223 -0.2301  0.1061  0.0099
 1019YOPC   C4A14382   0.824  17.442   7.509 -0.0467  0.1037  0.0870
 1019YOPC   C1B14383   0.741  18.007   6.595  0.2456  0.2092 -0.3764
 1019YOPC   C2B14384   0.460  18.172   6.798 -0.1230 -0.0323  0.3138
 1019YOPC   D3B14385   0.281  17.916   7.122  0.1729 -0.4283 -0.1497
 1019YOPC   C4B14386   0.269  17.735   7.532 -0.1817  0.3820  0.2164
 1020YOPC   NC314387  11.211  12.843   5.991 -0.0240  0.0320 -0.1164
 1020YOPC   PO414388  11.332  12.517   6.286  0.1770 -0.2229 -0.0872
 1020YOPC   GL114389  11.516  12.154   6.349  0.0709  0.1114  0.2287
 1020YOPC   GL214390  11.752  12.252   6.527 -0.0126  0.0182  0.0584
 1020YOPC   C1A14391  11.700  11.768   6.614 -0.2335 -0.1987  0.0583
 1020YOPC   D2A14392  11.524  11.297   6.525 -0.1194 -0.2516 -0.0711
 1020YOPC   C3A14393  11.835  10.848   6.527 -0.1200  0.2399  0.0026
 1020YOPC   C4A14394  11.882  10.477   6.379  0.1792  0.0924 -0.0994
 1020YOPC   C1B14395  11.714  12.195   6.858  0.0246  0.5027 -0.0232
 1020YOPC   C2B14396  11.780  12.074   7.291 -0.1483 -0.3266 -0.2978
 1020YOPC   D3B14397  11.477  11.966   7.608  0.0802  0.0966  0.0885
 1020YOPC   C4B14398  11.489  12.076   8.026 -0.0737 -0.1906  0.0594
 1021YOPC   NC314399  15.579  13.802   5.133 -0.2596  0.0024  0.1416
 1021YOPC   PO414400  15.344  13.786   5.523  0.1100 -0.0778  0.1307
 1021YOPC   GL114401  15.351  13.798   5.961 -0.0190 -0.2032 -0.2049
 1021YOPC   GL214402  14.997  13.702   5.963 -0.2112 -0.0685 -0.0729
 1021YOPC   C1A14403  15.252  13.861   6.398 -0.0487 -0.0255  0.2177
 1021YOPC   D2A14404  14.938  13.795   6.607  0.2555 -0.0254  0.1514
 1021YOPC   C3A14405  14.867  14.038   6.931 -0.2092 -0.0431  0.3358
 1021YOPC   C4A14406  14.600  14.058   7.208  0.1835  0.0473 -0.3268
 1021YOPC   C1B14407  15.066  13.383   6.305 -0.1743 -0.2469  0.1974
 1021YOPC   C2B14408  15.019  13.216   6.723  0.2762  0.3329  0.0805
 1021YOPC   D3B14409  14.986  13.504   7.054 -0.1156  0.1404 -0.0568
 1021YOPC   C4B14410  15.114  13.847   7.330  0.0610  0.1657  0.1190
 1022YOPC   NC314411  15.213  12.359   5.560  0.3030 -0.1542 -0.1328
 1022YOPC   PO414412  15.190  12.059   6.020  0.0693  0.0138 -0.1349
 1022YOPC   GL114413  15.364  12.058   6.410 -0.2292 -0.2758 -0.1232
 1022YOPC   GL214414  15.101  12.421   6.439 -0.0367 -0.1230  0.3374
 1022YOPC   C1A14415  15.413  11.931   6.845 -0.1208  0.2393  0.3753
 1022YOPC   D2A14416  15.413  11.810   7.236  0.0984  0.0472 -0.1064
 1022YOPC   C3A14417  15.586  11.388   7.369  0.0569 -0.0655  0.0607
 1022YOPC   C4A14418  15.935  11.049   7.541  0.0500  0.2253 -0.0666
 1022YOPC   C1B14419  14.907  12.169   6.643 -0.2071 -0.1418  0.0735
 1022YOPC   C2B14420  14.806  11.737   6.969  0.1030 -0.1377  0.1536
 1022YOPC   D3B14421  14.831  11.800   7.375  0.1794  0.1201  0.0310
 1022YOPC   C4B14422  15.079  12.028   7.685 -0.1574  0.1700 -0.0723
 1023YOPC   NC314423   5.808   6.186   5.876  0.2598  0.0364  0.0229
 1023YOPC   PO414424   6.162   5.885   6.078 -0.3559 -0.0751 -0.0223
 1023YOPC   GL114425   5.759   5.910   6.261 -0.5215 -0.0995  0.0973
 1023YOPC   GL214426   5.593   5.682   6.318  0.3676  0.0089  0.4003
 1023YOPC   C1A14427   5.581   6.216   6.533  0.1669 -0.1291  0.1273
 1023YOPC   D2A14428   5.606   6.265   7.031 -0.1171 -0.1022 -0.0144
 1023YOPC   C3A14429   5.280   6.472   7.332  0.0059 -0.2108  0.3073
 1023YOPC   C4A14430   5.228   6.843   7.727  0.2740 -0.4173 -0.2336
 1023YOPC   C1B14431   5.681   5.809   6.781 -0.0540  0.0101 -0.1793
 1023YOPC   C2B14432   5.992   6.062   6.786  0.0223  0.1346 -0.2595
 1023YOPC   D3B14433   6.050   6.191   7.105  0.0452 -0.0996 -0.0751
 1023YOPC   C4B14434   6.131   6.526   7.377  0.1480  0.1208  0.1454
 1024YOPC   NC314435   2.678   5.272   5.070  0.0673  0.3950  0.1841
 1024YOPC   PO414436   2.296   4.960   5.170  0.1606 -0.0366  0.4488
 1024YOPC   GL114437   2.345   4.939   5.609  0.1493 -0.3192 -0.1048
 1024YOPC   GL214438   2.621   4.784   5.799 -0.0538 -0.2662 -0.0727
 1024YOPC   C1A14439   2.348   5.143   6.048 -0.2247 -0.1963  0.0803
 1024YOPC   D2A14440   2.305   5.152   6.488 -0.1661  0.0714  0.2487
 1024YOPC   C3A14441   1.999   5.412   6.825 -0.1753 -0.4140  0.1440
 1024YOPC   C4A14442   1.637   5.388   7.037 -0.0781  0.4231  0.0384
 1024YOPC   C1B14443   2.448   4.718   6.274  0.0931  0.1647  0.0274
 1024YOPC   C2B14444   2.529   4.634   6.644 -0.2497  0.2318 -0.0806
 1024YOPC   D3B14445   2.489   4.450   7.022  0.0194 -0.0031 -0.1457
 1024YOPC   C4B14446   2.576   4.542   7.418 -0.4729  0.2155 -0.0844
 1025YOPC   NC314447   4.432   4.560   5.657 -0.3332  0.1751  0.1805
 1025YOPC   PO414448   4.185   4.726   5.923 -0.0546  0.1304 -0.3840
 1025YOPC   GL114449   3.991   4.955   6.144 -0.1778  0.0964  0.0053
 1025YOPC   GL214450   4.207   5.309   6.236 -0.3048 -0.0645 -0.1314
 1025YOPC   C1A14451   3.853   5.121   6.511 -0.2880 -0.1330  0.2467
 1025YOPC   D2A14452   3.852   4.927   6.881  0.1366 -0.0513  0.0222
 1025YOPC   C3A14453   3.584   4.905   7.200 -0.1766  0.0818  0.5532
 1025YOPC   C4A14454   3.697   4.993   7.662 -0.3165 -0.0902  0.0342
 1025YOPC   C1B14455   4.072   5.697   6.320  0.0732 -0.2476 -0.0568
 1025YOPC   C2B14456   4.218   5.944   6.644  0.0517 -0.0291 -0.0187
 1025YOPC   D3B14457   3.896   6.187   6.837  0.0403  0.0407  0.5539
 1025YOPC   C4B14458   3.884   6.274   7.287 -0.2923  0.0610 -0.0423
 1026YOPC   NC314459  13.562   0.663   5.305 -0.0376 -0.1915  0.0733
 1026YOPC   PO414460  13.585   0.459   5.662  0.2689 -0.1133  0.1965
 1026YOPC   GL114461  13.535   0.652   6.043 -0.0518 -0.0493 -0.1805
 1026YOPC   GL214462  13.936   0.551   6.193 -0.0183 -0.0210 -0.2023
 1026YOPC   C1A14463  13.576   0.945   6.296  0.1226  0.1028  0.0120
 1026YOPC   D2A14464  13.696   1.287   6.519  0.2457 -0.0949 -0.2604
 1026YOPC   C3A14465  13.633   1.210   7.012  0.0078 -0.1592  0.0600
 1026YOPC   C4A14466  13.780   1.076   7.458  0.0901  0.0209 -0.3383
 1026YOPC   C1B14467  13.929   0.659   6.571  0.0594  0.0677  0.0091
 1026YOPC   C2B14468  13.583   0.731   6.757 -0.1218 -0.1034 -0.0448
 1026YOPC   D3B14469  13.479   0.752   7.176 -0.1093 -0.2131 -0.2443
 1026YOPC   C4B14470  13.643   0.567   7.398 -0.1649 -0.0172  0.1764
 1027YOPC   NC314471   0.922  12.147   5.155  0.0741 -0.2725  0.0374
 1027YOPC   PO414472   1.296  12.295   5.357  0.1844  0.1163 -0.1381
 1027YOPC   GL114473   1.060  12.290   5.671 -0.0989  0.0921  0.2486
 1027YOPC   GL214474   1.151  12.601   5.799 -0.1552  0.2985 -0.0194
 1027YOPC   C1A14475   0.983  12.256   6.152  0.0238 -0.2232 -0.0408
 1027YOPC   D2A14476   1.139  12.317   6.471 -0.2349 -0.2942  0.1887
 1027YOPC   C3A14477   0.995  12.107   6.823 -0.0782 -0.2259  0.4081
 1027YOPC   C4A14478   1.130  12.177   7.229  0.0332  0.0244  0.2102
 1027YOPC   C1B14479   1.357  12.706   6.163 -0.0518 -0.1553 -0.3259
 1027YOPC   C2B14480   1.483  12.644   6.639 -0.0903  0.0277  0.0635
 1027YOPC   D3B14481   1.388  12.410   6.887  0.2248  0.3136 -0.0394
 1027YOPC   C4B14482   1.533  11.954   7.052  0.3386 -0.1427  0.0974
 1028YOPC   NC314483  10.346   9.799   5.888  0.3411  0.0593 -0.0070
 1028YOPC   PO414484  10.030  10.119   5.736 -0.0429 -0.0122 -0.2445
 1028YOPC   GL114485  10.224  10.222   6.175  0.1184  0.1634  0.1718
 1028YOPC   GL214486  10.083  10.493   6.330  0.1287 -0.0257  0.0543
 1028YOPC   C1A14487  10.615  10.157   6.494 -0.0955  0.1156 -0.2384
 1028YOPC   D2A14488  10.651  10.279   6.973 -0.1644  0.1144  0.0445
 1028YOPC   C3A14489  10.303  10.264   7.315  0.1563  0.1638  0.1416
 1028YOPC   C4A14490  10.031   9.892   7.412 -0.1427  0.1013 -0.2237
 1028YOPC   C1B14491   9.846  10.599   6.741 -0.1918  0.0255 -0.1718
 1028YOPC   C2B14492   9.821  10.943   6.986 -0.1176  0.4026 -0.1970
 1028YOPC   D3B14493  10.053  10.874   7.375 -0.1441  0.1435 -0.1465
 1028YOPC   C4B14494  10.069  11.236   7.701  0.1580  0.0188  0.2392
 1029YOPC   NC314495   2.282   7.663   5.538 -0.1002  0.1192  0.2386
 1029YOPC   PO414496   2.464   7.182   5.563  0.0305 -0.4837  0.0235
 1029YOPC   GL114497   2.601   7.293   5.866  0.0099  0.0149  0.1538
 1029YOPC   GL214498   2.691   7.647   5.864 -0.1901  0.0938 -0.2573
 1029YOPC   C1A14499   2.392   7.197   6.287 -0.1172 -0.0187 -0.1258
 1029YOPC   D2A14500   2.537   7.015   6.737 -0.0800  0.2976  0.2333
 1029YOPC   C3A14501   2.250   6.981   7.023  0.1703 -0.1030  0.1264
 1029YOPC   C4A14502   2.031   7.153   7.323  0.3206  0.4878  0.4785
 1029YOPC   C1B14503   2.841   7.497   6.257  0.2073  0.0471  0.2075
 1029YOPC   C2B14504   2.762   7.447   6.672  0.0811 -0.2038  0.2150
 1029YOPC   D3B14505   2.860   7.664   6.906 -0.0098  0.1369  0.0562
 1029YOPC   C4B14506   3.008   8.102   6.945 -0.1723 -0.1211 -0.0269
 1030YOPC   NC314507   9.379  15.090   6.155  0.1129 -0.1837  0.1039
 1030YOPC   PO414508   9.622  15.191   6.462  0.1382  0.0262 -0.1107
 1030YOPC   GL114509   9.600  15.479   6.923  0.0301  0.3259 -0.2406
 1030YOPC   GL214510   9.306  15.705   6.965  0.1406 -0.2034 -0.0782
 1030YOPC   C1A14511   9.849  15.630   7.325  0.0012 -0.3314  0.0746
 1030YOPC   D2A14512   9.759  15.834   7.682  0.3825 -0.0696  0.2079
 1030YOPC   C3A14513   9.658  16.107   7.993  0.1398 -0.1538  0.3920
 1030YOPC   C4A14514   9.478  16.354   8.341  0.1624 -0.1075 -0.4628
 1030YOPC   C1B14515   9.316  15.593   7.327 -0.4479 -0.0453 -0.2173
 1030YOPC   C2B14516   9.328  15.674   7.767 -0.0879  0.2235 -0.1585
 1030YOPC   D3B14517   9.153  15.372   7.986 -0.1484  0.2660  0.0721
 1030YOPC   C4B14518   9.070  14.951   7.957  0.1755 -0.0176 -0.0086
 1031YOPC   NC314519   7.554  12.046   5.984  0.3017 -0.1968  0.1052
 1031YOPC   PO414520   7.072  12.003   5.994 -0.0027 -0.1313  0.1663
 1031YOPC   GL114521   7.217  11.903   6.401  0.0133  0.0906  0.2181
 1031YOPC   GL214522   6.983  11.671   6.404  0.0453 -0.3757 -0.0109
 1031YOPC   C1A14523   7.398  11.944   6.740 -0.2719 -0.3038 -0.1884
 1031YOPC   D2A14524   7.204  11.937   7.153 -0.1377  0.0045 -0.2847
 1031YOPC   C3A14525   7.375  12.041   7.416  0.1368  0.2539 -0.3310
 1031YOPC   C4A14526   7.594  12.321   7.603  0.1604  0.0009  0.1491
 1031YOPC   C1B14527   7.037  11.568   6.870 -0.0791  0.1197  0.0809
 1031YOPC   C2B14528   6.981  11.567   7.412 -0.2567 -0.3489  0.0053
 1031YOPC   D3B14529   7.318  11.656   7.763  0.1662 -0.2978  0.0848
 1031YOPC   C4B14530   7.534  11.526   8.144  0.0064 -0.2219 -0.0671
 1032YOPC   NC314531   3.552   3.981   5.820 -0.5160  0.0111 -0.1681
 1032YOPC   PO414532   3.884   4.309   5.707  0.1489 -0.0936 -0.1148
 1032YOPC   GL114533   3.793   4.403   6.147  0.1572 -0.0265  0.0203
 1032YOPC   GL214534   3.526   4.461   6.263 -0.0786  0.2879 -0.0516
 1032YOPC   C1A14535   3.977   4.530   6.521  0.2475 -0.1972 -0.0696
 1032YOPC   D2A14536   4.194   4.441   6.833 -0.0471  0.0480 -0.0210
 1032YOPC   C3A14537   3.903   4.513   7.177 -0.0876  0.0458 -0.0332
 1032YOPC   C4A14538   3.856   4.321   7.631 -0.0062 -0.1268  0.0061
 1032YOPC   C1B14539   3.457   4.840   6.265 -0.0730 -0.5595 -0.1314
 1032YOPC   C2B14540   2.989   4.947   6.174 -0.0540 -0.0280 -0.0218
 1032YOPC   D3B14541   2.912   5.285   6.538  0.0481 -0.0817  0.0348
 1032YOPC   C4B14542   3.163   5.614   6.782  0.0421  0.0038  0.2584
 1033YOPC   NC314543   5.807   0.238   5.599 -0.0863 -0.0190 -0.1753
 1033YOPC   PO414544   5.653  -0.106   5.655  0.0735  0.0828  0.1390
 1033YOPC   GL114545   5.907  -0.072   5.984 -0.1166  0.1575  0.0866
 1033YOPC   GL214546   5.821  -0.266   6.191  0.2784 -0.2524  0.1258
 1033YOPC   C1A14547   6.334  -0.066   6.106 -0.2960 -0.0735 -0.3303
 1033YOPC   D2A14548   6.761   0.090   6.301  0.0211  0.3260 -0.3474
 1033YOPC   C3A14549   6.811   0.230   6.698 -0.1108 -0.0574  0.1562
 1033YOPC   C4A14550   6.766   0.329   7.145  0.0995 -0.0953 -0.3972
 1033YOPC   C1B14551   6.022  -0.299   6.539  0.1967  0.1415 -0.0480
 1033YOPC   C2B14552   6.167  -0.734   6.746 -0.0591 -0.0015 -0.1828
 1033YOPC   D3B14553   5.968  -0.534   7.118  0.0292 -0.0232 -0.3228
 1033YOPC   C4B14554   6.021  -0.236   7.457  0.2931  0.1246 -0.0287
 1034YOPC   NC314555   2.265   8.216   5.258  0.1067 -0.3609  0.0712
 1034YOPC   PO414556   2.013   8.127   5.541 -0.2076  0.0157  0.1166
 1034YOPC   GL114557   2.079   8.027   5.953 -0.0478 -0.0649 -0.2276
 1034YOPC   GL214558   2.256   7.818   5.995  0.4541 -0.1178  0.1878
 1034YOPC   C1A14559   2.297   8.217   6.326 -0.1351  0.1972  0.0188
 1034YOPC   D2A14560   2.494   8.651   6.384 -0.2816 -0.0083  0.1678
 1034YOPC   C3A14561   2.392   8.891   6.787 -0.0196  0.2272 -0.2799
 1034YOPC   C4A14562   2.468   9.315   6.946  0.0721 -0.3459 -0.2345
 1034YOPC   C1B14563   2.411   7.736   6.334 -0.1009  0.0799  0.0135
 1034YOPC   C2B14564   2.152   7.343   6.733 -0.1058 -0.0616 -0.3162
 1034YOPC   D3B14565   2.451   7.433   7.111  0.0558 -0.1821  0.0002
 1034YOPC   C4B14566   2.369   7.396   7.566  0.1280 -0.1268 -0.1595
 1035YOPC   NC314567   1.887  16.758   5.872  0.1395  0.1855  0.1679
 1035YOPC   PO414568   1.958  17.142   5.720 -0.0712 -0.0374 -0.0641
 1035YOPC   GL114569   1.880  17.224   6.079  0.2449  0.1550 -0.1753
 1035YOPC   GL214570   1.801  17.515   6.092 -0.0358  0.1134  0.0924
 1035YOPC   C1A14571   1.807  17.247   6.493 -0.1497  0.0422 -0.2077
 1035YOPC   D2A14572   1.784  17.250   7.084 -0.1489  0.0369 -0.2435
 1035YOPC   C3A14573   1.824  16.933   7.403 -0.1374  0.1214  0.1049
 1035YOPC   C4A14574   1.924  16.668   7.650  0.1837 -0.1590 -0.0698
 1035YOPC   C1B14575   2.227  17.655   6.029 -0.0955  0.1619 -0.0180
 1035YOPC   C2B14576   2.488  17.451   6.306 -0.0649 -0.0225 -0.0052
 1035YOPC   D3B14577   2.832  17.257   6.194  0.0744  0.2240 -0.2002
 1035YOPC   C4B14578   3.257  17.219   6.332  0.3565 -0.0072  0.0076
 1036YOPC   NC314579   1.113  12.695   5.041  0.1760  0.3027 -0.0396
 1036YOPC   PO414580   0.829  12.654   5.382  0.0938 -0.2546  0.1229
 1036YOPC   GL114581   0.675  12.559   5.822  0.2449 -0.1269  0.0920
 1036YOPC   GL214582   0.393  12.580   5.755 -0.0676 -0.2701  0.0093
 1036YOPC   C1A14583   0.508  12.193   6.046  0.0458 -0.2491  0.3426
 1036YOPC   D2A14584   0.143  12.134   6.378  0.0130 -0.2264 -0.2988
 1036YOPC   C3A14585   0.297  11.851   6.749  0.0574 -0.1254 -0.1236
 1036YOPC   C4A14586   0.598  11.934   7.120 -0.0530 -0.2567 -0.0019
 1036YOPC   C1B14587   0.365  12.769   6.155 -0.0336 -0.1354  0.1493
 1036YOPC   C2B14588   0.431  13.201   6.260  0.4252 -0.1335 -0.2763
 1036YOPC   D3B14589   0.458  13.402   6.742  0.0748 -0.2994  0.0509
 1036YOPC   C4B14590   0.503  13.837   6.831  0.0422  0.3438 -0.2085
 1037YOPC   NC314591   2.256  12.281   5.111  0.3637 -0.1635 -0.0996
 1037YOPC   PO414592   1.996  12.655   5.354  0.1056 -0.1467  0.1726
 1037YOPC   GL114593   2.016  12.530   5.791  0.0466 -0.0724 -0.0706
 1037YOPC   GL214594   1.776  12.671   5.875  0.4201 -0.1642  0.0508
 1037YOPC   C1A14595   1.986  12.487   6.246 -0.0821 -0.2620 -0.0819
 1037YOPC   D2A14596   1.923  12.263   6.676  0.0665 -0.1355 -0.0613
 1037YOPC   C3A14597   2.080  12.474   7.145  0.1047 -0.0170  0.0254
 1037YOPC   C4A14598   2.218  12.811   7.406 -0.1735  0.0149  0.0658
 1037YOPC   C1B14599   1.600  12.232   5.963  0.1080  0.1187 -0.3003
 1037YOPC   C2B14600   1.623  12.164   6.318 -0.0032 -0.0408 -0.0498
 1037YOPC   D3B14601   1.396  11.810   6.533 -0.1465 -0.2249  0.1671
 1037YOPC   C4B14602   1.039  11.592   6.740  0.4448 -0.1328 -0.1885
 1038YOPC   NC314603  14.500   7.896   5.668 -0.1141 -0.0418 -0.0093
 1038YOPC   PO414604  14.499   7.633   6.032  0.1818  0.1825 -0.0869
 1038YOPC   GL114605  14.400   7.605   6.369 -0.1232  0.3164 -0.3621
 1038YOPC   GL214606  14.126   7.445   6.430 -0.0450 -0.1050 -0.4404
 1038YOPC   C1A14607  14.381   7.539   6.806 -0.1486  0.0458  0.4850
 1038YOPC   D2A14608  14.271   7.227   7.157  0.2329  0.0809  0.0576
 1038YOPC   C3A14609  14.631   7.169   7.403 -0.1603 -0.0127 -0.0533
 1038YOPC   C4A14610  14.586   6.859   7.795  0.1731  0.2183  0.1666
 1038YOPC   C1B14611  13.856   7.451   6.782 -0.1589  0.3749  0.2900
 1038YOPC   C2B14612  13.884   7.554   7.137 -0.0466 -0.1559  0.0789
 1038YOPC   D3B14613  14.258   7.766   7.215  0.0020 -0.2068  0.0625
 1038YOPC   C4B14614  14.511   8.019   7.489  0.2954 -0.2674  0.1458
 1039YOPC   NC314615   7.642  14.816   5.822  0.0722 -0.0496 -0.1293
 1039YOPC   PO414616   7.236  15.039   5.945  0.2003 -0.1184 -0.2230
 1039YOPC   GL114617   7.328  15.377   6.292  0.2677  0.0186 -0.1250
 1039YOPC   GL214618   7.585  15.109   6.343 -0.1953 -0.1968 -0.2033
 1039YOPC   C1A14619   7.442  15.442   6.686 -0.0410 -0.4569 -0.0763
 1039YOPC   D2A14620   7.362  15.309   7.171 -0.0434 -0.2867 -0.1477
 1039YOPC   C3A14621   7.271  14.940   7.286 -0.1258 -0.0078  0.2678
 1039YOPC   C4A14622   7.068  14.550   7.403 -0.3240 -0.0178  0.1288
 1039YOPC   C1B14623   7.731  15.052   6.721  0.1212 -0.0598  0.0378
 1039YOPC   C2B14624   7.757  14.857   7.021 -0.1055  0.0125  0.1946
 1039YOPC   D3B14625   7.527  14.403   7.151  0.1770 -0.0225 -0.3882
 1039YOPC   C4B14626   7.525  14.229   7.621 -0.3826 -0.1406  0.1203
 1040YOPC   NC314627   7.740  13.026   5.956 -0.0149 -0.1366 -0.0891
 1040YOPC   PO414628   7.708  12.531   5.992  0.0012  0.2944 -0.0577
 1040YOPC   GL114629   7.468  12.686   6.240 -0.0527 -0.4761 -0.2451
 1040YOPC   GL214630   7.261  12.448   6.249 -0.1652 -0.1833  0.0223
 1040YOPC   C1A14631   7.483  12.942   6.621  0.1555  0.2384 -0.1613
 1040YOPC   D2A14632   7.438  13.235   6.924  0.0026 -0.2494  0.0343
 1040YOPC   C3A14633   7.178  12.925   7.197 -0.0238 -0.1403 -0.1396
 1040YOPC   C4A14634   6.747  12.871   6.986  0.1501 -0.1597 -0.1263
 1040YOPC   C1B14635   7.081  12.650   6.654  0.1064 -0.2691 -0.3363
 1040YOPC   C2B14636   7.069  12.453   6.985 -0.3930  0.2286  0.1159
 1040YOPC   D3B14637   7.157  12.519   7.365  0.3973 -0.0188 -0.3368
 1040YOPC   C4B14638   7.353  12.790   7.677 -0.2011 -0.1470  0.1223
 1041YOPC   NC314639   7.458   7.008   5.848  0.0040  0.2759 -0.1745
 1041YOPC   PO414640   7.730   6.622   6.109 -0.1174 -0.1165 -0.0738
 1041YOPC   GL114641   7.443   6.450   6.430 -0.1700 -0.0972 -0.3175
 1041YOPC   GL214642   7.116   6.567   6.494 -0.0559  0.3620  0.0907
 1041YOPC   C1A14643   7.364   6.545   6.924 -0.0159 -0.0743  0.2514
 1041YOPC   D2A14644   7.105   6.769   7.141  0.3891 -0.1132 -0.1311
 1041YOPC   C3A14645   6.941   6.530   7.405  0.0718  0.0522 -0.3937
 1041YOPC   C4A14646   6.630   6.432   7.561 -0.0261 -0.1261  0.0411
 1041YOPC   C1B14647   6.885   6.415   6.909  0.0340 -0.1557  0.0430
 1041YOPC   C2B14648   6.578   6.186   7.077 -0.0380 -0.4036  0.0271
 1041YOPC   D3B14649   6.717   5.957   7.384 -0.1717 -0.1389  0.1055
 1041YOPC   C4B14650   6.701   5.499   7.633  0.0605 -0.1780  0.1548
 1042YOPC   NC314651  16.481  11.278   4.977  0.3328 -0.2708  0.0387
 1042YOPC   PO414652  16.341  11.050   5.353 -0.2938 -0.1937  0.0013
 1042YOPC   GL114653  16.574  11.109   5.753  0.3149  0.0749 -0.1185
 1042YOPC   GL214654  16.856  11.129   5.874 -0.1382  0.0545  0.1835
 1042YOPC   C1A14655  16.594  11.049   6.253 -0.1291  0.1934 -0.1765
 1042YOPC   D2A14656  16.513  11.042   6.800  0.2714 -0.1315 -0.0536
 1042YOPC   C3A14657  16.766  10.776   7.051 -0.0785 -0.2221  0.1043
 1042YOPC   C4A14658  17.059  10.403   7.369 -0.0648  0.0724  0.0702
 1042YOPC   C1B14659  16.844  11.562   5.994  0.0888  0.0520 -0.4315
 1042YOPC   C2B14660  17.021  11.993   6.134  0.2008  0.0568 -0.0996
 1042YOPC   D3B14661  16.823  12.280   5.935 -0.2368  0.0117  0.3053
 1042YOPC   C4B14662  16.794  12.635   5.969 -0.3091 -0.0556  0.3984
 1043YOPC   NC314663   9.003  14.296   6.235  0.0664 -0.0980  0.5843
 1043YOPC   PO414664   9.320  14.576   6.056  0.1157  0.0267 -0.0864
 1043YOPC   GL114665   9.555  14.683   6.435  0.4893 -0.1903  0.0428
 1043YOPC   GL214666   9.580  14.362   6.576 -0.1210  0.0105 -0.0284
 1043YOPC   C1A14667   9.574  14.766   6.913  0.1832 -0.2079  0.0149
 1043YOPC   D2A14668   9.716  15.137   7.226 -0.2525  0.1804 -0.0622
 1043YOPC   C3A14669   9.901  14.931   7.521 -0.0375  0.1312 -0.4350
 1043YOPC   C4A14670   9.904  14.480   7.871  0.0702 -0.0824 -0.0086
 1043YOPC   C1B14671   9.583  14.227   7.009 -0.0809  0.0663  0.0291
 1043YOPC   C2B14672   9.745  14.375   7.398  0.2363 -0.1467 -0.1786
 1043YOPC   D3B14673   9.484  14.224   7.726  0.0857 -0.0761  0.1832
 1043YOPC   C4B14674   9.713  13.946   7.861 -0.1058 -0.2195  0.0468
 1044YOPC   NC314675   5.176  17.617   6.027  0.0400  0.2909  0.2115
 1044YOPC   PO414676   5.463  17.297   5.931  0.0877 -0.0960 -0.0979
 1044YOPC   GL114677   5.514  17.475   6.361  0.0977  0.1562 -0.1462
 1044YOPC   GL214678   5.790  17.432   6.483 -0.0333  0.0490 -0.3079
 1044YOPC   C1A14679   5.531  17.929   6.399 -0.0021  0.0699  0.0362
 1044YOPC   D2A14680   5.545  17.878   6.890  0.0571  0.2813 -0.0126
 1044YOPC   C3A14681   5.470  17.984   7.279 -0.3590  0.2021 -0.0929
 1044YOPC   C4A14682   5.511  18.157   7.674 -0.2772  0.1473 -0.0686
 1044YOPC   C1B14683   5.769  17.473   6.980 -0.2079  0.2448  0.3659
 1044YOPC   C2B14684   5.667  17.441   7.409  0.1990 -0.0632 -0.1234
 1044YOPC   D3B14685   5.821  17.797   7.696  0.1630 -0.0484  0.0623
 1044YOPC   C4B14686   6.061  18.111   7.937  0.1179  0.2165 -0.1854
 1045YOPC   NC314687  10.745  11.361   5.754 -0.1215  0.0444 -0.0755
 1045YOPC   PO414688  10.512  11.672   5.782  0.0214  0.2012  0.1098
 1045YOPC   GL114689  10.120  11.592   6.127 -0.1604 -0.0134  0.0720
 1045YOPC   GL214690   9.872  11.750   6.392 -0.0481  0.2487 -0.0719
 1045YOPC   C1A14691  10.334  11.637   6.547  0.0360  0.2211  0.0740
 1045YOPC   D2A14692  10.194  11.760   7.042 -0.1038  0.3622 -0.1250
 1045YOPC   C3A14693  10.472  12.142   7.219  0.0843  0.0659 -0.2607
 1045YOPC   C4A14694  10.736  12.498   7.027  0.0675 -0.0937  0.1253
 1045YOPC   C1B14695  10.053  12.098   6.748 -0.0177 -0.2878  0.4151
 1045YOPC   C2B14696   9.865  12.288   7.064 -0.1555  0.0981 -0.0834
 1045YOPC   D3B14697  10.035  12.301   7.439 -0.2728 -0.1107 -0.0255
 1045YOPC   C4B14698   9.989  11.970   7.771  0.0233  0.0337  0.0837
 1046YOPC   NC314699  13.544   8.939   5.577 -0.2602 -0.2784  0.0706
 1046YOPC   PO414700  13.574   8.797   5.981  0.1013  0.3010  0.1840
 1046YOPC   GL114701  13.478   8.599   6.393  0.1101 -0.1374  0.1638
 1046YOPC   GL214702  13.348   8.290   6.485 -0.3214  0.0014  0.0200
 1046YOPC   C1A14703  13.702   8.455   6.769  0.3857  0.1585 -0.0312
 1046YOPC   D2A14704  13.730   8.733   7.163  0.1244 -0.0315 -0.0883
 1046YOPC   C3A14705  13.694   8.603   7.591  0.0775  0.0992 -0.0907
 1046YOPC   C4A14706  13.778   8.335   7.900 -0.2151  0.3028 -0.3020
 1046YOPC   C1B14707  13.101   8.383   6.729 -0.2679  0.1169 -0.4763
 1046YOPC   C2B14708  12.849   8.852   6.816  0.1673 -0.0075  0.2290
 1046YOPC   D3B14709  12.806   9.120   7.237  0.1979  0.1959 -0.0152
 1046YOPC   C4B14710  12.762   9.523   7.481 -0.1993 -0.1150  0.0785
 1047YOPC   NC314711  10.962  12.216   6.051  0.2710  0.0815  0.1263
 1047YOPC   PO414712  10.736  12.676   6.022 -0.1277 -0.2757 -0.1125
 1047YOPC   GL114713  10.682  12.467   6.343 -0.0394  0.0447  0.2276
 1047YOPC   GL214714  10.934  12.461   6.607 -0.0375 -0.0386 -0.2031
 1047YOPC   C1A14715  10.519  12.080   6.638  0.1883 -0.0317 -0.1926
 1047YOPC   D2A14716  10.668  11.735   6.870 -0.2878 -0.0412 -0.0843
 1047YOPC   C3A14717  10.771  11.743   7.257  0.4030 -0.0224 -0.2481
 1047YOPC   C4A14718  11.022  11.836   7.686 -0.2013  0.1151 -0.0581
 1047YOPC   C1B14719  10.819  12.858   6.672  0.0408  0.0889 -0.1947
 1047YOPC   C2B14720  10.366  13.032   6.911  0.1378  0.3813  0.0600
 1047YOPC   D3B14721  10.597  13.136   7.377  0.1063 -0.2168  0.1136
 1047YOPC   C4B14722  10.291  13.101   7.683  0.4032 -0.0048  0.1089
 1048YOPC   NC314723  15.935   7.575   5.576  0.0865  0.1406 -0.2082
 1048YOPC   PO414724  15.528   7.531   5.559 -0.1914  0.0109 -0.0286
 1048YOPC   GL114725  15.643   7.493   6.025 -0.2362  0.0725  0.2420
 1048YOPC   GL214726  15.853   7.277   5.941  0.0383  0.1106  0.0563
 1048YOPC   C1A14727  15.561   7.298   6.390  0.1480  0.3152 -0.4436
 1048YOPC   D2A14728  15.538   7.482   6.808 -0.0949  0.1696 -0.0166
 1048YOPC   C3A14729  15.802   7.716   6.980 -0.2249 -0.0583  0.2219
 1048YOPC   C4A14730  16.015   8.044   7.129  0.1851  0.2786 -0.0475
 1048YOPC   C1B14731  15.635   6.876   5.985  0.3180 -0.2040  0.0361
 1048YOPC   C2B14732  15.622   6.398   6.000 -0.0194  0.4364  0.0241
 1048YOPC   D3B14733  16.145   6.219   6.133  0.2926  0.0860  0.3282
 1048YOPC   C4B14734  16.396   6.064   6.360 -0.2962  0.0009 -0.2101
 1049YOPC   NC314735  10.381  14.683   6.319  0.3247  0.1075  0.1681
 1049YOPC   PO414736  10.648  14.481   6.347  0.1082 -0.1365 -0.3733
 1049YOPC   GL114737  10.537  14.557   6.727  0.3514  0.1361 -0.0047
 1049YOPC   GL214738  10.519  14.945   6.725 -0.1892 -0.0727  0.2850
 1049YOPC   C1A14739  10.638  14.423   7.103 -0.0144  0.1523  0.1109
 1049YOPC   D2A14740  10.778  14.350   7.495  0.2046 -0.0512 -0.2054
 1049YOPC   C3A14741  11.152  14.126   7.610  0.1588 -0.1131  0.0124
 1049YOPC   C4A14742  11.397  13.918   7.923 -0.3660 -0.2537 -0.1972
 1049YOPC   C1B14743  10.484  14.881   7.088 -0.2824  0.0322 -0.3101
 1049YOPC   C2B14744  10.757  14.922   7.486 -0.1365  0.2088  0.1886
 1049YOPC   D3B14745  10.484  15.086   7.787 -0.0846 -0.0173  0.3279
 1049YOPC   C4B14746  10.345  14.959   8.138 -0.0231  0.0423  0.5225
 1050YOPC   NC314747  17.814   9.491   5.024 -0.0226  0.1224  0.2385
 1050YOPC   PO414748  17.505   9.432   5.295  0.2583 -0.0557  0.1951
 1050YOPC   GL114749  17.422   9.317   5.710 -0.2814 -0.0546 -0.2527
 1050YOPC   GL214750  17.120   9.231   5.717 -0.2008 -0.0577  0.2045
 1050YOPC   C1A14751  17.354   9.081   6.147 -0.1100  0.0743 -0.1273
 1050YOPC   D2A14752  17.501   9.061   6.596 -0.4327  0.2965  0.0923
 1050YOPC   C3A14753  17.279   8.998   6.984 -0.0029  0.0628  0.1175
 1050YOPC   C4A14754  17.211   8.741   7.179 -0.0540 -0.2691  0.1934
 1050YOPC   C1B14755  16.760   9.324   6.030  0.0145  0.1821  0.0995
 1050YOPC   C2B14756  16.677   9.514   6.391 -0.2496 -0.2222  0.0622
 1050YOPC   D3B14757  16.223   9.531   6.464  0.3254  0.2365 -0.1480
 1050YOPC   C4B14758  15.955   9.478   6.897 -0.2743  0.2825  0.3723
 1051YOPC   NC314759   4.002   0.477   5.467 -0.0783  0.0199 -0.1910
 1051YOPC   PO414760   3.858   0.873   5.710 -0.1128  0.0441  0.0358
 1051YOPC   GL114761   4.264   0.864   6.006  0.1262  0.0111 -0.0365
 1051YOPC   GL214762   4.325   0.716   6.372 -0.1762 -0.0948 -0.2409
 1051YOPC   C1A14763   4.712   0.929   6.159 -0.0821  0.0916  0.0999
 1051YOPC   D2A14764   4.910   0.860   6.511 -0.0600  0.0337  0.0332
 1051YOPC   C3A14765   4.725   0.790   6.857 -0.0112  0.2086  0.2154
 1051YOPC   C4A14766   4.715   0.552   7.195  0.0933 -0.0331  0.1277
 1051YOPC   C1B14767   4.358   1.044   6.688 -0.0415 -0.1300  0.1664
 1051YOPC   C2B14768   4.085   1.152   6.924 -0.5420  0.2148 -0.0429
 1051YOPC   D3B14769   4.178   1.058   7.376  0.0440 -0.3438 -0.1171
 1051YOPC   C4B14770   4.169   0.913   7.839  0.2438 -0.0664 -0.2267
 1052YOPC   NC314771  16.685   4.219   5.544 -0.2383  0.1032 -0.2891
 1052YOPC   PO414772  17.020   4.095   5.544  0.0828  0.1800  0.0210
 1052YOPC   GL114773  17.150   4.230   5.982  0.1499 -0.2479  0.1046
 1052YOPC   GL214774  17.378   4.563   5.991 -0.2593  0.1245  0.2005
 1052YOPC   C1A14775  17.134   4.187   6.434  0.0045 -0.1376 -0.0179
 1052YOPC   D2A14776  16.952   3.918   6.683  0.0577 -0.2831  0.2691
 1052YOPC   C3A14777  17.173   3.588   6.839  0.0163  0.0215  0.1714
 1052YOPC   C4A14778  17.268   3.207   7.154 -0.1915 -0.0868  0.0905
 1052YOPC   C1B14779  17.475   4.750   6.422  0.0081  0.2404  0.1275
 1052YOPC   C2B14780  17.539   4.874   6.898 -0.1198  0.0165 -0.1534
 1052YOPC   D3B14781  17.971   5.146   7.004 -0.1177 -0.2268  0.0194
 1052YOPC   C4B14782  18.421   5.318   7.108 -0.1344  0.0595 -0.4083
 1053YOPC   NC314783   9.555  17.463   6.567 -0.1605  0.2231  0.1704
 1053YOPC   PO414784   9.407  17.784   6.208 -0.1755 -0.2351 -0.1532
 1053YOPC   GL114785   9.112  17.821   6.499 -0.4962  0.0175 -0.1411
 1053YOPC   GL214786   8.871  17.903   6.474 -0.1758  0.1288 -0.3379
 1053YOPC   C1A14787   9.238  17.953   6.870 -0.1188 -0.1116  0.0829
 1053YOPC   D2A14788   9.233  17.967   7.366  0.1224  0.0236  0.3719
 1053YOPC   C3A14789   9.150  18.181   7.678  0.0127 -0.2172 -0.3017
 1053YOPC   C4A14790   8.852  18.387   8.100  0.2152  0.0774  0.0077
 1053YOPC   C1B14791   8.763  17.889   6.879 -0.2550  0.2225  0.2340
 1053YOPC   C2B14792   8.594  17.840   7.275  0.1644  0.2542 -0.2138
 1053YOPC   D3B14793   8.929  17.554   7.513 -0.5108 -0.3485 -0.2461
 1053YOPC   C4B14794   9.347  17.259   7.549  0.0216 -0.2107 -0.0957
 1054YOPC   NC314795   4.450   4.091   5.822 -0.1776 -0.1426 -0.4257
 1054YOPC   PO414796   4.819   3.795   5.906 -0.3415  0.0004  0.0626
 1054YOPC   GL114797   4.678   3.907   6.263  0.0710  0.1709 -0.0465
 1054YOPC   GL214798   4.895   3.946   6.487  0.1193 -0.1707  0.1207
 1054YOPC   C1A14799   4.399   3.936   6.679  0.0116  0.0564  0.0650
 1054YOPC   D2A14800   4.305   4.041   7.103  0.0075 -0.0216  0.3420
 1054YOPC   C3A14801   4.001   3.678   7.301  0.5260  0.1675 -0.3165
 1054YOPC   C4A14802   3.870   3.208   7.220  0.0372 -0.1365  0.0584
 1054YOPC   C1B14803   4.860   3.807   6.845 -0.0264  0.1357  0.1265
 1054YOPC   C2B14804   4.813   3.841   7.291  0.0263  0.5060 -0.1523
 1054YOPC   D3B14805   4.636   4.100   7.668  0.1369  0.0258 -0.1260
 1054YOPC   C4B14806   4.534   3.868   8.010  0.0975  0.0136 -0.1591
 1055YOPC   NC314807  12.518   1.777   5.850  0.2513 -0.0813  0.0619
 1055YOPC   PO414808  12.838   1.495   5.763  0.3526 -0.1701  0.3020
 1055YOPC   GL114809  12.896   1.620   6.159  0.0245 -0.1160  0.0259
 1055YOPC   GL214810  12.636   1.736   6.443 -0.1545  0.2717 -0.2550
 1055YOPC   C1A14811  13.110   1.594   6.530  0.1474  0.1232  0.2880
 1055YOPC   D2A14812  13.204   1.264   6.794 -0.0817 -0.0207 -0.1208
 1055YOPC   C3A14813  13.132   1.233   7.255 -0.1048  0.3299  0.0686
 1055YOPC   C4A14814  13.242   1.215   7.595 -0.0786 -0.2331  0.0134
 1055YOPC   C1B14815  12.747   1.857   6.768 -0.1541  0.1078 -0.1089
 1055YOPC   C2B14816  13.024   1.701   7.062 -0.1359  0.2089 -0.0456
 1055YOPC   D3B14817  13.015   1.676   7.449 -0.0004 -0.1225  0.0526
 1055YOPC   C4B14818  12.880   1.541   7.876 -0.2014  0.2189 -0.1644
 1056YOPC   NC314819  16.692   6.734   5.338 -0.2064  0.1459 -0.2699
 1056YOPC   PO414820  17.015   6.606   5.609  0.1044  0.1148 -0.3568
 1056YOPC   GL114821  16.742   6.382   5.838 -0.0564  0.1233 -0.0802
 1056YOPC   GL214822  16.419   6.472   5.727 -0.0134 -0.1452 -0.3245
 1056YOPC   C1A14823  16.866   6.228   6.192  0.0772  0.2571 -0.2637
 1056YOPC   D2A14824  17.096   6.109   6.552  0.2572 -0.3900 -0.0264
 1056YOPC   C3A14825  17.345   6.377   6.766 -0.4340 -0.0552  0.4156
 1056YOPC   C4A14826  17.694   6.679   6.846 -0.0597 -0.0949  0.1144
 1056YOPC   C1B14827  16.149   6.783   5.883 -0.5287  0.2559 -0.0745
 1056YOPC   C2B14828  16.079   6.996   6.227  0.3015 -0.2929 -0.0356
 1056YOPC   D3B14829  16.046   6.639   6.524  0.0089 -0.0991 -0.0593
 1056YOPC   C4B14830  15.977   6.386   6.847 -0.0822 -0.1531  0.0625
 1057YOPC   NC314831   4.072   3.698   5.216 -0.2514  0.0374  0.5230
 1057YOPC   PO414832   4.039   3.783   5.713  0.0048  0.1509 -0.1091
 1057YOPC   GL114833   4.035   3.966   6.094 -0.2423  0.1056 -0.1668
 1057YOPC   GL214834   4.188   4.169   6.239  0.1182  0.1478 -0.3167
 1057YOPC   C1A14835   3.763   4.006   6.475  0.1941 -0.1025 -0.0463
 1057YOPC   D2A14836   3.450   3.895   6.709 -0.1258 -0.3371 -0.1391
 1057YOPC   C3A14837   3.557   3.547   6.986  0.4577  0.2978 -0.0752
 1057YOPC   C4A14838   3.572   3.472   7.535 -0.1050 -0.0251  0.0207
 1057YOPC   C1B14839   4.490   4.367   6.442 -0.0278  0.2216 -0.4355
 1057YOPC   C2B14840   4.627   4.600   6.743  0.0455  0.0279 -0.2931
 1057YOPC   D3B14841   4.708   4.358   7.096  0.2697  0.1560 -0.1186
 1057YOPC   C4B14842   4.368   4.436   7.383 -0.0942  0.0368 -0.2358
 1058YOPC   NC314843  11.954  13.351   5.979  0.0840  0.1625  0.0726
 1058YOPC   PO414844  12.278  13.677   6.090 -0.2740  0.1303 -0.2097
 1058YOPC   GL114845  12.506  13.480   6.488  0.1279 -0.0155 -0.4567
 1058YOPC   GL214846  12.186  13.446   6.741  0.1449  0.0738  0.4209
 1058YOPC   C1A14847  12.813  13.468   6.823 -0.2052 -0.0033  0.2227
 1058YOPC   D2A14848  12.936  13.416   7.253 -0.1355 -0.2030 -0.2399
 1058YOPC   C3A14849  13.005  13.068   7.538 -0.0520 -0.0619  0.0300
 1058YOPC   C4A14850  12.962  12.816   7.954 -0.3025 -0.0426  0.4606
 1058YOPC   C1B14851  12.357  13.644   7.056  0.0312  0.2683  0.1330
 1058YOPC   C2B14852  12.561  13.606   7.537 -0.0415 -0.2781  0.1205
 1058YOPC   D3B14853  12.945  13.581   7.780 -0.1358 -0.1789  0.1623
 1058YOPC   C4B14854  13.208  13.425   8.090 -0.2898 -0.1287 -0.1009
 1059YOPC   NC314855   4.408  18.080   5.854  0.2067 -0.0988  0.2878
 1059YOPC   PO414856   4.758  17.806   5.971  0.0478  0.1219 -0.1033
 1059YOPC   GL114857   4.590  17.927   6.308 -0.1456 -0.1189 -0.1480
 1059YOPC   GL214858   4.463  18.242   6.318 -0.2855  0.0646 -0.0008
 1059YOPC   C1A14859   4.340  17.929   6.694  0.0173  0.1805  0.2433
 1059YOPC   D2A14860   4.298  17.897   7.103  0.0991  0.0536  0.0247
 1059YOPC   C3A14861   4.533  18.093   7.519 -0.0353  0.2165 -0.1045
 1059YOPC   C4A14862   4.558  18.484   7.609  0.0244  0.0674 -0.1496
 1059YOPC   C1B14863   4.208  18.500   6.648  0.2070 -0.1325 -0.0993
 1059YOPC   C2B14864   3.950  18.839   6.607 -0.0874 -0.0527 -0.1134
 1059YOPC   D3B14865   3.791  18.814   7.060 -0.0290  0.0231 -0.4162
 1059YOPC   C4B14866   3.853  18.998   7.392  0.0676 -0.0075 -0.1320
 1060YOPC   NC314867  14.768   7.171   5.842 -0.0012 -0.2476  0.3933
 1060YOPC   PO414868  14.890   6.704   5.761  0.3081  0.3547 -0.0201
 1060YOPC   GL114869  15.012   6.587   6.155 -0.0394 -0.0830 -0.1722
 1060YOPC   GL214870  15.102   6.940   6.310 -0.1010 -0.1369  0.1014
 1060YOPC   C1A14871  14.826   6.648   6.609  0.1805 -0.2205 -0.2744
 1060YOPC   D2A14872  15.027   6.612   7.038  0.0801 -0.1513 -0.0792
 1060YOPC   C3A14873  15.390   6.666   7.159  0.3070  0.1327 -0.0883
 1060YOPC   C4A14874  15.798   6.677   7.310 -0.2384  0.1265  0.0090
 1060YOPC   C1B14875  15.199   7.069   6.732  0.0227 -0.1305  0.0176
 1060YOPC   C2B14876  15.160   7.206   7.206  0.2434 -0.1519  0.2188
 1060YOPC   D3B14877  15.375   7.619   7.353  0.1871  0.0324 -0.2192
 1060YOPC   C4B14878  15.334   7.761   7.739 -0.0581 -0.2721 -0.1613
 1061YOPC   NC314879  16.292  14.304   5.821  0.2770  0.1943 -0.2187
 1061YOPC   PO414880  15.830  14.496   5.848  0.0339 -0.1880  0.1122
 1061YOPC   GL114881  16.057  14.530   6.162 -0.1317 -0.2499  0.0774
 1061YOPC   GL214882  16.127  14.252   6.274 -0.3343  0.0517 -0.0576
 1061YOPC   C1A14883  16.004  14.699   6.543  0.0386 -0.0876 -0.3250
 1061YOPC   D2A14884  15.705  14.693   6.755 -0.4531  0.1998 -0.1667
 1061YOPC   C3A14885  15.722  14.413   7.109 -0.1502  0.1533  0.0953
 1061YOPC   C4A14886  15.612  13.951   7.294  0.1050 -0.2300 -0.0970
 1061YOPC   C1B14887  16.280  14.183   6.665  0.1388  0.2254  0.2873
 1061YOPC   C2B14888  16.363  13.818   6.839  0.1779 -0.2741 -0.2270
 1061YOPC   D3B14889  16.293  13.724   7.257  0.2045 -0.3428  0.0512
 1061YOPC   C4B14890  16.603  13.343   7.349 -0.0932 -0.0473  0.1351
 1062YOPC   NC314891   1.139   3.791   5.149 -0.0965 -0.1131  0.2321
 1062YOPC   PO414892   1.571   3.708   5.469  0.3382 -0.0220 -0.0597
 1062YOPC   GL114893   1.650   3.811   5.912 -0.2178  0.1466 -0.1171
 1062YOPC   GL214894   1.770   3.616   6.094  0.2033 -0.3454 -0.1640
 1062YOPC   C1A14895   1.768   3.925   6.476 -0.3464  0.3939 -0.0630
 1062YOPC   D2A14896   1.899   3.878   6.849 -0.0795 -0.2956 -0.1683
 1062YOPC   C3A14897   1.939   4.261   7.119  0.1434 -0.2343  0.3741
 1062YOPC   C4A14898   1.658   4.431   7.496 -0.0206  0.0690 -0.2137
 1062YOPC   C1B14899   1.955   3.450   6.460  0.2950  0.1107  0.3548
 1062YOPC   C2B14900   2.333   3.576   6.687 -0.0342  0.2127  0.1834
 1062YOPC   D3B14901   2.362   3.785   7.035  0.1636 -0.2060  0.3614
 1062YOPC   C4B14902   2.262   4.029   7.335  0.0171  0.0464 -0.2494
 1063YOPC   NC314903  11.777  12.595   6.147  0.1276 -0.2744  0.0306
 1063YOPC   PO414904  11.758  12.974   6.319  0.2600 -0.3082  0.1938
 1063YOPC   GL114905  11.609  12.694   6.781  0.1043 -0.0633  0.0529
 1063YOPC   GL214906  11.386  12.533   6.826 -0.1014  0.0970 -0.1051
 1063YOPC   C1A14907  11.702  12.619   7.256 -0.0911  0.4462  0.1406
 1063YOPC   D2A14908  11.935  12.943   7.594  0.0703  0.1169 -0.0685
 1063YOPC   C3A14909  11.895  12.951   8.127  0.3188 -0.1750 -0.0536
 1063YOPC   C4A14910  12.070  12.524   8.368  0.0138 -0.0013  0.1307
 1063YOPC   C1B14911  11.178  12.784   7.116  0.2066 -0.1217 -0.1263
 1063YOPC   C2B14912  10.934  12.745   7.429 -0.0906 -0.0824 -0.0846
 1063YOPC   D3B14913  10.789  12.299   7.488  0.2451  0.1469 -0.0442
 1063YOPC   C4B14914  10.550  12.108   7.788 -0.0682 -0.1523  0.0684
 1064YOPC   NC314915   1.954   5.435   5.123 -0.2033 -0.0572  0.0868
 1064YOPC   PO414916   2.032   5.836   5.478  0.3057  0.0000 -0.2687
 1064YOPC   GL114917   2.271   5.671   5.875 -0.3107  0.0628 -0.1543
 1064YOPC   GL214918   2.350   5.948   6.044  0.1692 -0.0849  0.1401
 1064YOPC   C1A14919   2.579   5.527   6.218 -0.0347  0.3814 -0.1939
 1064YOPC   D2A14920   2.563   5.531   6.726  0.1680 -0.1627 -0.1966
 1064YOPC   C3A14921   2.419   5.457   7.161  0.0441 -0.1513 -0.0282
 1064YOPC   C4A14922   1.999   5.430   7.454  0.3030 -0.2393  0.0578
 1064YOPC   C1B14923   2.255   6.360   6.175  0.2161  0.2676  0.0237
 1064YOPC   C2B14924   2.027   6.688   6.105 -0.1216 -0.2174 -0.0714
 1064YOPC   D3B14925   1.994   7.000   6.413  0.3998  0.0745  0.2784
 1064YOPC   C4B14926   1.775   7.030   6.837  0.0496 -0.1466 -0.1258
 1065YOPC   NC314927  11.984   2.696   6.106  0.0153  0.1272 -0.1115
 1065YOPC   PO414928  11.677   3.046   6.138 -0.1996 -0.0711  0.2382
 1065YOPC   GL114929  11.876   2.971   6.557 -0.1985  0.0079 -0.1820
 1065YOPC   GL214930  12.133   3.081   6.416  0.0056 -0.1964 -0.2162
 1065YOPC   C1A14931  11.752   3.249   6.838 -0.4107  0.1110 -0.0438
 1065YOPC   D2A14932  11.722   3.409   7.215 -0.1040 -0.1252 -0.3292
 1065YOPC   C3A14933  11.466   3.100   7.412  0.1936 -0.0940  0.2382
 1065YOPC   C4A14934  11.378   2.868   7.844 -0.0172  0.0286  0.1953
 1065YOPC   C1B14935  12.484   3.025   6.691 -0.0552 -0.0340 -0.0208
 1065YOPC   C2B14936  12.820   3.244   7.006  0.1451  0.1999 -0.0995
 1065YOPC   D3B14937  13.057   2.960   7.148  0.1785 -0.0976  0.0771
 1065YOPC   C4B14938  12.866   2.681   7.498 -0.1397 -0.2063  0.1404
 1066YOPC   NC314939  12.554   0.378   6.056 -0.0613  0.0970 -0.2545
 1066YOPC   PO414940  12.548   0.783   5.987  0.1231 -0.1008  0.1255
 1066YOPC   GL114941  12.427   0.732   6.433 -0.0217  0.0641  0.0390
 1066YOPC   GL214942  12.653   0.455   6.542  0.1908  0.0753  0.0840
 1066YOPC   C1A14943  12.399   0.789   6.924  0.0517  0.2186 -0.3884
 1066YOPC   D2A14944  12.255   0.832   7.398 -0.0291  0.2339 -0.1140
 1066YOPC   C3A14945  11.875   0.819   7.513  0.0646 -0.1510 -0.0719
 1066YOPC   C4A14946  11.628   0.926   7.896  0.2232 -0.0899 -0.0216
 1066YOPC   C1B14947  12.644   0.304   7.018 -0.1628 -0.2004 -0.4311
 1066YOPC   C2B14948  12.634   0.317   7.384  0.3763  0.0898 -0.0854
 1066YOPC   D3B14949  12.801   0.173   7.733 -0.0625 -0.1352 -0.1528
 1066YOPC   C4B14950  12.807  -0.091   7.978  0.0407  0.3075  0.1840
 1067YOPC   NC314951   6.433  16.460   6.142 -0.0899  0.1110 -0.4514
 1067YOPC   PO414952   5.971  16.504   6.311 -0.2327 -0.0298 -0.0043
 1067YOPC   GL114953   5.826  16.136   6.489 -0.2123 -0.1298 -0.1170
 1067YOPC   GL214954   5.503  16.057   6.365  0.2372 -0.0865  0.2640
 1067YOPC   C1A14955   5.781  16.155   7.000  0.0148  0.1587  0.0640
 1067YOPC   D2A14956   5.876  16.528   7.146 -0.1981  0.0449  0.1880
 1067YOPC   C3A14957   6.166  16.645   6.955  0.0701 -0.0225 -0.3092
 1067YOPC   C4A14958   6.604  16.704   6.869 -0.2552 -0.1666  0.1045
 1067YOPC   C1B14959   5.437  16.432   6.634  0.0403 -0.0305 -0.2740
 1067YOPC   C2B14960   5.762  16.617   6.675 -0.0325  0.1997 -0.0743
 1067YOPC   D3B14961   5.755  16.971   6.931  0.2245  0.2782 -0.2432
 1067YOPC   C4B14962   5.991  17.078   7.260 -0.1103  0.0564  0.1227
 1068YOPC   NC314963  17.828  16.989   5.241  0.1321 -0.3198  0.2100
 1068YOPC   PO414964  17.571  16.997   5.545  0.0867 -0.2274 -0.2017
 1068YOPC   GL114965  17.710  17.288   5.839 -0.0136 -0.1972  0.0664
 1068YOPC   GL214966  18.005  17.330   5.871 -0.4585 -0.2848 -0.1587
 1068YOPC   C1A14967  17.665  17.507   6.235 -0.0349 -0.0207  0.1090
 1068YOPC   D2A14968  17.545  17.206   6.648 -0.0681 -0.1167  0.0673
 1068YOPC   C3A14969  17.295  17.190   7.097 -0.2542 -0.0590 -0.0186
 1068YOPC   C4A14970  17.462  17.086   7.554  0.2842  0.0019  0.2963
 1068YOPC   C1B14971  18.236  17.499   6.210  0.1596 -0.0301 -0.3844
 1068YOPC   C2B14972  18.442  17.575   6.551 -0.0186  0.1821  0.1571
 1068YOPC   D3B14973  18.872  17.660   6.647  0.0295 -0.0335 -0.0915
 1068YOPC   C4B14974  19.227  17.684   6.984 -0.1215  0.0001  0.1183
 1069YOPC   NC314975  14.982   4.805   5.389 -0.0539  0.2036 -0.0931
 1069YOPC   PO414976  15.325   4.589   5.467  0.1212  0.1750 -0.0254
 1069YOPC   GL114977  15.271   4.635   5.910 -0.2731 -0.0165 -0.1245
 1069YOPC   GL214978  15.042   4.793   5.881 -0.0945 -0.4366 -0.1783
 1069YOPC   C1A14979  15.399   4.537   6.320 -0.0126  0.3253  0.0655
 1069YOPC   D2A14980  15.560   4.313   6.729 -0.1308 -0.1323  0.2997
 1069YOPC   C3A14981  15.343   3.986   6.908  0.1348 -0.4016  0.0546
 1069YOPC   C4A14982  15.321   3.647   7.072 -0.0404  0.1312  0.1866
 1069YOPC   C1B14983  15.272   5.074   6.150 -0.0840 -0.0366  0.2156
 1069YOPC   C2B14984  15.376   5.134   6.495  0.5535 -0.1090  0.1996
 1069YOPC   D3B14985  15.397   4.758   6.764 -0.2308  0.1197 -0.2638
 1069YOPC   C4B14986  15.605   4.773   7.153 -0.1148 -0.2371 -0.0609
 1070YOPC   NC314987  11.919   8.915   6.367 -0.1412  0.1207  0.1020
 1070YOPC   PO414988  12.308   8.801   6.368 -0.0356 -0.3073  0.0391
 1070YOPC   GL114989  12.314   9.013   6.721 -0.1440  0.0665 -0.2103
 1070YOPC   GL214990  12.051   9.206   6.813  0.1573 -0.1372  0.1107
 1070YOPC   C1A14991  12.170   8.898   7.155 -0.1228 -0.2247  0.0381
 1070YOPC   D2A14992  12.014   8.850   7.492 -0.0928 -0.0427 -0.3012
 1070YOPC   C3A14993  11.849   9.252   7.663 -0.2453 -0.1478 -0.0343
 1070YOPC   C4A14994  12.023   9.361   8.076 -0.1207  0.0206  0.0185
 1070YOPC   C1B14995  12.233   9.438   7.248 -0.0297 -0.1582  0.3312
 1070YOPC   C2B14996  12.319   9.717   7.538  0.2265  0.2171  0.1530
 1070YOPC   D3B14997  12.131   9.798   7.869 -0.2750  0.0313  0.1166
 1070YOPC   C4B14998  12.060   9.816   8.324 -0.1717  0.1880  0.3089
 1071YOPC   NC314999   6.945  13.992   5.521  0.0304  0.0332  0.0752
 1071YOPC   PO415000   7.284  13.836   5.611 -0.0687 -0.0991  0.1547
 1071YOPC   GL115001   7.184  13.951   6.000  0.4086 -0.1453 -0.0791
 1071YOPC   GL215002   7.293  14.238   6.229 -0.2843  0.0635 -0.2046
 1071YOPC   C1A15003   7.002  13.738   6.311  0.1631  0.0015 -0.0700
 1071YOPC   D2A15004   6.708  13.699   6.620 -0.0681  0.1464 -0.0948
 1071YOPC   C3A15005   6.439  14.022   6.620 -0.1760  0.0866 -0.3198
 1071YOPC   C4A15006   6.151  14.072   6.920 -0.1120  0.1462  0.0187
 1071YOPC   C1B15007   7.302  14.069   6.594  0.0603 -0.0714  0.0013
 1071YOPC   C2B15008   7.730  14.022   6.824  0.2093  0.1534 -0.1670
 1071YOPC   D3B15009   7.839  13.596   6.780  0.3081 -0.0307 -0.0433
 1071YOPC   C4B15010   8.242  13.422   6.818  0.2436  0.1047 -0.1014
 1072YOPC   NC315011  13.068  17.383   5.794  0.2676  0.1597 -0.0318
 1072YOPC   PO415012  12.702  17.631   5.891  0.4688 -0.0173  0.0737
 1072YOPC   GL115013  12.455  17.657   6.310 -0.1775 -0.1471 -0.1640
 1072YOPC   GL215014  12.663  18.002   6.468  0.2130 -0.2199 -0.2669
 1072YOPC   C1A15015  12.679  17.576   6.710  0.0160 -0.2640 -0.0307
 1072YOPC   D2A15016  12.827  17.733   7.059 -0.2553 -0.0966 -0.2632
 1072YOPC   C3A15017  12.844  17.606   7.445  0.0931  0.3304  0.0104
 1072YOPC   C4A15018  12.507  17.507   7.802 -0.1477  0.0843  0.0391
 1072YOPC   C1B15019  12.694  18.274   6.756 -0.1376 -0.1878 -0.2134
 1072YOPC   C2B15020  12.718  18.322   7.234 -0.4094  0.0126  0.3167
 1072YOPC   D3B15021  12.973  18.277   7.428  0.0022  0.0560 -0.1962
 1072YOPC   C4B15022  13.238  18.210   7.911  0.0561  0.1904 -0.2047
 1073YOPC   NC315023  18.032  13.179   5.548  0.0186 -0.2373 -0.3939
 1073YOPC   PO415024  17.583  13.275   5.559 -0.0673  0.1234  0.0968
 1073YOPC   GL115025  17.460  12.942   5.854 -0.0249  0.0222 -0.2004
 1073YOPC   GL215026  17.736  12.721   5.986 -0.0567 -0.1112  0.0789
 1073YOPC   C1A15027  17.283  12.571   5.949  0.3568 -0.3352 -0.0083
 1073YOPC   D2A15028  17.079  12.525   6.405  0.0475  0.1176  0.1429
 1073YOPC   C3A15029  17.203  12.610   6.843 -0.1940 -0.1995  0.1439
 1073YOPC   C4A15030  17.079  12.563   7.167 -0.1872  0.1586  0.1842
 1073YOPC   C1B15031  17.601  12.502   6.388  0.3646 -0.0822  0.1947
 1073YOPC   C2B15032  17.665  12.248   6.721 -0.1513 -0.5138  0.1783
 1073YOPC   D3B15033  17.719  12.460   7.164  0.1296 -0.1485  0.2499
 1073YOPC   C4B15034  17.537  12.518   7.476 -0.1338  0.2594 -0.0422
 1074YOPC   NC315035  10.112  16.539   6.385 -0.0316  0.1520 -0.2411
 1074YOPC   PO415036  10.267  16.977   6.352 -0.1260  0.0352  0.1453
 1074YOPC   GL115037  10.393  17.179   6.629  0.0703  0.0456 -0.3200
 1074YOPC   GL215038  10.674  17.071   6.636  0.2366 -0.2292 -0.0783
 1074YOPC   C1A15039  10.500  17.465   6.878 -0.0092  0.2786  0.2608
 1074YOPC   D2A15040  10.811  17.813   7.080 -0.1870  0.0916  0.3595
 1074YOPC   C3A15041  10.926  17.825   7.539  0.1772  0.2556 -0.3581
 1074YOPC   C4A15042  10.631  17.804   7.904  0.0224 -0.3025  0.2396
 1074YOPC   C1B15043  10.619  16.931   7.027  0.2166 -0.2369 -0.0499
 1074YOPC   C2B15044  10.563  17.174   7.449  0.2752 -0.2319  0.0316
 1074YOPC   D3B15045  10.471  17.631   7.483  0.0312  0.0162  0.0901
 1074YOPC   C4B15046  10.535  18.104   7.400  0.0530  0.1946 -0.1392
 1075YOPC   NC315047  10.350  13.230   5.953 -0.0640 -0.1523  0.1252
 1075YOPC   PO415048   9.995  13.080   6.090  0.1853 -0.0368  0.1820
 1075YOPC   GL115049   9.881  13.074   6.429  0.1291 -0.3258  0.0413
 1075YOPC   GL215050   9.993  13.306   6.597 -0.0005  0.2986 -0.2214
 1075YOPC   C1A15051   9.814  12.855   6.869  0.0502 -0.1280 -0.1695
 1075YOPC   D2A15052   9.901  12.987   7.284 -0.1209 -0.0820  0.0452
 1075YOPC   C3A15053   9.951  12.739   7.710 -0.0882 -0.1866 -0.1843
 1075YOPC   C4A15054   9.972  12.461   7.997  0.1333 -0.0339 -0.2443
 1075YOPC   C1B15055   9.783  13.439   6.894 -0.4851  0.0540 -0.3970
 1075YOPC   C2B15056   9.541  13.748   7.086  0.1180  0.0385 -0.0789
 1075YOPC   D3B15057   9.476  13.686   7.482 -0.2365  0.1284 -0.2514
 1075YOPC   C4B15058   9.296  13.623   7.830 -0.1695  0.1941  0.1366
 1076YOPC   NC315059   7.647   2.139   5.884  0.1214  0.0362 -0.2060
 1076YOPC   PO415060   7.928   2.411   6.134 -0.2680  0.0010 -0.2341
 1076YOPC   GL115061   7.925   2.556   6.548  0.1384 -0.0237  0.1910
 1076YOPC   GL215062   8.154   2.589   6.714 -0.0316  0.2224  0.1228
 1076YOPC   C1A15063   7.615   2.639   6.878 -0.1743 -0.2804 -0.0721
 1076YOPC   D2A15064   7.569   2.467   7.352 -0.0045  0.1174 -0.0329
 1076YOPC   C3A15065   7.273   2.337   7.503  0.0144  0.0322  0.1383
 1076YOPC   C4A15066   7.133   2.283   7.892  0.3048  0.0301  0.0165
 1076YOPC   C1B15067   8.034   2.473   7.140 -0.0720  0.0761 -0.2731
 1076YOPC   C2B15068   7.944   2.790   7.546  0.2395 -0.3281  0.0889
 1076YOPC   D3B15069   7.966   2.766   7.948 -0.1474  0.2321 -0.2340
 1076YOPC   C4B15070   8.166   2.520   8.160 -0.2609 -0.1788 -0.0198
 1077YOPC   NC315071  13.753   4.742   6.053 -0.4245  0.2554 -0.0982
 1077YOPC   PO415072  13.879   4.243   6.151 -0.0635  0.2217 -0.0348
 1077YOPC   GL115073  13.945   4.408   6.505  0.4040 -0.1861  0.1565
 1077YOPC   GL215074  13.700   4.314   6.705  0.0303  0.2002 -0.3729
 1077YOPC   C1A15075  14.281   4.353   6.888 -0.0768  0.0976  0.4457
 1077YOPC   D2A15076  14.517   4.347   7.249  0.2747 -0.2057  0.2216
 1077YOPC   C3A15077  14.332   4.413   7.610  0.3576 -0.0424 -0.0927
 1077YOPC   C4A15078  14.155   4.429   8.000 -0.0633  0.0977 -0.1105
 1077YOPC   C1B15079  13.886   4.346   7.163  0.2539  0.1909  0.2201
 1077YOPC   C2B15080  13.800   4.190   7.604  0.1153 -0.4251  0.1297
 1077YOPC   D3B15081  13.661   3.826   7.584  0.0414 -0.0097  0.0838
 1077YOPC   C4B15082  13.736   3.378   7.569 -0.0011 -0.4141  0.2231
 1078YOPC   NC315083   8.854   0.479   5.799 -0.3258 -0.0232  0.1398
 1078YOPC   PO415084   8.713   0.100   5.874  0.5031 -0.0097  0.0727
 1078YOPC   GL115085   8.398   0.002   6.215 -0.0669  0.0361 -0.2769
 1078YOPC   GL215086   8.025  -0.154   6.269  0.2421 -0.3013  0.1273
 1078YOPC   C1A15087   8.516   0.203   6.610 -0.0888 -0.4124 -0.2402
 1078YOPC   D2A15088   8.700   0.259   6.961  0.0757  0.1053  0.0041
 1078YOPC   C3A15089   8.492   0.207   7.354 -0.2734  0.0864  0.1740
 1078YOPC   C4A15090   8.529   0.320   7.770 -0.4386 -0.0193  0.1536
 1078YOPC   C1B15091   7.851   0.023   6.720  0.1747 -0.0086  0.0355
 1078YOPC   C2B15092   8.138   0.092   6.970  0.2337  0.1436 -0.0006
 1078YOPC   D3B15093   8.004  -0.030   7.327  0.2204 -0.0559  0.0082
 1078YOPC   C4B15094   7.701   0.218   7.609  0.1984  0.0481  0.0530
 1079YOPC   NC315095   2.588   0.719   5.777  0.0199 -0.0906  0.2122
 1079YOPC   PO415096   2.958   0.536   5.562 -0.3005  0.0362  0.0592
 1079YOPC   GL115097   3.041   0.379   5.937  0.0388 -0.1534 -0.2770
 1079YOPC   GL215098   2.894   0.622   6.118  0.1452 -0.2528 -0.1312
 1079YOPC   C1A15099   2.864   0.143   6.295 -0.0866  0.1088 -0.1672
 1079YOPC   D2A15100   2.860   0.228   6.818 -0.1426  0.1228  0.1856
 1079YOPC   C3A15101   2.748  -0.154   7.046 -0.0828  0.2846  0.1025
 1079YOPC   C4A15102   2.411  -0.211   7.251 -0.3493 -0.2367  0.1425
 1079YOPC   C1B15103   3.078   0.591   6.500  0.0101 -0.2324  0.2055
 1079YOPC   C2B15104   3.394   0.553   6.830 -0.0089 -0.0229  0.1201
 1079YOPC   D3B15105   3.717   0.821   6.867  0.2861 -0.0507 -0.1523
 1079YOPC   C4B15106   3.705   1.099   7.203 -0.2334 -0.2438 -0.1033
 1080YOPC   NC315107   4.347   6.533   5.720 -0.1130 -0.0259 -0.3380
 1080YOPC   PO415108   4.096   6.684   5.822 -0.2608 -0.0995 -0.0684
 1080YOPC   GL115109   3.800   6.723   6.070 -0.0522  0.1678 -0.2580
 1080YOPC   GL215110   4.005   6.905   6.302  0.0712 -0.1455 -0.1381
 1080YOPC   C1A15111   3.515   6.794   6.370  0.0156  0.1486 -0.0754
 1080YOPC   D2A15112   3.439   6.675   6.768  0.0424  0.2179  0.1194
 1080YOPC   C3A15113   3.442   6.232   7.080  0.0975 -0.2398  0.0201
 1080YOPC   C4A15114   3.610   5.883   7.117  0.0376  0.1889  0.2310
 1080YOPC   C1B15115   3.895   6.974   6.796 -0.3350  0.1699 -0.2054
 1080YOPC   C2B15116   3.847   6.741   7.157 -0.3193  0.0211  0.1071
 1080YOPC   D3B15117   3.884   6.664   7.575 -0.0260 -0.1355 -0.0978
 1080YOPC   C4B15118   3.730   6.767   7.906  0.2061 -0.1693  0.0671
 1081YOPC   NC315119  17.323  15.934   5.497 -0.1358 -0.4017 -0.1528
 1081YOPC   PO415120  17.718  16.012   5.347  0.2872 -0.1523 -0.3046
 1081YOPC   GL115121  17.762  16.035   5.758  0.0695 -0.2773 -0.1988
 1081YOPC   GL215122  17.560  15.921   6.024  0.0066  0.1724 -0.0098
 1081YOPC   C1A15123  17.821  16.355   5.993 -0.2346  0.0307 -0.3463
 1081YOPC   D2A15124  17.694  16.739   6.043  0.1019 -0.4660  0.2733
 1081YOPC   C3A15125  17.883  17.048   6.317 -0.3654  0.1545 -0.1199
 1081YOPC   C4A15126  18.074  17.155   6.738  0.1503 -0.0394 -0.1272
 1081YOPC   C1B15127  17.663  15.722   6.475  0.2147 -0.0868 -0.2075
 1081YOPC   C2B15128  17.739  15.356   6.743  0.0131 -0.0126 -0.1227
 1081YOPC   D3B15129  17.813  15.349   7.132  0.0679  0.1047 -0.0679
 1081YOPC   C4B15130  17.699  15.632   7.517  0.0366 -0.1908  0.3036
 1082YOPC   NC315131   4.807   2.377   5.806 -0.2019 -0.0470  0.1002
 1082YOPC   PO415132   5.102   2.775   5.930 -0.0355  0.2115  0.0693
 1082YOPC   GL115133   4.973   2.907   6.307 -0.3482  0.2734 -0.5243
 1082YOPC   GL215134   4.826   2.673   6.350 -0.1947  0.2138 -0.2532
 1082YOPC   C1A15135   5.130   3.356   6.606  0.0102 -0.2497 -0.0316
 1082YOPC   D2A15136   5.380   3.775   6.619 -0.0595 -0.1705  0.1388
 1082YOPC   C3A15137   5.231   4.121   7.027 -0.0648  0.0840  0.3460
 1082YOPC   C4A15138   5.194   4.175   7.485 -0.0081 -0.0656  0.1375
 1082YOPC   C1B15139   5.065   2.472   6.682 -0.1392  0.2916 -0.0180
 1082YOPC   C2B15140   5.239   2.275   7.004 -0.1932  0.0668  0.1246
 1082YOPC   D3B15141   5.029   2.074   7.299 -0.0935  0.0250  0.6159
 1082YOPC   C4B15142   5.065   1.967   7.724 -0.1264 -0.3526 -0.1695
 1083YOPC   NC315143  16.654  17.955   5.577  0.1596 -0.0455 -0.0221
 1083YOPC   PO415144  17.069  18.066   5.508 -0.0536  0.0830 -0.0054
 1083YOPC   GL115145  17.192  18.070   5.953 -0.2986  0.1677  0.3515
 1083YOPC   GL215146  17.465  17.886   6.037 -0.0903 -0.1038  0.3369
 1083YOPC   C1A15147  17.134  18.207   6.285  0.1404  0.2380 -0.4975
 1083YOPC   D2A15148  17.099  18.336   6.702  0.2642  0.1165 -0.0736
 1083YOPC   C3A15149  17.224  18.754   6.857  0.1984  0.2301 -0.0399
 1083YOPC   C4A15150  17.004  19.177   6.680  0.2366  0.1324 -0.0320
 1083YOPC   C1B15151  17.460  17.853   6.511 -0.2355  0.0507 -0.1067
 1083YOPC   C2B15152  17.281  17.895   6.821  0.1555 -0.4663  0.1473
 1083YOPC   D3B15153  17.033  18.002   7.144  0.0688 -0.1630 -0.0548
 1083YOPC   C4B15154  16.889  18.049   7.598 -0.0085  0.1332 -0.4006
 1084YOPC   NC315155   2.321   1.903   5.861  0.1217  0.1924  0.2340
 1084YOPC   PO415156   2.016   1.472   5.844 -0.4248 -0.0265 -0.1791
 1084YOPC   GL115157   1.839   1.351   6.181 -0.0237 -0.2739 -0.4159
 1084YOPC   GL215158   1.595   1.102   6.185 -0.0542  0.2362  0.0952
 1084YOPC   C1A15159   1.879   1.403   6.623 -0.0540 -0.1880 -0.0073
 1084YOPC   D2A15160   1.972   1.033   6.885  0.0097 -0.3422 -0.0566
 1084YOPC   C3A15161   1.932   1.038   7.379  0.1462  0.0315  0.5118
 1084YOPC   C4A15162   2.091   1.371   7.606  0.2327 -0.0230  0.0254
 1084YOPC   C1B15163   1.490   0.779   6.480  0.0255 -0.1407  0.2394
 1084YOPC   C2B15164   1.476   0.575   6.833  0.0419 -0.0671  0.3941
 1084YOPC   D3B15165   1.555   0.789   7.118  0.0680 -0.1626  0.0185
 1084YOPC   C4B15166   1.217   0.763   7.499 -0.2239  0.1426 -0.1928
 1085YOPC   NC315167  14.974  13.254   5.478 -0.2474 -0.0053  0.2307
 1085YOPC   PO415168  14.929  12.798   5.566  0.1709 -0.1663 -0.0242
 1085YOPC   GL115169  15.044  12.837   6.100  0.0240  0.2342 -0.0592
 1085YOPC   GL215170  14.738  12.861   6.293 -0.1402 -0.0591  0.0344
 1085YOPC   C1A15171  15.331  12.831   6.467 -0.1469  0.0964  0.3136
 1085YOPC   D2A15172  15.476  12.557   6.792 -0.1165  0.1337 -0.3305
 1085YOPC   C3A15173  15.123  12.306   7.041  0.0789 -0.0492  0.1458
 1085YOPC   C4A15174  14.739  12.232   7.093  0.0641  0.0026 -0.1186
 1085YOPC   C1B15175  14.504  13.319   6.371 -0.1777  0.0285 -0.3020
 1085YOPC   C2B15176  14.529  13.524   6.670 -0.3648  0.0253  0.1008
 1085YOPC   D3B15177  14.481  13.465   7.205 -0.0512 -0.3302 -0.0219
 1085YOPC   C4B15178  14.553  13.652   7.553  0.0840  0.0177 -0.2490
 1086YOPC   NC315179  15.651   6.035   5.244  0.0730 -0.3362  0.0816
 1086YOPC   PO415180  15.255   5.856   5.298 -0.1633 -0.4013 -0.0191
 1086YOPC   GL115181  15.473   5.727   5.682 -0.2580  0.2039 -0.3185
 1086YOPC   GL215182  15.391   5.492   5.880  0.0260  0.1832  0.0526
 1086YOPC   C1A15183  15.805   5.874   6.060 -0.0457  0.2267 -0.2355
 1086YOPC   D2A15184  15.766   5.946   6.548  0.2480 -0.1294  0.0631
 1086YOPC   C3A15185  15.993   5.754   6.796  0.3168  0.2157  0.2591
 1086YOPC   C4A15186  16.179   6.054   7.137  0.3621 -0.1549  0.0163
 1086YOPC   C1B15187  15.378   5.689   6.252 -0.1426 -0.0130  0.0088
 1086YOPC   C2B15188  15.269   6.170   6.487 -0.2280 -0.1126  0.1978
 1086YOPC   D3B15189  15.295   6.130   6.942  0.4529 -0.2107 -0.3301
 1086YOPC   C4B15190  15.533   5.898   7.177 -0.0646 -0.0994 -0.0668
 1087YOPC   NC315191  13.801   7.135   5.541 -0.2152  0.2008 -0.2040
 1087YOPC   PO415192  13.560   6.859   5.919 -0.4476 -0.2113  0.0441
 1087YOPC   GL115193  13.416   6.756   6.342  0.1027 -0.1601 -0.0906
 1087YOPC   GL215194  13.326   6.446   6.342  0.2279  0.1392 -0.1609
 1087YOPC   C1A15195  13.259   6.798   6.766  0.0258 -0.0334  0.0255
 1087YOPC   D2A15196  13.269   6.881   7.196 -0.0191  0.0659 -0.4456
 1087YOPC   C3A15197  13.051   6.788   7.565  0.4941 -0.1093 -0.0231
 1087YOPC   C4A15198  12.941   6.585   7.996 -0.0415  0.1283  0.0505
 1087YOPC   C1B15199  13.589   6.446   6.689 -0.3173  0.1544 -0.2820
 1087YOPC   C2B15200  13.801   6.833   6.759 -0.0571  0.0474 -0.3452
 1087YOPC   D3B15201  14.176   7.038   6.692  0.0064 -0.0072  0.0436
 1087YOPC   C4B15202  14.598   7.065   6.771 -0.1950 -0.3017 -0.1187
 1088YOPC   NC315203  16.213   7.761   5.091  0.2151  0.1453 -0.0190
 1088YOPC   PO415204  16.390   7.715   5.438 -0.2171  0.1596  0.0892
 1088YOPC   GL115205  16.314   7.658   5.915  0.0181  0.4313 -0.0857
 1088YOPC   GL215206  16.480   7.464   6.017  0.1539  0.3415  0.1707
 1088YOPC   C1A15207  16.053   7.594   6.324 -0.3645 -0.0872 -0.0911
 1088YOPC   D2A15208  16.062   7.308   6.660 -0.0911  0.0941 -0.1368
 1088YOPC   C3A15209  15.709   7.026   6.903  0.1014 -0.1933 -0.2200
 1088YOPC   C4A15210  15.548   6.664   6.675 -0.0699  0.1347 -0.1109
 1088YOPC   C1B15211  16.472   7.293   6.433 -0.2549  0.0664 -0.1047
 1088YOPC   C2B15212  16.468   6.999   6.617  0.0244  0.1954 -0.0737
 1088YOPC   D3B15213  16.625   7.059   7.050  0.3818  0.2505  0.1340
 1088YOPC   C4B15214  16.624   7.256   7.292  0.0381  0.2085 -0.1428
 1089YOPC   NC315215   4.369  11.563   4.882  0.1513  0.0490  0.2612
 1089YOPC   PO415216   4.446  11.831   5.132 -0.6007  0.3174 -0.0487
 1089YOPC   GL115217   4.454  11.776   5.636 -0.0263  0.1066  0.0530
 1089YOPC   GL215218   4.178  11.490   5.700  0.2090  0.0040 -0.1583
 1089YOPC   C1A15219   4.503  11.959   6.008 -0.1393  0.1990  0.1007
 1089YOPC   D2A15220   4.443  11.765   6.447 -0.5211  0.1057 -0.1201
 1089YOPC   C3A15221   4.548  11.514   6.786  0.0621 -0.1469 -0.1378
 1089YOPC   C4A15222   4.689  11.637   7.251 -0.2292 -0.1571 -0.0428
 1089YOPC   C1B15223   4.247  11.163   5.934 -0.3552  0.1116  0.1084
 1089YOPC   C2B15224   4.070  10.831   6.286  0.2039 -0.0385  0.0455
 1089YOPC   D3B15225   4.019  10.782   6.694  0.1438 -0.0547 -0.1304
 1089YOPC   C4B15226   3.702  10.941   7.082  0.1959 -0.2725  0.0929
 1090YOPC   NC315227   2.473  17.065   5.378  0.3044  0.0634 -0.1634
 1090YOPC   PO415228   2.593  16.659   5.364  0.1643  0.0347 -0.0918
 1090YOPC   GL115229   2.529  16.414   5.738  0.0076 -0.2514  0.3387
 1090YOPC   GL215230   2.245  16.384   6.017 -0.0851 -0.0732 -0.3983
 1090YOPC   C1A15231   2.680  16.527   6.110 -0.0306  0.3038  0.0413
 1090YOPC   D2A15232   2.934  16.731   6.321 -0.0103 -0.3162  0.0145
 1090YOPC   C3A15233   2.972  16.777   6.668 -0.3149 -0.0994 -0.1184
 1090YOPC   C4A15234   3.096  17.169   6.787 -0.0283  0.3560  0.0889
 1090YOPC   C1B15235   2.352  16.313   6.497 -0.0209  0.1595  0.4418
 1090YOPC   C2B15236   2.433  16.058   6.774 -0.1617  0.3268  0.1539
 1090YOPC   D3B15237   2.505  16.277   7.207  0.3905 -0.2791  0.1865
 1090YOPC   C4B15238   2.378  16.499   7.592 -0.0340  0.1112 -0.0390
 1091YOPC   NC315239   0.172  14.986   5.533  0.2242  0.3434 -0.0641
 1091YOPC   PO415240  -0.180  14.795   5.499 -0.1334 -0.1758  0.0566
 1091YOPC   GL115241  -0.088  14.665   5.899  0.0534 -0.0168  0.0417
 1091YOPC   GL215242  -0.349  14.853   6.045 -0.2983  0.0764  0.1456
 1091YOPC   C1A15243   0.106  14.379   6.071 -0.2104  0.0493 -0.0720
 1091YOPC   D2A15244   0.348  14.182   6.378  0.0234  0.1236 -0.0904
 1091YOPC   C3A15245   0.091  14.130   6.746  0.0072  0.0617  0.3687
 1091YOPC   C4A15246   0.151  14.118   7.133 -0.3046 -0.3001 -0.0837
 1091YOPC   C1B15247  -0.392  15.006   6.413 -0.0780  0.2008  0.0616
 1091YOPC   C2B15248  -0.607  14.912   6.863 -0.1178  0.1918 -0.0355
 1091YOPC   D3B15249  -0.453  14.809   7.167  0.0641  0.1398  0.1846
 1091YOPC   C4B15250  -0.110  14.902   7.434  0.0355  0.2381 -0.1009
 1092YOPC   NC315251  16.315   2.985   5.152 -0.0601  0.0060 -0.1588
 1092YOPC   PO415252  16.382   2.954   5.584 -0.0297 -0.1235  0.0657
 1092YOPC   GL115253  16.305   2.800   5.982 -0.0368 -0.1725  0.0799
 1092YOPC   GL215254  16.519   2.740   6.166 -0.1705 -0.1910 -0.0580
 1092YOPC   C1A15255  16.163   2.759   6.440  0.1761 -0.2895 -0.4525
 1092YOPC   D2A15256  16.160   2.760   6.910  0.1765  0.1396  0.0951
 1092YOPC   C3A15257  16.380   3.024   7.183  0.2547 -0.0505  0.1762
 1092YOPC   C4A15258  16.412   3.230   7.520 -0.2069 -0.1077  0.1786
 1092YOPC   C1B15259  16.792   3.159   6.286 -0.1277  0.1591  0.1643
 1092YOPC   C2B15260  16.794   3.448   6.587 -0.3817 -0.1951 -0.0395
 1092YOPC   D3B15261  16.754   3.355   7.079  0.3708  0.1158  0.0008
 1092YOPC   C4B15262  16.942   3.359   7.461  0.2697  0.4891  0.1655
 1093YOPC   NC315263   6.913   9.162   4.912  0.0627 -0.2391 -0.0022
 1093YOPC   PO415264   6.986   8.955   5.405  0.1807 -0.0440  0.0436
 1093YOPC   GL115265   6.931   8.937   5.917 -0.1151  0.2861  0.0093
 1093YOPC   GL215266   6.773   8.689   6.160  0.0347 -0.2387 -0.2481
 1093YOPC   C1A15267   7.102   9.071   6.270 -0.3095  0.1016 -0.2582
 1093YOPC   D2A15268   7.058   9.165   6.783 -0.0257 -0.2106  0.0281
 1093YOPC   C3A15269   7.429   9.151   7.161  0.0911 -0.2161  0.0855
 1093YOPC   C4A15270   7.692   8.852   7.491 -0.0549 -0.1202  0.2829
 1093YOPC   C1B15271   6.829   8.706   6.615 -0.2320 -0.2502 -0.1243
 1093YOPC   C2B15272   6.782   8.818   7.046  0.0498 -0.0788 -0.3519
 1093YOPC   D3B15273   7.040   9.000   7.397  0.0585  0.4078 -0.0701
 1093YOPC   C4B15274   7.314   8.887   7.838 -0.0091  0.0042 -0.0018
 1094YOPC   NC315275   6.640   3.980   5.853 -0.1726  0.3579 -0.1721
 1094YOPC   PO415276   6.776   4.263   6.034 -0.2272 -0.1138 -0.1755
 1094YOPC   GL115277   6.961   4.486   6.286  0.0703 -0.0386  0.0839
 1094YOPC   GL215278   6.794   4.647   6.355  0.1090 -0.1432  0.1182
 1094YOPC   C1A15279   7.132   4.571   6.687 -0.1324  0.0426  0.1039
 1094YOPC   D2A15280   7.053   4.586   7.117  0.0471 -0.0133 -0.0469
 1094YOPC   C3A15281   6.918   4.830   7.377 -0.0082  0.1207  0.0500
 1094YOPC   C4A15282   6.705   5.017   7.900  0.0508 -0.3427 -0.0503
 1094YOPC   C1B15283   6.521   4.349   6.618  0.4085 -0.1367 -0.3119
 1094YOPC   C2B15284   6.143   4.235   6.612 -0.0314  0.4180 -0.0966
 1094YOPC   D3B15285   6.049   4.165   7.050  0.0172  0.3839 -0.1535
 1094YOPC   C4B15286   5.631   4.484   7.183  0.0413  0.0144  0.1993
 1095YOPC   NC315287   3.488   5.413   5.666 -0.1447  0.0923  0.1926
 1095YOPC   PO415288   3.805   5.314   5.878  0.0404  0.0280 -0.0012
 1095YOPC   GL115289   3.493   5.295   6.182  0.0007  0.1130  0.1300
 1095YOPC   GL215290   3.198   5.368   6.059  0.1436  0.1030 -0.1092
 1095YOPC   C1A15291   3.386   5.195   6.596 -0.1511  0.1155  0.2039
 1095YOPC   D2A15292   3.231   5.139   6.954 -0.0569  0.1119 -0.1671
 1095YOPC   C3A15293   3.150   5.522   7.270 -0.3050  0.0929 -0.4378
 1095YOPC   C4A15294   2.820   5.603   7.531  0.3741  0.4049 -0.1899
 1095YOPC   C1B15295   3.017   5.820   6.316 -0.3233  0.3028 -0.0917
 1095YOPC   C2B15296   2.590   6.051   6.553 -0.0445 -0.1968 -0.1824
 1095YOPC   D3B15297   2.111   5.873   6.482  0.1295 -0.1198 -0.6568
 1095YOPC   C4B15298   1.983   5.564   6.248 -0.0690 -0.3117  0.1790
 1096YOPC   NC315299   5.696   9.020   5.617 -0.0004 -0.1948  0.1442
 1096YOPC   PO415300   6.150   8.775   5.513 -0.0196 -0.1962  0.0394
 1096YOPC   GL115301   6.064   9.131   5.892  0.2777  0.0375 -0.2484
 1096YOPC   GL215302   6.057   9.492   6.048  0.0781  0.1632 -0.3527
 1096YOPC   C1A15303   5.623   9.202   6.283  0.1839  0.0212 -0.0335
 1096YOPC   D2A15304   5.597   9.243   6.650  0.2590 -0.3820 -0.0807
 1096YOPC   C3A15305   5.229   9.316   6.936  0.2246 -0.0234  0.0446
 1096YOPC   C4A15306   4.868   9.152   7.119 -0.0042 -0.2274 -0.0444
 1096YOPC   C1B15307   6.058   9.330   6.494  0.0822  0.0040  0.1719
 1096YOPC   C2B15308   5.988   9.251   6.965  0.0549  0.0174  0.1880
 1096YOPC   D3B15309   5.605   9.025   7.129  0.2382  0.0104  0.0080
 1096YOPC   C4B15310   5.280   9.126   7.456  0.0349 -0.2530  0.2555
 1097YOPC   NC315311   9.955  11.491   5.535 -0.0300 -0.0165 -0.3916
 1097YOPC   PO415312   9.689  11.305   5.896 -0.2739  0.0713  0.2847
 1097YOPC   GL115313   9.566  11.369   6.294  0.0006 -0.1285  0.1544
 1097YOPC   GL215314   9.754  11.207   6.493  0.0987 -0.1049  0.0901
 1097YOPC   C1A15315   9.337  11.763   6.565 -0.0622  0.0185  0.0276
 1097YOPC   D2A15316   9.549  11.981   6.847  0.0295 -0.3614 -0.1473
 1097YOPC   C3A15317   9.758  11.870   7.324  0.3932  0.1626  0.1245
 1097YOPC   C4A15318   9.652  11.615   7.643 -0.1642  0.1085 -0.2364
 1097YOPC   C1B15319   9.762  11.538   6.837  0.2989 -0.1618  0.1576
 1097YOPC   C2B15320   9.867  11.419   7.233 -0.0065  0.1727  0.0351
 1097YOPC   D3B15321   9.630  11.187   7.393 -0.4374  0.0035 -0.4996
 1097YOPC   C4B15322   9.490  10.681   7.370 -0.0047  0.0632 -0.0476
 1098YOPC   NC315323   3.051   1.565   6.140 -0.0546  0.1285 -0.2177
 1098YOPC   PO415324   3.150   1.966   6.287  0.0727  0.0835  0.1264
 1098YOPC   GL115325   3.290   2.234   6.635  0.1301 -0.1394  0.1318
 1098YOPC   GL215326   3.514   2.476   6.477  0.0445  0.0380 -0.0736
 1098YOPC   C1A15327   3.333   2.104   7.121 -0.4020  0.0619 -0.0069
 1098YOPC   D2A15328   3.118   1.762   7.404 -0.0626 -0.2363  0.2295
 1098YOPC   C3A15329   2.825   1.772   7.670  0.1457 -0.1226 -0.0197
 1098YOPC   C4A15330   2.611   1.544   7.902 -0.1192  0.1029 -0.3209
 1098YOPC   C1B15331   3.627   2.459   6.881  0.1252  0.0747 -0.2440
 1098YOPC   C2B15332   3.705   2.622   7.221  0.0621  0.0695  0.2957
 1098YOPC   D3B15333   3.668   2.388   7.604  0.0173 -0.0673 -0.1944
 1098YOPC   C4B15334   3.618   2.217   7.969  0.1675 -0.1381  0.0344
 1099YOPC   NC315335  13.832  15.008   5.767 -0.0199 -0.1560  0.1453
 1099YOPC   PO415336  13.808  14.609   5.847  0.0573  0.3511  0.1984
 1099YOPC   GL115337  13.606  14.748   6.254 -0.0594 -0.1796 -0.0510
 1099YOPC   GL215338  13.512  15.069   6.239  0.3517 -0.2164 -0.3177
 1099YOPC   C1A15339  13.734  14.954   6.671 -0.1368  0.2409  0.2281
 1099YOPC   D2A15340  13.924  15.099   7.043  0.0437 -0.2877 -0.1016
 1099YOPC   C3A15341  14.139  14.697   7.160 -0.1411 -0.0358 -0.0292
 1099YOPC   C4A15342  14.051  14.235   7.120 -0.0228  0.1373  0.0285
 1099YOPC   C1B15343  13.801  15.410   6.298 -0.1271 -0.0943 -0.1024
 1099YOPC   C2B15344  14.011  15.499   6.673  0.1576 -0.2920 -0.0517
 1099YOPC   D3B15345  14.425  15.462   6.839  0.1325  0.1440  0.3227
 1099YOPC   C4B15346  14.892  15.676   6.826 -0.0345  0.1220 -0.3141
 1100YOPC   NC315347  17.610   7.660   5.224 -0.2214 -0.0105 -0.1377
 1100YOPC   PO415348  17.185   7.614   5.454  0.2955  0.0767 -0.0400
 1100YOPC   GL115349  17.210   7.481   5.920 -0.0119 -0.3116  0.0408
 1100YOPC   GL215350  16.990   7.503   6.086  0.3987  0.0098 -0.2278
 1100YOPC   C1A15351  17.319   7.208   6.328  0.1018 -0.0548 -0.1134
 1100YOPC   D2A15352  17.328   6.778   6.492 -0.0299 -0.0179 -0.0978
 1100YOPC   C3A15353  16.973   6.583   6.509  0.3492  0.1035 -0.1016
 1100YOPC   C4A15354  16.930   6.690   6.916 -0.2650 -0.0020  0.2995
 1100YOPC   C1B15355  17.070   7.597   6.514  0.0538  0.1465 -0.1270
 1100YOPC   C2B15356  17.197   7.848   6.864 -0.1963 -0.2839  0.1504
 1100YOPC   D3B15357  17.048   8.237   6.999 -0.0193  0.1817 -0.0686
 1100YOPC   C4B15358  16.823   8.530   6.756  0.0127  0.1193 -0.2604
 1101YOPC   NC315359  10.050   2.830   6.186 -0.0413 -0.0396 -0.1258
 1101YOPC   PO415360  10.285   3.129   6.488 -0.0302  0.2267  0.2254
 1101YOPC   GL115361  10.300   3.301   6.832  0.0785 -0.1049 -0.3817
 1101YOPC   GL215362  10.647   3.271   7.015  0.0584  0.0875 -0.1654
 1101YOPC   C1A15363  10.248   3.344   7.287  0.2786  0.0018 -0.4432
 1101YOPC   D2A15364  10.503   3.370   7.658 -0.1377  0.0148  0.0903
 1101YOPC   C3A15365  10.425   3.483   8.171  0.1688 -0.0427 -0.1097
 1101YOPC   C4A15366  10.245   3.758   8.268 -0.1961  0.1795  0.1195
 1101YOPC   C1B15367  10.607   3.654   7.279 -0.3133  0.0201  0.0949
 1101YOPC   C2B15368  10.326   3.882   7.461  0.4849  0.1405  0.0913
 1101YOPC   D3B15369  10.086   3.778   7.758  0.0293 -0.0323 -0.0671
 1101YOPC   C4B15370   9.801   3.834   8.148 -0.0282  0.2153  0.0430
 1102YOPC   NC315371  16.165   8.765   5.428  0.1378 -0.5250  0.3053
 1102YOPC   PO415372  15.822   8.426   5.380 -0.0841 -0.1939 -0.0422
 1102YOPC   GL115373  15.913   8.601   5.826 -0.1277  0.0092  0.1483
 1102YOPC   GL215374  16.246   8.575   5.848  0.1526  0.1470 -0.0813
 1102YOPC   C1A15375  15.945   8.629   6.314  0.3499 -0.3268  0.3129
 1102YOPC   D2A15376  15.913   8.626   6.700  0.1139 -0.1572 -0.2326
 1102YOPC   C3A15377  16.221   8.531   6.956  0.0671 -0.0118 -0.2043
 1102YOPC   C4A15378  16.429   8.261   7.191 -0.1615 -0.2469  0.0712
 1102YOPC   C1B15379  16.486   8.890   6.070 -0.0547 -0.1924  0.0367
 1102YOPC   C2B15380  16.862   8.828   6.123  0.1686  0.0428  0.1049
 1102YOPC   D3B15381  17.053   8.819   6.464 -0.1172 -0.0930 -0.0162
 1102YOPC   C4B15382  17.339   8.511   6.640  0.1035  0.0950 -0.0877
 1103YOPC   NC315383   4.128  14.182   4.922 -0.2259  0.1310 -0.1272
 1103YOPC   PO415384   4.006  14.272   5.286 -0.1591 -0.0012  0.1016
 1103YOPC   GL115385   3.889  14.044   5.560  0.0713  0.2184 -0.1207
 1103YOPC   GL215386   3.724  14.216   5.711 -0.2388  0.0631 -0.0857
 1103YOPC   C1A15387   3.960  13.781   5.879 -0.1947 -0.0007  0.3605
 1103YOPC   D2A15388   4.257  13.534   5.977 -0.0254  0.1683 -0.0312
 1103YOPC   C3A15389   4.629  13.635   5.875  0.0926  0.3031  0.4871
 1103YOPC   C4A15390   5.001  13.873   5.904  0.1009 -0.1286 -0.1429
 1103YOPC   C1B15391   3.461  14.179   6.090 -0.2620  0.1472  0.2558
 1103YOPC   C2B15392   3.016  14.309   6.249  0.1956  0.3656 -0.0353
 1103YOPC   D3B15393   2.971  14.476   6.673  0.0995  0.1377 -0.1022
 1103YOPC   C4B15394   2.802  14.310   7.106 -0.2409 -0.2626 -0.0910
 1104YOPC   NC315395  14.054  16.875   5.491  0.0495 -0.0545  0.0526
 1104YOPC   PO415396  14.468  17.034   5.587  0.0104  0.0454  0.0089
 1104YOPC   GL115397  14.347  17.176   5.901 -0.0306  0.2883 -0.1126
 1104YOPC   GL215398  14.686  17.310   5.919  0.0777 -0.3054  0.0151
 1104YOPC   C1A15399  14.489  17.022   6.290 -0.1919  0.2217 -0.0295
 1104YOPC   D2A15400  14.727  16.967   6.688 -0.0330 -0.2906 -0.2872
 1104YOPC   C3A15401  14.772  17.215   6.950 -0.2997 -0.0046 -0.0491
 1104YOPC   C4A15402  14.935  17.227   7.334  0.0862 -0.0918 -0.0369
 1104YOPC   C1B15403  14.969  17.079   6.161 -0.1302  0.0678  0.2193
 1104YOPC   C2B15404  15.226  16.787   6.272 -0.0960  0.1147 -0.0463
 1104YOPC   D3B15405  15.629  16.776   6.411  0.1225  0.3413 -0.1334
 1104YOPC   C4B15406  15.915  16.437   6.567 -0.3014  0.0302 -0.4383
 1105YOPC   NC315407   6.098   2.736   5.810  0.0907  0.1540  0.1502
 1105YOPC   PO415408   5.932   2.297   5.928  0.2011 -0.2241  0.0314
 1105YOPC   GL115409   5.716   2.293   6.405  0.3550 -0.1751 -0.0471
 1105YOPC   GL215410   5.731   1.902   6.600 -0.0031  0.2888  0.3825
 1105YOPC   C1A15411   5.774   2.440   6.916 -0.0665 -0.1626  0.0138
 1105YOPC   D2A15412   5.921   2.389   7.299  0.1695  0.0730 -0.0303
 1105YOPC   C3A15413   5.737   2.629   7.546  0.3011 -0.0462 -0.0757
 1105YOPC   C4A15414   5.770   3.041   7.791 -0.1368  0.3649  0.0298
 1105YOPC   C1B15415   5.930   1.467   6.623  0.0816 -0.0382 -0.0494
 1105YOPC   C2B15416   6.315   1.250   6.624 -0.0328  0.2796  0.2809
 1105YOPC   D3B15417   6.429   0.807   6.598  0.1232  0.0456 -0.1461
 1105YOPC   C4B15418   6.514   0.655   6.198 -0.0501  0.0136  0.1830
 1106YOPC   NC315419  16.795  15.210   5.596 -0.0280  0.0579 -0.0659
 1106YOPC   PO415420  16.855  15.776   5.613  0.0397 -0.2316 -0.1363
 1106YOPC   GL115421  16.969  15.631   5.911  0.1849  0.1434 -0.2386
 1106YOPC   GL215422  16.982  15.297   6.086  0.0527 -0.0004 -0.1032
 1106YOPC   C1A15423  17.086  15.754   6.302 -0.2582  0.3684 -0.0194
 1106YOPC   D2A15424  17.232  15.680   6.718 -0.1580 -0.0029  0.0217
 1106YOPC   C3A15425  17.484  15.704   6.988  0.2813  0.2032 -0.1165
 1106YOPC   C4A15426  17.694  15.992   6.876  0.4584  0.0411 -0.3450
 1106YOPC   C1B15427  16.709  15.125   6.391  0.1378  0.0982  0.2092
 1106YOPC   C2B15428  16.780  14.991   6.862 -0.3269 -0.3110 -0.1963
 1106YOPC   D3B15429  16.498  15.139   7.151  0.0270 -0.1049 -0.0207
 1106YOPC   C4B15430  16.118  15.220   7.488 -0.0449  0.3716 -0.0995
 1107YOPC   NC315431  18.089   2.773   5.689  0.0111 -0.0906 -0.3455
 1107YOPC   PO415432  18.459   2.866   5.519  0.0098 -0.2044 -0.0043
 1107YOPC   GL115433  18.681   2.778   5.834 -0.0883 -0.0491  0.2409
 1107YOPC   GL215434  18.760   2.470   5.874  0.0493 -0.2915 -0.3281
 1107YOPC   C1A15435  19.051   2.766   6.113  0.0337 -0.2217 -0.0902
 1107YOPC   D2A15436  19.455   2.499   6.275 -0.1408 -0.0208  0.3468
 1107YOPC   C3A15437  19.354   2.218   6.612 -0.0038  0.1134  0.1702
 1107YOPC   C4A15438  19.231   2.167   7.049  0.0552  0.0128 -0.1902
 1107YOPC   C1B15439  18.926   2.230   6.181 -0.3437  0.1304 -0.1732
 1107YOPC   C2B15440  18.635   2.185   6.559  0.0780 -0.0992  0.2146
 1107YOPC   D3B15441  18.250   2.166   6.894  0.1071  0.2496  0.2030
 1107YOPC   C4B15442  18.094   1.859   7.149  0.1923  0.1051  0.0447
 1108YOPC   NC315443  16.689  16.776   5.490 -0.0123 -0.4281  0.1757
 1108YOPC   PO415444  17.054  17.191   5.519  0.1322 -0.0151 -0.0098
 1108YOPC   GL115445  16.826  17.220   5.865 -0.3627 -0.0930  0.2225
 1108YOPC   GL215446  16.932  17.649   5.812  0.3426 -0.2353 -0.0753
 1108YOPC   C1A15447  16.500  17.407   6.054 -0.0697 -0.0737  0.1854
 1108YOPC   D2A15448  16.313  17.726   5.895  0.1642  0.1881  0.1631
 1108YOPC   C3A15449  16.449  18.092   6.139  0.0111 -0.1410  0.0985
 1108YOPC   C4A15450  16.500  18.521   6.325 -0.0490 -0.0148 -0.0049
 1108YOPC   C1B15451  16.939  17.757   6.269  0.0123 -0.0061  0.1905
 1108YOPC   C2B15452  16.779  17.941   6.602 -0.1062  0.0453 -0.1200
 1108YOPC   D3B15453  16.599  18.283   6.837  0.0104 -0.1017  0.0003
 1108YOPC   C4B15454  16.698  18.372   7.241  0.1636 -0.0988  0.0317
 1109YOPC   NC315455  17.889  15.581   5.003  0.1393 -0.1855  0.1679
 1109YOPC   PO415456  17.659  15.464   5.330  0.0156  0.0755  0.0865
 1109YOPC   GL115457  17.659  15.563   5.672  0.3578 -0.0538  0.0589
 1109YOPC   GL215458  17.400  15.419   5.869 -0.0917 -0.0516  0.2246
 1109YOPC   C1A15459  17.973  15.611   5.999 -0.0645 -0.0555 -0.0396
 1109YOPC   D2A15460  18.118  15.473   6.357  0.1688  0.0656  0.3937
 1109YOPC   C3A15461  18.118  15.704   6.846 -0.1276  0.0045 -0.0979
 1109YOPC   C4A15462  18.029  15.831   7.237 -0.2196  0.0122 -0.1632
 1109YOPC   C1B15463  17.416  15.294   6.267  0.1080  0.0633 -0.0296
 1109YOPC   C2B15464  17.177  15.167   6.604  0.0008 -0.0682  0.1194
 1109YOPC   D3B15465  17.339  15.163   6.986 -0.2842  0.1115 -0.3778
 1109YOPC   C4B15466  17.599  15.041   7.393 -0.1505  0.2034 -0.0347
 1110YOPC   NC315467  18.304  11.786   4.952 -0.0945 -0.2503 -0.0939
 1110YOPC   PO415468  18.566  12.087   5.145  0.2306 -0.1676 -0.0418
 1110YOPC   GL115469  18.444  12.244   5.560 -0.0706  0.0542 -0.1164
 1110YOPC   GL215470  18.622  11.978   5.780 -0.0246  0.2073 -0.0338
 1110YOPC   C1A15471  18.524  12.442   6.020  0.3264 -0.2131 -0.1276
 1110YOPC   D2A15472  18.461  12.634   6.462  0.0062  0.3096 -0.0165
 1110YOPC   C3A15473  18.414  12.399   6.840 -0.2837 -0.1218  0.1209
 1110YOPC   C4A15474  18.171  12.251   7.157  0.0702  0.1972 -0.0105
 1110YOPC   C1B15475  18.914  11.695   6.086 -0.0285 -0.2284 -0.0252
 1110YOPC   C2B15476  18.758  11.249   6.260  0.1104  0.0519 -0.0662
 1110YOPC   D3B15477  18.306  11.181   6.179  0.2967  0.1134  0.0498
 1110YOPC   C4B15478  17.866  11.353   6.249 -0.0277 -0.1728 -0.0037
 1111YOPC   NC315479   4.458  12.728   5.269 -0.0952 -0.0193 -0.0806
 1111YOPC   PO415480   4.710  12.280   5.208 -0.1473  0.2074 -0.1648
 1111YOPC   GL115481   4.440  12.272   5.610  0.0002 -0.2142  0.0317
 1111YOPC   GL215482   4.201  12.439   5.599  0.0183  0.0551  0.2526
 1111YOPC   C1A15483   4.450  12.494   6.061 -0.0850 -0.1693  0.0325
 1111YOPC   D2A15484   4.405  12.786   6.512  0.5482 -0.1811  0.2881
 1111YOPC   C3A15485   3.921  12.844   6.758 -0.1831 -0.0549 -0.2227
 1111YOPC   C4A15486   3.636  12.603   6.993 -0.2659 -0.0522 -0.1699
 1111YOPC   C1B15487   3.978  12.599   5.938  0.0111  0.3656 -0.0297
 1111YOPC   C2B15488   3.810  12.775   6.257 -0.1710  0.1937  0.2227
 1111YOPC   D3B15489   3.573  12.490   6.337  0.3142  0.0420  0.1340
 1111YOPC   C4B15490   3.313  12.323   6.654 -0.2135 -0.0725 -0.1390
 1112YOPC   NC315491   8.594  17.002   6.259  0.2472  0.2205  0.1225
 1112YOPC   PO415492   8.278  16.763   6.195  0.1127  0.1476  0.0527
 1112YOPC   GL115493   8.377  16.524   6.625  0.1094  0.0799 -0.1950
 1112YOPC   GL215494   8.116  16.583   6.841  0.3570 -0.0316  0.0701
 1112YOPC   C1A15495   8.720  16.554   6.992  0.1298 -0.2003 -0.1604
 1112YOPC   D2A15496   8.831  16.628   7.353 -0.3939  0.2206  0.1003
 1112YOPC   C3A15497   8.886  16.266   7.593 -0.2122 -0.1923  0.2162
 1112YOPC   C4A15498   9.158  16.187   7.981  0.0257 -0.3064  0.2306
 1112YOPC   C1B15499   7.950  16.628   7.249 -0.0649 -0.2546 -0.2174
 1112YOPC   C2B15500   7.909  16.509   7.717 -0.2232  0.1289  0.1469
 1112YOPC   D3B15501   7.930  16.776   8.003  0.0632 -0.0306 -0.0773
 1112YOPC   C4B15502   7.948  17.043   8.392  0.3853  0.1047 -0.0288
 1113YOPC   NC315503  17.689  11.363   5.231  0.0371 -0.0153  0.2313
 1113YOPC   PO415504  17.949  10.801   5.079  0.0260 -0.0960 -0.2054
 1113YOPC   GL115505  18.048  10.725   5.574  0.0572  0.0131 -0.0371
 1113YOPC   GL215506  18.252  10.402   5.701 -0.1420 -0.1509  0.0750
 1113YOPC   C1A15507  17.982  10.885   5.986 -0.1168 -0.2311 -0.0223
 1113YOPC   D2A15508  17.730  10.920   6.352  0.0198  0.1589 -0.1580
 1113YOPC   C3A15509  17.835  11.176   6.702  0.1355 -0.0057 -0.0784
 1113YOPC   C4A15510  17.871  11.195   7.130  0.2107  0.0681  0.0723
 1113YOPC   C1B15511  18.357  10.610   6.058 -0.0556  0.0775  0.0779
 1113YOPC   C2B15512  18.192  10.742   6.370  0.0317  0.1439  0.5248
 1113YOPC   D3B15513  18.468  10.978   6.650 -0.1779 -0.2629  0.0719
 1113YOPC   C4B15514  18.441  11.027   6.988 -0.0547  0.1197  0.0603
 1114YOPC   NC315515   6.243   8.346   5.205  0.1110 -0.0122 -0.0148
 1114YOPC   PO415516   5.862   8.039   5.398  0.1211 -0.2312 -0.0158
 1114YOPC   GL115517   5.942   8.329   5.811  0.3088  0.0196  0.2477
 1114YOPC   GL215518   6.028   8.066   6.061  0.0292  0.1021 -0.1756
 1114YOPC   C1A15519   5.656   8.615   6.191  0.0132 -0.0288  0.5429
 1114YOPC   D2A15520   5.285   8.793   6.267  0.3254 -0.1418  0.0494
 1114YOPC   C3A15521   4.861   8.907   5.950 -0.1654 -0.3024 -0.0452
 1114YOPC   C4A15522   4.587   9.166   5.891 -0.6506 -0.1869  0.1651
 1114YOPC   C1B15523   6.221   8.203   6.400  0.0988  0.0157  0.0708
 1114YOPC   C2B15524   6.541   8.330   6.579  0.2285  0.1851 -0.0456
 1114YOPC   D3B15525   6.950   8.132   6.548 -0.4627 -0.4714  0.1411
 1114YOPC   C4B15526   7.347   8.004   6.259  0.3500 -0.1771  0.0189
 1115YOPC   NC315527   0.250   3.313   5.402 -0.1161  0.1316  0.2856
 1115YOPC   PO415528   0.664   3.213   5.646  0.1392  0.0270  0.0520
 1115YOPC   GL115529   0.781   3.297   6.094  0.2211 -0.0359 -0.3131
 1115YOPC   GL215530   1.135   3.481   6.203 -0.1071  0.3738 -0.1656
 1115YOPC   C1A15531   0.718   3.120   6.537  0.2351 -0.0732 -0.0894
 1115YOPC   D2A15532   0.663   3.022   7.085  0.2699  0.0350 -0.0923
 1115YOPC   C3A15533   0.570   2.595   7.291  0.1897 -0.0635 -0.1503
 1115YOPC   C4A15534   0.427   2.111   7.471 -0.4666  0.0850 -0.2771
 1115YOPC   C1B15535   1.450   3.499   6.532  0.1050  0.1031 -0.0943
 1115YOPC   C2B15536   1.743   3.465   6.888 -0.1247  0.0360 -0.1159
 1115YOPC   D3B15537   1.821   3.763   7.351 -0.0565  0.0583  0.3077
 1115YOPC   C4B15538   1.865   4.083   7.659 -0.0038  0.3203 -0.2067
 1116YOPC   NC315539  16.543  14.519   5.364  0.2647 -0.1328 -0.1085
 1116YOPC   PO415540  16.843  14.733   5.397 -0.2950  0.1658  0.0339
 1116YOPC   GL115541  16.799  14.675   5.849  0.0152  0.0617  0.2175
 1116YOPC   GL215542  16.801  14.363   6.108 -0.0219  0.0576  0.1664
 1116YOPC   C1A15543  17.005  14.749   6.314 -0.1296  0.0179 -0.0363
 1116YOPC   D2A15544  17.167  14.692   6.717 -0.1934 -0.2641  0.3137
 1116YOPC   C3A15545  17.461  14.627   7.074 -0.1944  0.1648  0.2206
 1116YOPC   C4A15546  17.725  14.595   7.505 -0.0414  0.0240  0.0161
 1116YOPC   C1B15547  16.488  14.629   6.334  0.1350  0.2269  0.3135
 1116YOPC   C2B15548  16.448  14.657   6.827  0.0094 -0.3514  0.3415
 1116YOPC   D3B15549  16.263  14.301   7.174 -0.0118 -0.0000 -0.0942
 1116YOPC   C4B15550  16.251  14.172   7.614 -0.2530 -0.0912 -0.1792
 1117YOPC   NC315551   7.493  15.575   5.861  0.0253  0.1748 -0.1161
 1117YOPC   PO415552   7.332  15.858   6.142 -0.0670  0.1059 -0.0792
 1117YOPC   GL115553   7.352  16.026   6.574 -0.0702 -0.1857  0.0309
 1117YOPC   GL215554   7.297  16.368   6.508 -0.2496 -0.1210 -0.3769
 1117YOPC   C1A15555   7.289  15.843   7.032 -0.0578 -0.1154 -0.1176
 1117YOPC   D2A15556   7.212  15.751   7.491 -0.0559  0.1816  0.0294
 1117YOPC   C3A15557   7.405  15.452   7.670 -0.2400  0.0120  0.3072
 1117YOPC   C4A15558   7.471  15.485   8.091  0.3070  0.0790 -0.0998
 1117YOPC   C1B15559   7.254  16.376   7.018 -0.1914  0.1603  0.0672
 1117YOPC   C2B15560   7.022  16.239   7.347 -0.0601  0.2975 -0.0208
 1117YOPC   D3B15561   6.730  16.512   7.491 -0.2285 -0.1118  0.1032
 1117YOPC   C4B15562   6.661  16.944   7.755  0.2548 -0.2288 -0.0296
 1118YOPC   NC315563  11.364   6.875   6.137 -0.3091 -0.1338 -0.3078
 1118YOPC   PO415564  11.272   6.576   6.502  0.3079 -0.2349  0.1186
 1118YOPC   GL115565  11.160   6.800   6.794  0.2998  0.0178 -0.1197
 1118YOPC   GL215566  11.086   7.065   6.691  0.0287  0.0358  0.1665
 1118YOPC   C1A15567  11.174   7.116   7.159  0.0524  0.1547 -0.3013
 1118YOPC   D2A15568  11.354   7.134   7.563  0.1088 -0.1024  0.0705
 1118YOPC   C3A15569  11.364   7.029   8.075  0.1715  0.3629 -0.4453
 1118YOPC   C4A15570  11.646   6.676   8.366 -0.0917 -0.2694  0.2032
 1118YOPC   C1B15571  11.354   7.361   6.771  0.1655  0.0422 -0.0936
 1118YOPC   C2B15572  11.485   7.557   7.150 -0.2310 -0.2017  0.1213
 1118YOPC   D3B15573  11.769   7.464   7.464  0.1337  0.0108  0.0234
 1118YOPC   C4B15574  11.823   7.035   7.658  0.1123  0.2281  0.2268
 1119YOPC   NC315575  14.088  15.954   5.201 -0.0782 -0.0351 -0.0932
 1119YOPC   PO415576  14.383  15.561   5.303  0.2785 -0.0948  0.1938
 1119YOPC   GL115577  14.342  15.766   5.710  0.1592  0.0271  0.1130
 1119YOPC   GL215578  14.264  16.059   5.794  0.1810 -0.0845 -0.3221
 1119YOPC   C1A15579  14.168  15.495   5.978  0.0564 -0.2057 -0.0762
 1119YOPC   D2A15580  14.330  15.484   6.332 -0.0412  0.1110 -0.1587
 1119YOPC   C3A15581  14.701  15.489   6.380 -0.0174  0.1270  0.1588
 1119YOPC   C4A15582  14.802  15.149   6.755 -0.0318  0.0304  0.0571
 1119YOPC   C1B15583  13.964  15.860   6.215 -0.1284  0.0065  0.0586
 1119YOPC   C2B15584  13.927  15.983   6.693  0.0953 -0.1415  0.1754
 1119YOPC   D3B15585  14.041  15.760   7.049 -0.1935 -0.4461 -0.2577
 1119YOPC   C4B15586  14.269  15.661   7.411  0.2531 -0.3143 -0.2790
 1120YOPC   NC315587  11.296   9.991   5.923 -0.2167 -0.1181  0.1212
 1120YOPC   PO415588  11.298  10.292   6.208 -0.3204  0.1780  0.1174
 1120YOPC   GL115589  11.438  10.196   6.644  0.1022  0.1489  0.1683
 1120YOPC   GL215590  11.764   9.972   6.676  0.0927 -0.0423 -0.1710
 1120YOPC   C1A15591  11.335   9.981   7.063  0.1289  0.2215 -0.0170
 1120YOPC   D2A15592  10.980   9.825   7.201 -0.1285 -0.1340 -0.4506
 1120YOPC   C3A15593  10.792  10.110   7.517  0.0621 -0.2109 -0.1418
 1120YOPC   C4A15594  10.773  10.212   7.996  0.1519  0.3202  0.0839
 1120YOPC   C1B15595  11.786  10.356   6.917 -0.0574 -0.0484 -0.1389
 1120YOPC   C2B15596  11.621  10.329   7.263 -0.0112  0.0409 -0.0814
 1120YOPC   D3B15597  11.745  10.238   7.680  0.0252  0.1265 -0.0104
 1120YOPC   C4B15598  11.770  10.194   8.143  0.0203  0.0925 -0.1589
 1121YOPC   NC315599   1.508  11.022   5.374 -0.4765  0.0197 -0.2589
 1121YOPC   PO415600   1.828  10.692   5.328  0.1042  0.2048  0.0451
 1121YOPC   GL115601   1.871  10.691   5.745  0.0864  0.1437 -0.2143
 1121YOPC   GL215602   1.867  10.969   5.900 -0.4542 -0.2024 -0.0482
 1121YOPC   C1A15603   1.931  10.410   6.112  0.3230  0.1042  0.0080
 1121YOPC   D2A15604   2.141  10.379   6.563  0.0486 -0.0676 -0.2090
 1121YOPC   C3A15605   2.460  10.215   6.720 -0.0662 -0.3352  0.0807
 1121YOPC   C4A15606   2.759  10.200   6.985  0.1101  0.1700  0.1542
 1121YOPC   C1B15607   1.981  11.067   6.293 -0.2167  0.0773 -0.1338
 1121YOPC   C2B15608   2.371  10.923   6.324 -0.2315 -0.1094  0.1212
 1121YOPC   D3B15609   2.606  10.695   6.572 -0.2145 -0.0350  0.0171
 1121YOPC   C4B15610   2.697  10.680   6.965 -0.0367  0.1848 -0.1299
 1122YOPC   NC315611   4.920   3.266   5.866 -0.5919  0.2558  0.2186
 1122YOPC   PO415612   4.666   2.928   5.897  0.0557 -0.0795 -0.1212
 1122YOPC   GL115613   4.373   2.964   6.245 -0.3206 -0.0116  0.0705
 1122YOPC   GL215614   4.129   3.143   6.331 -0.1569 -0.0809 -0.3228
 1122YOPC   C1A15615   4.519   2.900   6.630 -0.2633  0.0079 -0.2074
 1122YOPC   D2A15616   4.911   3.013   6.840  0.1277  0.1871  0.0175
 1122YOPC   C3A15617   5.310   2.900   6.670  0.1091 -0.1700  0.0857
 1122YOPC   C4A15618   5.653   2.772   6.576  0.2566 -0.0274 -0.0105
 1122YOPC   C1B15619   4.122   3.545   6.332 -0.3073 -0.2264  0.1571
 1122YOPC   C2B15620   4.027   3.654   6.784  0.2059  0.0885 -0.3010
 1122YOPC   D3B15621   3.848   4.048   6.952 -0.1107 -0.0050 -0.2024
 1122YOPC   C4B15622   3.531   4.471   6.868  0.3803 -0.2650  0.0021
 1123YOPC   NC315623  12.292  17.136   6.192  0.2908 -0.2437 -0.0012
 1123YOPC   PO415624  12.202  16.732   5.966 -0.0933  0.0901  0.2424
 1123YOPC   GL115625  12.027  16.760   6.381 -0.2367  0.2568  0.4275
 1123YOPC   GL215626  11.709  16.843   6.503  0.0464  0.3185  0.0526
 1123YOPC   C1A15627  12.327  16.723   6.737 -0.2226 -0.1797 -0.2093
 1123YOPC   D2A15628  12.349  16.858   7.128 -0.0593  0.0694 -0.0524
 1123YOPC   C3A15629  12.499  16.635   7.460  0.1608 -0.0497 -0.2211
 1123YOPC   C4A15630  12.918  16.401   7.580  0.1290  0.1152 -0.3564
 1123YOPC   C1B15631  11.846  16.903   6.917 -0.1726  0.3710  0.0540
 1123YOPC   C2B15632  11.881  17.000   7.385  0.0828 -0.0987  0.0221
 1123YOPC   D3B15633  11.486  17.037   7.596  0.0567  0.0253 -0.1043
 1123YOPC   C4B15634  11.255  16.695   7.704  0.2600  0.1875 -0.1539
 1124YOPC   NC315635   4.415   5.119   5.184  0.2809  0.2746  0.0446
 1124YOPC   PO415636   4.738   4.982   5.516  0.3653 -0.1413 -0.1759
 1124YOPC   GL115637   4.672   4.987   6.004  0.0546  0.3500  0.0847
 1124YOPC   GL215638   4.696   5.288   6.145  0.2826  0.0051 -0.2097
 1124YOPC   C1A15639   4.910   4.671   6.330 -0.1660 -0.0004  0.1611
 1124YOPC   D2A15640   5.143   4.444   6.657  0.2395 -0.0643 -0.5205
 1124YOPC   C3A15641   5.107   4.639   7.043 -0.2385 -0.1888 -0.1644
 1124YOPC   C4A15642   5.059   4.960   7.358 -0.1703 -0.0325  0.3531
 1124YOPC   C1B15643   4.803   5.157   6.453  0.0382  0.0214 -0.1929
 1124YOPC   C2B15644   4.943   4.986   6.790  0.0024 -0.0601 -0.1867
 1124YOPC   D3B15645   4.583   4.867   7.199 -0.2057 -0.3920 -0.0356
 1124YOPC   C4B15646   4.101   4.976   7.373  0.2318  0.2664 -0.0923
 1125YOPC   NC315647   8.977   7.829   6.181 -0.0953 -0.0647  0.1969
 1125YOPC   PO415648   9.366   8.229   6.182 -0.2095 -0.0588  0.1039
 1125YOPC   GL115649   9.613   8.411   6.493  0.1037  0.0673  0.1136
 1125YOPC   GL215650   9.848   8.601   6.480 -0.0167 -0.0155 -0.2443
 1125YOPC   C1A15651   9.655   8.426   6.980  0.3391 -0.2757  0.1210
 1125YOPC   D2A15652   9.713   8.596   7.398  0.0953  0.2316 -0.0201
 1125YOPC   C3A15653   9.543   8.499   7.815  0.1555 -0.0773  0.1956
 1125YOPC   C4A15654   9.070   8.541   7.823 -0.0680 -0.3425 -0.1469
 1125YOPC   C1B15655   9.980   8.933   6.785  0.3488  0.0702 -0.2686
 1125YOPC   C2B15656   9.948   9.081   7.201 -0.1128  0.1984  0.2575
 1125YOPC   D3B15657   9.704   9.337   7.407 -0.0940 -0.2699  0.0683
 1125YOPC   C4B15658   9.567   9.814   7.660 -0.1271 -0.2967  0.0187
 1126YOPC   NC315659   9.037  15.967   6.232 -0.0715 -0.0409  0.0478
 1126YOPC   PO415660   8.698  16.295   6.305 -0.1816 -0.2472  0.5127
 1126YOPC   GL115661   8.948  16.268   6.686  0.0505  0.1013 -0.0553
 1126YOPC   GL215662   8.942  16.133   6.993  0.0232 -0.1317  0.2670
 1126YOPC   C1A15663   9.190  16.539   6.998 -0.0654 -0.0299 -0.0693
 1126YOPC   D2A15664   9.666  16.669   7.188 -0.1066 -0.0593  0.2932
 1126YOPC   C3A15665   9.609  17.001   7.235 -0.0945 -0.0901 -0.0498
 1126YOPC   C4A15666   9.624  17.451   7.164  0.0179  0.0419  0.1128
 1126YOPC   C1B15667   8.833  15.820   7.296 -0.2195  0.0581 -0.0002
 1126YOPC   C2B15668   8.751  15.792   7.728  0.1039 -0.1720  0.1677
 1126YOPC   D3B15669   8.500  15.529   7.838  0.0547  0.3430 -0.0694
 1126YOPC   C4B15670   8.655  15.244   8.131  0.2632 -0.1969  0.1461
 1127YOPC   NC315671  15.422  14.263   5.723  0.1766 -0.1401  0.1897
 1127YOPC   PO415672  15.242  14.719   5.816 -0.2812 -0.3625  0.0601
 1127YOPC   GL115673  15.018  14.532   6.121  0.3717 -0.1031  0.1071
 1127YOPC   GL215674  14.968  14.160   6.156 -0.0647 -0.1286  0.1185
 1127YOPC   C1A15675  14.551  14.450   6.245  0.1892  0.2874  0.1758
 1127YOPC   D2A15676  14.123  14.388   6.270  0.0631 -0.0943  0.0004
 1127YOPC   C3A15677  14.056  14.469   6.653  0.2035 -0.0649 -0.2087
 1127YOPC   C4A15678  13.686  14.554   6.937  0.2805  0.3611  0.0845
 1127YOPC   C1B15679  15.083  14.283   6.564  0.2204  0.0832  0.1251
 1127YOPC   C2B15680  15.333  14.228   6.923  0.1043 -0.4360 -0.1306
 1127YOPC   D3B15681  15.364  13.771   6.916 -0.0108 -0.2211 -0.0821
 1127YOPC   C4B15682  15.441  13.445   7.256  0.0582  0.1806 -0.2364
 1128YOPC   NC315683   1.279   8.793   4.604 -0.0253  0.2098 -0.0810
 1128YOPC   PO415684   1.358   9.038   4.980  0.1630 -0.0150  0.0842
 1128YOPC   GL115685   1.216   9.129   5.492  0.0274  0.3072 -0.0688
 1128YOPC   GL215686   1.384   9.256   5.707  0.0032  0.1549 -0.0206
 1128YOPC   C1A15687   1.062   8.907   5.982 -0.3166 -0.0156 -0.0101
 1128YOPC   D2A15688   1.048   8.829   6.339  0.2269 -0.5145 -0.2768
 1128YOPC   C3A15689   0.760   9.165   6.476 -0.0886 -0.0645  0.0428
 1128YOPC   C4A15690   0.669   9.519   6.681 -0.5272  0.0183  0.3640
 1128YOPC   C1B15691   1.514   9.597   5.902  0.0525 -0.1186  0.3132
 1128YOPC   C2B15692   1.480   9.709   6.249  0.1546  0.0233  0.4235
 1128YOPC   D3B15693   1.681   9.458   6.627 -0.1005  0.0063  0.0028
 1128YOPC   C4B15694   1.927   9.340   6.964 -0.1589  0.2651  0.1004
 1129YOPC   NC315695   7.315   9.255   5.618  0.1079 -0.0687 -0.0116
 1129YOPC   PO415696   6.905   9.417   5.685 -0.0370  0.1191 -0.1716
 1129YOPC   GL115697   6.691   9.451   6.027 -0.0430  0.1111  0.2388
 1129YOPC   GL215698   6.485   9.185   6.167 -0.0428 -0.5009  0.4920
 1129YOPC   C1A15699   6.417   9.642   6.323 -0.0633 -0.1994 -0.1018
 1129YOPC   D2A15700   6.338  10.006   6.388 -0.1614 -0.0886 -0.2327
 1129YOPC   C3A15701   6.551  10.191   6.758  0.5235 -0.0236  0.1437
 1129YOPC   C4A15702   6.893   9.978   7.108 -0.0394  0.1757  0.0892
 1129YOPC   C1B15703   6.509   9.125   6.574 -0.0821 -0.0220  0.2386
 1129YOPC   C2B15704   6.602   9.261   6.966  0.1011  0.1909  0.3035
 1129YOPC   D3B15705   6.336   9.320   7.295  0.1213  0.1864  0.2613
 1129YOPC   C4B15706   6.550   9.109   7.577 -0.0184  0.4269 -0.0644
 1130YOPC   NC315707   1.805   4.387   4.805  0.0702  0.3157 -0.5636
 1130YOPC   PO415708   1.433   4.471   5.104 -0.1976 -0.0096 -0.1560
 1130YOPC   GL115709   1.470   4.516   5.543  0.3627  0.0484  0.1920
 1130YOPC   GL215710   1.671   4.256   5.650 -0.2782 -0.0063  0.4194
 1130YOPC   C1A15711   1.408   4.614   5.929  0.0540  0.4397 -0.0683
 1130YOPC   D2A15712   1.459   4.648   6.397  0.0115  0.1698  0.1555
 1130YOPC   C3A15713   1.559   4.337   6.710  0.0722 -0.1287 -0.1089
 1130YOPC   C4A15714   1.480   4.054   7.024  0.2080 -0.4885 -0.1670
 1130YOPC   C1B15715   1.734   4.274   6.116 -0.0148  0.0004  0.1369
 1130YOPC   C2B15716   2.012   4.368   6.391 -0.0522  0.2439  0.1584
 1130YOPC   D3B15717   1.972   4.620   6.756 -0.0867 -0.1142 -0.1696
 1130YOPC   C4B15718   2.305   5.013   6.954  0.2840 -0.3160  0.1166
 1131YOPC   NC315719  12.721   5.822   5.740 -0.0001 -0.0883 -0.2096
 1131YOPC   PO415720  12.593   5.468   5.936 -0.1032  0.1623 -0.1429
 1131YOPC   GL115721  12.799   5.631   6.194 -0.0607  0.0175  0.1240
 1131YOPC   GL215722  12.757   5.365   6.398 -0.2223 -0.2070  0.1377
 1131YOPC   C1A15723  13.183   5.536   6.513 -0.3737 -0.0675 -0.2896
 1131YOPC   D2A15724  13.417   5.139   6.505  0.1483 -0.1563 -0.1398
 1131YOPC   C3A15725  13.503   4.791   6.795  0.3233  0.5114 -0.3153
 1131YOPC   C4A15726  13.722   4.778   7.187 -0.0954 -0.0075  0.1548
 1131YOPC   C1B15727  12.512   5.275   6.680 -0.2203  0.4087 -0.1843
 1131YOPC   C2B15728  12.627   5.163   7.130  0.2434  0.1273 -0.0063
 1131YOPC   D3B15729  12.907   5.182   7.423  0.0818  0.0158  0.0620
 1131YOPC   C4B15730  13.156   5.406   7.696  0.1405 -0.1868  0.0804
 1132YOPC   NC315731   1.292   4.934   5.349  0.1100  0.3814 -0.0642
 1132YOPC   PO415732   1.462   5.286   5.172 -0.1464 -0.0676  0.1357
 1132YOPC   GL115733   1.350   5.338   5.628  0.2043  0.0705 -0.3761
 1132YOPC   GL215734   1.140   5.161   5.782 -0.0362  0.0774  0.1673
 1132YOPC   C1A15735   1.443   5.458   6.081  0.0758  0.3734  0.2229
 1132YOPC   D2A15736   1.575   5.787   6.343 -0.2133 -0.2213 -0.2507
 1132YOPC   C3A15737   1.695   5.801   6.743 -0.1037  0.1149 -0.1107
 1132YOPC   C4A15738   1.943   5.837   7.075 -0.4492 -0.2204  0.0053
 1132YOPC   C1B15739   1.099   5.075   6.185  0.2638 -0.1942  0.0022
 1132YOPC   C2B15740   0.834   5.078   6.573 -0.0647  0.2063  0.1525
 1132YOPC   D3B15741   0.720   4.780   6.901  0.0110 -0.1527  0.3357
 1132YOPC   C4B15742   0.797   4.622   7.288  0.1452  0.1716 -0.3295
 1133YOPC   NC315743  11.206  16.763   6.055 -0.1933  0.1004  0.1148
 1133YOPC   PO415744  11.634  16.551   6.067  0.0755  0.2861  0.0933
 1133YOPC   GL115745  11.324  16.358   6.381 -0.1331 -0.1074  0.0047
 1133YOPC   GL215746  11.012  16.314   6.531 -0.2179 -0.1208 -0.2634
 1133YOPC   C1A15747  11.418  16.505   6.815  0.0328  0.1980  0.3219
 1133YOPC   D2A15748  11.446  16.648   7.202  0.1555 -0.0370 -0.1588
 1133YOPC   C3A15749  11.637  16.242   7.322 -0.1842 -0.0876  0.1134
 1133YOPC   C4A15750  11.676  15.984   7.656 -0.0713 -0.0468  0.1531
 1133YOPC   C1B15751  10.951  16.462   6.942  0.1094 -0.2444  0.1555
 1133YOPC   C2B15752  10.976  16.405   7.348  0.1752 -0.2874 -0.1197
 1133YOPC   D3B15753  11.106  16.194   7.638  0.0603  0.0305  0.1774
 1133YOPC   C4B15754  11.221  15.938   7.875  0.0719  0.1742  0.1194
 1134YOPC   NC315755   4.315   9.915   4.891 -0.0763 -0.2765 -0.0685
 1134YOPC   PO415756   4.392  10.162   5.220  0.3444 -0.1777  0.1940
 1134YOPC   GL115757   4.029  10.232   5.556 -0.0058 -0.1930  0.0655
 1134YOPC   GL215758   3.888   9.950   5.848  0.0725  0.1446  0.1325
 1134YOPC   C1A15759   3.797  10.465   6.019  0.1023  0.0564 -0.0305
 1134YOPC   D2A15760   3.648  10.538   6.516 -0.3719  0.2526  0.0747
 1134YOPC   C3A15761   3.756  10.402   6.883 -0.1060  0.2292 -0.3034
 1134YOPC   C4A15762   3.821  10.422   7.315  0.1631  0.0837 -0.1169
 1134YOPC   C1B15763   4.262   9.970   6.087 -0.1927  0.2034  0.2764
 1134YOPC   C2B15764   4.566   9.938   6.420 -0.1836 -0.2694 -0.1266
 1134YOPC   D3B15765   4.484   9.922   6.856  0.0621  0.2916  0.0854
 1134YOPC   C4B15766   4.527   9.867   7.308  0.0847  0.1724 -0.2597
 1135YOPC   NC315767   5.164   6.696   5.564  0.0900 -0.1350 -0.1593
 1135YOPC   PO415768   5.584   6.617   5.708  0.0923  0.2368 -0.0785
 1135YOPC   GL115769   5.636   6.783   6.072 -0.0897 -0.1880  0.0961
 1135YOPC   GL215770   5.301   6.888   6.045 -0.0365  0.3477  0.2811
 1135YOPC   C1A15771   5.581   6.772   6.564  0.0623 -0.0448  0.2480
 1135YOPC   D2A15772   5.353   6.812   6.872  0.3323 -0.0373 -0.1562
 1135YOPC   C3A15773   5.516   6.955   7.164  0.2919  0.1930 -0.3455
 1135YOPC   C4A15774   5.585   7.149   7.565  0.0882  0.1796  0.2089
 1135YOPC   C1B15775   5.368   7.179   6.396  0.2988 -0.1038  0.0561
 1135YOPC   C2B15776   5.338   7.618   6.485 -0.6725  0.2175  0.2837
 1135YOPC   D3B15777   5.527   7.791   6.826 -0.0720 -0.0931 -0.0449
 1135YOPC   C4B15778   5.722   7.924   7.140 -0.1901  0.1202 -0.2873
 1136YOPC   NC315779   2.291  10.680   5.091 -0.1385  0.1011 -0.0520
 1136YOPC   PO415780   2.749  10.816   5.144  0.1969  0.1343 -0.0355
 1136YOPC   GL115781   2.816  10.840   5.580 -0.1536 -0.1838  0.1857
 1136YOPC   GL215782   2.865  10.473   5.774 -0.0230 -0.0908  0.0306
 1136YOPC   C1A15783   2.713  10.956   5.979  0.0725  0.0294  0.0874
 1136YOPC   D2A15784   2.844  11.184   6.398  0.0075 -0.0858 -0.2260
 1136YOPC   C3A15785   2.632  11.177   6.807  0.0009 -0.0383 -0.0076
 1136YOPC   C4A15786   2.303  11.318   7.142  0.0338  0.0713 -0.0381
 1136YOPC   C1B15787   2.868  10.130   6.090 -0.1242  0.0920 -0.1441
 1136YOPC   C2B15788   3.063  10.020   6.555  0.0281  0.0253 -0.2209
 1136YOPC   D3B15789   3.288  10.374   6.884 -0.0297 -0.0547 -0.1856
 1136YOPC   C4B15790   3.137  10.560   7.258 -0.0930  0.3061 -0.0980
 1137YOPC   NC315791  15.788   4.688   5.591 -0.3964 -0.0318  0.1923
 1137YOPC   PO415792  16.126   4.974   5.472 -0.2299 -0.2350 -0.4290
 1137YOPC   GL115793  16.414   5.250   5.756  0.0611 -0.0116  0.1205
 1137YOPC   GL215794  16.467   5.599   5.551 -0.0856  0.1729 -0.0298
 1137YOPC   C1A15795  16.526   5.200   6.103  0.0084 -0.0756 -0.1979
 1137YOPC   D2A15796  16.481   5.252   6.552 -0.0233  0.0570 -0.0478
 1137YOPC   C3A15797  16.227   5.279   6.836  0.2157 -0.0337  0.0649
 1137YOPC   C4A15798  15.817   5.249   6.935  0.0977  0.0151  0.3000
 1137YOPC   C1B15799  16.273   5.686   5.943 -0.3588  0.1602 -0.0289
 1137YOPC   C2B15800  16.129   5.562   6.367  0.0633  0.0044  0.1774
 1137YOPC   D3B15801  15.719   5.455   6.533 -0.0946 -0.1408 -0.2110
 1137YOPC   C4B15802  15.377   5.639   6.789  0.3035  0.1229  0.0462
 1138YOPC   NC315803   8.122  12.768   5.715 -0.0844  0.3717  0.0886
 1138YOPC   PO415804   8.387  12.601   5.914 -0.0306 -0.0620  0.2849
 1138YOPC   GL115805   8.092  12.589   6.333 -0.6458 -0.0620  0.1125
 1138YOPC   GL215806   7.926  12.831   6.392 -0.3344 -0.1398  0.0249
 1138YOPC   C1A15807   8.230  12.618   6.782 -0.0060  0.0506  0.0270
 1138YOPC   D2A15808   8.263  12.670   7.169 -0.0511  0.2327 -0.0473
 1138YOPC   C3A15809   8.093  12.459   7.547  0.2277  0.0127  0.3711
 1138YOPC   C4A15810   7.979  12.192   7.873  0.5055  0.0116  0.1918
 1138YOPC   C1B15811   7.950  13.084   6.794  0.2314 -0.1866  0.1585
 1138YOPC   C2B15812   7.810  13.326   7.168 -0.0413  0.1478 -0.1587
 1138YOPC   D3B15813   7.497  13.254   7.515 -0.0564  0.0120  0.0731
 1138YOPC   C4B15814   6.988  13.148   7.609  0.0918 -0.0332 -0.0098
 1139YOPC   NC315815   4.428   8.109   5.150 -0.1184 -0.0763  0.1686
 1139YOPC   PO415816   4.513   8.554   5.185 -0.0785 -0.2530 -0.2876
 1139YOPC   GL115817   4.522   8.523   5.615 -0.0756  0.1240 -0.0695
 1139YOPC   GL215818   4.782   8.438   5.746 -0.4085 -0.0250 -0.1385
 1139YOPC   C1A15819   4.283   8.667   5.932  0.0436  0.0513 -0.1636
 1139YOPC   D2A15820   4.099   9.009   6.130  0.0697 -0.0165  0.0604
 1139YOPC   C3A15821   4.177   9.041   6.574  0.1633 -0.1596  0.0074
 1139YOPC   C4A15822   4.224   9.438   6.937  0.0223  0.3507 -0.1074
 1139YOPC   C1B15823   4.648   8.319   6.177 -0.0048 -0.0481 -0.3912
 1139YOPC   C2B15824   4.626   8.197   6.628 -0.2264 -0.0736 -0.2021
 1139YOPC   D3B15825   4.811   8.379   6.959  0.1087  0.0897  0.0193
 1139YOPC   C4B15826   4.647   8.737   7.321 -0.0371 -0.3592  0.1889
 1140YOPC   NC315827   7.278  10.673   5.821  0.0320 -0.1297 -0.1800
 1140YOPC   PO415828   7.631  10.908   5.883  0.2095  0.0378  0.1413
 1140YOPC   GL115829   7.734  11.249   6.178 -0.0998 -0.1108  0.0970
 1140YOPC   GL215830   7.521  11.433   6.372 -0.1605  0.1803  0.3166
 1140YOPC   C1A15831   8.164  11.348   6.481  0.4926  0.2283 -0.0474
 1140YOPC   D2A15832   8.424  11.681   6.705  0.1269 -0.0002  0.2824
 1140YOPC   C3A15833   8.549  11.866   7.077  0.1725  0.0076 -0.0324
 1140YOPC   C4A15834   8.257  11.893   7.408  0.1431 -0.3592 -0.1013
 1140YOPC   C1B15835   7.526  11.476   6.800  0.0267 -0.0625 -0.2899
 1140YOPC   C2B15836   7.557  11.562   7.241  0.0660  0.1117  0.4229
 1140YOPC   D3B15837   7.614  11.291   7.610  0.1710 -0.1205 -0.1392
 1140YOPC   C4B15838   7.894  11.248   7.967 -0.1724  0.1444 -0.0954
 1141YOPC   NC315839   9.184   8.663   6.204  0.0260 -0.1611 -0.0952
 1141YOPC   PO415840   9.470   8.986   6.161  0.1740  0.1001 -0.0919
 1141YOPC   GL115841   9.374   9.202   6.469 -0.2928  0.0941 -0.0795
 1141YOPC   GL215842   9.507   9.448   6.651 -0.0270 -0.1990 -0.2681
 1141YOPC   C1A15843   9.001   9.333   6.867 -0.1280  0.0156  0.2405
 1141YOPC   D2A15844   8.616   9.510   6.972  0.0543  0.0835 -0.0578
 1141YOPC   C3A15845   8.519   9.363   7.372 -0.1157  0.1499  0.2802
 1141YOPC   C4A15846   8.508   9.301   7.759  0.0641 -0.1275 -0.2017
 1141YOPC   C1B15847   9.562   9.288   6.912 -0.1320 -0.2205 -0.3663
 1141YOPC   C2B15848   9.401   8.914   7.144  0.0505  0.1808  0.0356
 1141YOPC   D3B15849   9.362   8.981   7.571  0.0316 -0.3051 -0.2248
 1141YOPC   C4B15850   9.539   9.320   7.867  0.4245  0.0529  0.2627
 1142YOPC   NC315851  12.518   6.952   6.137  0.0305 -0.0986  0.1583
 1142YOPC   PO415852  12.216   6.595   6.067  0.3984 -0.2322 -0.2889
 1142YOPC   GL115853  12.327   6.463   6.469  0.2176  0.1904  0.0142
 1142YOPC   GL215854  12.175   6.160   6.594 -0.0703 -0.1103 -0.0551
 1142YOPC   C1A15855  12.387   6.408   6.949 -0.0183 -0.2330 -0.0647
 1142YOPC   D2A15856  12.678   6.322   7.289 -0.0092  0.2004  0.0832
 1142YOPC   C3A15857  12.571   6.153   7.706  0.1895 -0.0385 -0.0312
 1142YOPC   C4A15858  12.254   5.851   7.885 -0.0961  0.0118 -0.0790
 1142YOPC   C1B15859  12.018   6.070   7.074 -0.4086  0.4027 -0.0319
 1142YOPC   C2B15860  12.409   5.933   7.299  0.1014 -0.0974 -0.0459
 1142YOPC   D3B15861  12.464   5.548   7.432 -0.1210 -0.0663  0.0110
 1142YOPC   C4B15862  12.635   5.377   7.813 -0.2882  0.0797 -0.1256
 1143ERGO   ROH15863   2.895   1.956   6.690 -0.0854  0.1574 -0.0308
 1143ERGO    R115864   2.775   2.124   6.884 -0.1857  0.0628 -0.0075
 1143ERGO    R215865   2.700   2.033   7.134  0.0077  0.0179  0.0454
 1143ERGO    R315866   2.854   2.239   7.220 -0.1652  0.1929 -0.0593
 1143ERGO    R415867   2.660   2.196   7.436 -0.1461  0.1853 -0.0640
 1143ERGO    R515868   2.702   2.385   7.334 -0.2816  0.1476 -0.1702
 1143ERGO    C115869   2.783   2.485   7.693 -0.3979  0.4470 -0.2261
 1143ERGO    C215870   2.592   2.617   7.813 -0.2395  0.0369 -0.2863
 1144ERGO   ROH15871  14.175  16.967   9.690  0.0658  0.1341 -0.1825
 1144ERGO    R115872  13.990  16.870   9.499  0.0539  0.0382 -0.1234
 1144ERGO    R215873  13.824  17.037   9.355 -0.1565 -0.0547  0.0070
 1144ERGO    R315874  13.934  16.910   9.142 -0.1510  0.1029 -0.0855
 1144ERGO    R415875  13.692  17.038   9.035 -0.1965  0.1100  0.0230
 1144ERGO    R515876  13.746  16.828   9.018 -0.1464  0.1324 -0.1130
 1144ERGO    C115877  13.720  16.920   8.649 -0.2147  0.3537 -0.0544
 1144ERGO    C215878  13.613  16.998   8.360 -0.1268  0.3786 -0.3527
 1145ERGO   ROH15879  12.168  18.129   6.470 -0.2080 -0.3218 -0.0218
 1145ERGO    R115880  12.161  18.116   6.752 -0.0978 -0.3088 -0.0191
 1145ERGO    R215881  12.198  17.879   6.891  0.1150 -0.2726 -0.0188
 1145ERGO    R315882  12.392  18.022   7.018  0.0622 -0.1324 -0.0914
 1145ERGO    R415883  12.287  17.841   7.223  0.2663 -0.2188 -0.0514
 1145ERGO    R515884  12.305  18.057   7.238  0.1151 -0.2003 -0.0557
 1145ERGO    C115885  12.520  17.952   7.535  0.3048 -0.0559 -0.1384
 1145ERGO    C215886  12.841  17.943   7.801  0.3888 -0.2969 -0.1534
 1146ERGO   ROH15887   4.955   9.406   9.580 -0.0580 -0.0666 -0.0991
 1146ERGO    R115888   4.808   9.469   9.348  0.1009  0.2103 -0.1286
 1146ERGO    R215889   4.897   9.651   9.159  0.5143 -0.0013 -0.1503
 1146ERGO    R315890   4.857   9.444   8.988  0.0981  0.0444 -0.1175
 1146ERGO    R415891   4.873   9.682   8.816  0.2012  0.0245 -0.1287
 1146ERGO    R515892   4.712   9.534   8.819  0.0306  0.2120  0.0296
 1146ERGO    C115893   4.821   9.505   8.455 -0.3719  0.0823 -0.0852
 1146ERGO    C215894   4.735   9.466   8.227 -0.2251  0.0596  0.0185
 1147ERGO   ROH15895   3.225   5.540   8.196  0.1537 -0.2396  0.0986
 1147ERGO    R115896   3.147   5.459   7.936  0.1465 -0.0986  0.0575
 1147ERGO    R215897   3.318   5.325   7.765  0.0875 -0.1422  0.0461
 1147ERGO    R315898   3.115   5.144   7.757 -0.0255 -0.0161 -0.0646
 1147ERGO    R415899   3.261   5.103   7.506  0.3727 -0.4037  0.1997
 1147ERGO    R515900   3.048   5.140   7.527  0.3472 -0.2297 -0.1866
 1147ERGO    C115901   3.038   4.803   7.348  0.4327 -0.4375  0.1852
 1147ERGO    C215902   3.060   4.555   7.147  0.0603  0.1358  0.2488
 1148ERGO   ROH15903   7.221   0.250  10.138  0.0935  0.1966  0.0537
 1148ERGO    R115904   7.471   0.246  10.005  0.0992  0.0558  0.0683
 1148ERGO    R215905   7.544   0.045   9.830 -0.0248  0.0417  0.0361
 1148ERGO    R315906   7.588   0.252   9.660  0.1261  0.0443  0.0764
 1148ERGO    R415907   7.646   0.012   9.502 -0.1828  0.0193 -0.0120
 1148ERGO    R515908   7.778   0.184   9.531  0.0093 -0.1217 -0.0138
 1148ERGO    C115909   7.747   0.188   9.151 -0.1331  0.0087 -0.0021
 1148ERGO    C215910   7.628   0.252   8.852  0.1529  0.0466 -0.1278
 1149ERGO   ROH15911   6.334  16.285   6.632  0.0159  0.3475 -0.0045
 1149ERGO    R115912   6.250  16.156   6.869  0.1410  0.1463 -0.0689
 1149ERGO    R215913   6.426  16.086   7.071  0.1833  0.3957 -0.0265
 1149ERGO    R315914   6.255  16.229   7.226 -0.1221  0.0675 -0.0447
 1149ERGO    R415915   6.434  16.097   7.416  0.1478  0.4142 -0.0252
 1149ERGO    R515916   6.216  16.090   7.417  0.1437 -0.0197 -0.0418
 1149ERGO    C115917   6.278  16.238   7.763 -0.1596  0.1168 -0.0414
 1149ERGO    C215918   6.207  16.397   8.069 -0.1839  0.0738 -0.1415
 1150ERGO   ROH15919   7.717  12.653  10.111 -0.1532  0.0907  0.1161
 1150ERGO    R115920   7.844  12.545   9.882 -0.0263  0.0958  0.1838
 1150ERGO    R215921   7.708  12.399   9.691  0.1076 -0.0218  0.1778
 1150ERGO    R315922   7.816  12.583   9.521  0.0691 -0.0114  0.1643
 1150ERGO    R415923   7.724  12.365   9.347  0.1531 -0.0640  0.1839
 1150ERGO    R515924   7.924  12.451   9.353  0.1269 -0.0018  0.1932
 1150ERGO    C115925   7.834  12.517   8.988  0.1434 -0.0790  0.1748
 1150ERGO    C215926   7.789  12.486   8.585 -0.1224 -0.3792 -0.1983
 1151ERGO   ROH15927  17.065   2.975   9.522  0.0223 -0.0649 -0.0186
 1151ERGO    R115928  16.892   2.866   9.327 -0.0096 -0.0956  0.0266
 1151ERGO    R215929  16.796   3.013   9.113 -0.1157 -0.1030  0.0664
 1151ERGO    R315930  16.900   2.809   8.968 -0.1045 -0.0639  0.0196
 1151ERGO    R415931  16.743   2.963   8.775 -0.0465  0.0094  0.0381
 1151ERGO    R515932  16.727   2.750   8.814 -0.0741  0.0006 -0.0370
 1151ERGO    C115933  16.810   2.742   8.442  0.0043  0.1114 -0.0224
 1151ERGO    C215934  16.872   2.523   8.201  0.0203 -0.1696 -0.1149
 1152ERGO   ROH15935   4.404  17.667   9.907  0.0346  0.0032 -0.0323
 1152ERGO    R115936   4.512  17.602   9.653  0.1385 -0.0731  0.0311
 1152ERGO    R215937   4.382  17.661   9.417  0.1889 -0.2354 -0.0349
 1152ERGO    R315938   4.617  17.783   9.356  0.1594 -0.1718 -0.0233
 1152ERGO    R415939   4.502  17.707   9.097  0.0439  0.0628 -0.0506
 1152ERGO    R515940   4.702  17.658   9.170  0.0808 -0.0024 -0.1803
 1152ERGO    C115941   4.793  17.849   8.853 -0.0681  0.2958 -0.0491
 1152ERGO    C215942   4.833  17.847   8.490  0.0464  0.1686 -0.0218
 1153ERGO   ROH15943   2.823  12.916   5.973  0.0908 -0.3033  0.1489
 1153ERGO    R115944   2.933  12.830   6.219  0.1559 -0.1435  0.1771
 1153ERGO    R215945   3.205  12.825   6.267  0.1743 -0.2107  0.0709
 1153ERGO    R315946   3.138  12.975   6.483  0.3206 -0.0039 -0.0244
 1153ERGO    R415947   3.422  12.911   6.521  0.2507 -0.2927  0.0339
 1153ERGO    R515948   3.260  12.876   6.664  0.1993 -0.0297  0.0446
 1153ERGO    C115949   3.486  13.103   6.872  0.4325 -0.1463 -0.0772
 1153ERGO    C215950   3.734  13.110   7.193  0.0677 -0.4517  0.1512
 1154ERGO   ROH15951   0.577  11.320   9.041  0.0980  0.0815  0.1451
 1154ERGO    R115952   0.580  11.396   8.769 -0.0089  0.0561  0.1361
 1154ERGO    R215953   0.815  11.435   8.627 -0.0627  0.0648  0.0451
 1154ERGO    R315954   0.703  11.255   8.457 -0.1094  0.0375  0.1049
 1154ERGO    R415955   0.804  11.468   8.283  0.1513 -0.1559  0.0143
 1154ERGO    R515956   0.601  11.389   8.287  0.0872  0.0046 -0.0415
 1154ERGO    C115957   0.692  11.319   7.923  0.2321 -0.3100  0.0525
 1154ERGO    C215958   0.601  11.282   7.586  0.1768  0.1434 -0.1490
 1155ERGO   ROH15959  10.820   3.992  10.449 -0.3549  0.2498 -0.0727
 1155ERGO    R115960  10.869   4.094  10.189  0.1083  0.1919 -0.0160
 1155ERGO    R215961  11.094   4.026  10.043 -0.0074 -0.4826  0.0800
 1155ERGO    R315962  10.911   3.956   9.855 -0.1561  0.1591 -0.0358
 1155ERGO    R415963  11.140   4.055   9.702  0.2910 -0.6003  0.1068
 1155ERGO    R515964  10.934   4.123   9.685  0.5129  0.1142 -0.0112
 1155ERGO    C115965  10.994   4.007   9.327  0.3249 -0.0664  0.0137
 1155ERGO    C215966  10.833   4.047   8.979 -0.1366  0.0576  0.0419
 1156ERGO   ROH15967  11.626   5.355  10.325 -0.0450  0.2329  0.1558
 1156ERGO    R115968  11.686   5.292  10.056 -0.0872  0.2215  0.1492
 1156ERGO    R215969  11.503   5.175   9.886 -0.1186  0.2287  0.1789
 1156ERGO    R315970  11.562   5.388   9.728 -0.1272  0.2204  0.1640
 1156ERGO    R415971  11.525   5.165   9.541  0.0185  0.1755  0.1886
 1156ERGO    R515972  11.699   5.297   9.554 -0.0292  0.2344  0.2327
 1156ERGO    C115973  11.594   5.359   9.192  0.0903  0.1368  0.1801
 1156ERGO    C215974  11.520   5.268   8.895 -0.2184 -0.0645 -0.0114
 1157ERGO   ROH15975   9.343  11.568  10.086  0.0913 -0.1141 -0.0825
 1157ERGO    R115976   9.406  11.667   9.828 -0.0632 -0.0481 -0.0970
 1157ERGO    R215977   9.584  11.539   9.659  0.0296  0.1269 -0.1417
 1157ERGO    R315978   9.375  11.548   9.486 -0.0239 -0.0788 -0.0888
 1157ERGO    R415979   9.611  11.565   9.315 -0.0893  0.0932 -0.1532
 1157ERGO    R515980   9.443  11.703   9.317 -0.2029 -0.0509 -0.1331
 1157ERGO    C115981   9.431  11.589   8.953 -0.2088 -0.1193 -0.1103
 1157ERGO    C215982   9.438  11.464   8.624 -0.1670  0.1357  0.5305
 1158ERGO   ROH15983   5.715   5.387   9.618 -0.0332  0.0945  0.0504
 1158ERGO    R115984   5.670   5.489   9.358  0.0199  0.0463  0.0222
 1158ERGO    R215985   5.873   5.518   9.173  0.0384 -0.0970  0.0184
 1158ERGO    R315986   5.709   5.368   9.016 -0.0279 -0.0630  0.0549
 1158ERGO    R415987   5.877   5.517   8.827 -0.1400  0.0124  0.0145
 1158ERGO    R515988   5.659   5.510   8.830 -0.1383 -0.0089  0.1247
 1158ERGO    C115989   5.726   5.375   8.479 -0.3061  0.1080  0.0465
 1158ERGO    C215990   5.734   5.245   8.082  0.0062 -0.2496 -0.0533
 1159ERGO   ROH15991   3.798   9.898   9.179 -0.0901 -0.2884  0.0364
 1159ERGO    R115992   3.774   9.825   8.907 -0.1676 -0.1575  0.0069
 1159ERGO    R215993   3.603   9.954   8.733 -0.0065  0.1208  0.0448
 1159ERGO    R315994   3.829   9.985   8.585  0.0429 -0.0979  0.0711
 1159ERGO    R415995   3.616   9.941   8.388  0.0257  0.1229  0.0462
 1159ERGO    R515996   3.803   9.831   8.404 -0.0876 -0.0634  0.0623
 1159ERGO    C115997   3.836   9.963   8.048  0.0909 -0.0811  0.0717
 1159ERGO    C215998   3.702  10.129   7.742  0.2627 -0.0364  0.0926
 1160ERGO   ROH15999  12.944   2.738   6.545  0.1829 -0.2496 -0.1362
 1160ERGO    R116000  12.832   2.558   6.733  0.1349 -0.2053 -0.1232
 1160ERGO    R216001  12.968   2.336   6.826  0.1625 -0.1092  0.0630
 1160ERGO    R316002  12.912   2.444   7.069 -0.0310 -0.0210 -0.0177
 1160ERGO    R416003  12.940   2.157   7.120  0.1899  0.0230  0.1476
 1160ERGO    R516004  12.771   2.282   7.174  0.0576 -0.0857  0.0080
 1160ERGO    C116005  12.871   2.154   7.519  0.0241  0.1828  0.1212
 1160ERGO    C216006  12.901   2.035   7.849 -0.0182 -0.3075  0.1210
 1161ERGO   ROH16007   5.074  11.827   5.916  0.2458 -0.0531 -0.0494
 1161ERGO    R116008   5.019  11.745   6.181  0.3769 -0.0895 -0.0326
 1161ERGO    R216009   5.193  11.792   6.391  0.2640  0.3215 -0.0219
 1161ERGO    R316010   4.974  11.907   6.504  0.0132 -0.0797 -0.0844
 1161ERGO    R416011   5.160  11.866   6.727 -0.0562  0.0786  0.0038
 1161ERGO    R516012   4.953  11.798   6.716  0.0496 -0.2367 -0.1597
 1161ERGO    C116013   4.934  12.016   7.028 -0.4782 -0.4395 -0.0398
 1161ERGO    C216014   4.777  12.149   7.410  0.2572  0.2617 -0.0512
 1162ERGO   ROH16015   0.003  18.460   5.744  0.1701  0.1757 -0.0117
 1162ERGO    R116016  -0.016  18.531   6.017  0.0565  0.1411 -0.0098
 1162ERGO    R216017  -0.258  18.576   6.142  0.0051  0.1827 -0.1180
 1162ERGO    R316018  -0.166  18.390   6.317 -0.1232  0.1333 -0.1026
 1162ERGO    R416019  -0.416  18.486   6.437 -0.0226  0.3570 -0.0789
 1162ERGO    R516020  -0.221  18.479   6.533 -0.0157  0.2105 -0.1087
 1162ERGO    C116021  -0.421  18.259   6.772 -0.1590  0.4120 -0.0417
 1162ERGO    C216022  -0.605  18.032   7.027  0.2329  0.0374 -0.2054
 1163ERGO   ROH16023  12.369  16.325   6.319 -0.3102 -0.1157 -0.0460
 1163ERGO    R116024  12.486  16.238   6.562 -0.1969  0.0440 -0.0417
 1163ERGO    R216025  12.337  16.135   6.770 -0.0788 -0.0156  0.0138
 1163ERGO    R316026  12.509  15.926   6.747  0.0831  0.1119  0.0432
 1163ERGO    R416027  12.440  15.935   7.033 -0.0741 -0.0147  0.0125
 1163ERGO    R516028  12.641  15.935   6.947 -0.0273  0.1518  0.1159
 1163ERGO    C116029  12.662  15.622   7.164  0.0805  0.1055  0.0393
 1163ERGO    C216030  12.646  15.503   7.514 -0.1255 -0.2901 -0.0573
 1164ERGO   ROH16031   2.663   8.325   9.136  0.1194  0.2283 -0.0906
 1164ERGO    R116032   2.634   8.152   8.914  0.0651  0.1341 -0.0110
 1164ERGO    R216033   2.388   8.072   8.819  0.0412  0.1214  0.0609
 1164ERGO    R316034   2.483   8.168   8.583  0.0169  0.0067  0.0038
 1164ERGO    R416035   2.314   7.940   8.508 -0.2040  0.1276  0.1145
 1164ERGO    R516036   2.523   7.972   8.451 -0.1999 -0.0495  0.0175
 1164ERGO    C116037   2.361   7.953   8.106 -0.3695  0.0234  0.0922
 1164ERGO    C216038   2.130   7.688   7.925 -0.3121 -0.0304 -0.1147
 1165ERGO   ROH16039   9.088  14.012   6.690  0.0791  0.0843  0.0755
 1165ERGO    R116040   9.135  13.979   6.968  0.0074  0.0504  0.0842
 1165ERGO    R216041   9.047  14.160   7.156 -0.0767  0.0080  0.0889
 1165ERGO    R316042   8.932  13.940   7.267 -0.0707 -0.0292  0.0207
 1165ERGO    R416043   8.987  14.117   7.494 -0.0591 -0.1101  0.0772
 1165ERGO    R516044   9.049  13.909   7.474 -0.0615 -0.1014  0.0033
 1165ERGO    C116045   8.845  13.885   7.795 -0.0433 -0.2134  0.0065
 1165ERGO    C216046   8.675  13.866   8.130 -0.1978  0.4598 -0.1862
 1166ERGO   ROH16047   2.680   6.760   9.540  0.1650  0.0118 -0.1151
 1166ERGO    R116048   2.536   6.755   9.297  0.1758 -0.0823 -0.1206
 1166ERGO    R216049   2.425   6.982   9.184  0.0130 -0.1541 -0.1166
 1166ERGO    R316050   2.569   6.905   8.967  0.0800 -0.0426 -0.1114
 1166ERGO    R416051   2.419   7.140   8.877  0.0755 -0.0309 -0.0548
 1166ERGO    R516052   2.423   6.944   8.781  0.1278  0.0125 -0.1340
 1166ERGO    C116053   2.551   7.159   8.494  0.1748  0.1453 -0.0139
 1166ERGO    C216054   2.578   7.445   8.251  0.1130 -0.1598 -0.0591
 1167ERGO   ROH16055  12.575  13.039   6.726  0.0191 -0.0284  0.0789
 1167ERGO    R116056  12.442  13.074   6.973 -0.0019 -0.0167  0.0664
 1167ERGO    R216057  12.471  12.897   7.183 -0.0088 -0.0004  0.0835
 1167ERGO    R316058  12.538  13.121   7.321 -0.0301  0.0141  0.0697
 1167ERGO    R416059  12.503  12.916   7.527  0.0207  0.0175  0.0794
 1167ERGO    R516060  12.406  13.111   7.520 -0.0088  0.0015  0.0820
 1167ERGO    C116061  12.585  13.137   7.856  0.0180  0.0416  0.0641
 1167ERGO    C216062  12.716  13.250   8.129  0.0544 -0.1386 -0.1333
 1168ERGO   ROH16063   3.543  11.523   9.194  0.2097  0.0335 -0.1532
 1168ERGO    R116064   3.659  11.524   8.935  0.3802  0.0648 -0.0772
 1168ERGO    R216065   3.903  11.406   8.881  0.1623 -0.4192 -0.0359
 1168ERGO    R316066   3.761  11.274   8.691 -0.0126  0.0960 -0.2841
 1168ERGO    R416067   4.003  11.364   8.553  0.2843 -0.2417 -0.0244
 1168ERGO    R516068   3.798  11.400   8.490  0.3821  0.2688 -0.1203
 1168ERGO    C116069   3.927  11.215   8.183  0.1912  0.3454 -0.2506
 1168ERGO    C216070   4.008  11.202   7.845 -0.1538  0.1672 -0.1225
 1169ERGO   ROH16071  15.451  14.485   6.365 -0.0584  0.0883  0.1981
 1169ERGO    R116072  15.647  14.285   6.404 -0.0244  0.1121  0.1492
 1169ERGO    R216073  15.785  14.256   6.642 -0.0243  0.0735  0.1439
 1169ERGO    R316074  15.694  14.001   6.626  0.0212  0.0612  0.0751
 1169ERGO    R416075  15.882  13.999   6.852  0.0698  0.0203  0.0361
 1169ERGO    R516076  15.886  13.867   6.679  0.0588  0.0798 -0.0111
 1169ERGO    C116077  15.854  13.610   6.959  0.1671 -0.0222 -0.0912
 1169ERGO    C216078  15.926  13.332   7.041 -0.0215  0.0435 -0.0434
 1170ERGO   ROH16079  12.682  10.047   6.688 -0.0206 -0.1501  0.0308
 1170ERGO    R116080  12.841  10.247   6.808 -0.0601 -0.1012  0.0021
 1170ERGO    R216081  12.984  10.203   7.041  0.0286 -0.0711 -0.0472
 1170ERGO    R316082  13.193  10.291   6.891 -0.0503  0.0264 -0.1024
 1170ERGO    R416083  13.307  10.245   7.158  0.0393  0.0841 -0.1286
 1170ERGO    R516084  13.320  10.428   7.040 -0.0775  0.0900 -0.1360
 1170ERGO    C116085  13.691  10.350   7.085 -0.0283  0.2660 -0.2277
 1170ERGO    C216086  14.032  10.364   7.230  0.4875 -0.0631 -0.0503
 1171ERGO   ROH16087  16.959   1.280   9.595 -0.1633 -0.0961  0.0742
 1171ERGO    R116088  16.809   1.394   9.383  0.0665  0.1015  0.0125
 1171ERGO    R216089  16.928   1.503   9.158  0.3016 -0.1847 -0.0127
 1171ERGO    R316090  16.765   1.330   9.027  0.0075  0.0531  0.0295
 1171ERGO    R416091  16.869   1.506   8.818  0.3166 -0.1865 -0.0152
 1171ERGO    R516092  16.659   1.464   8.858  0.2396  0.1832 -0.0123
 1171ERGO    C116093  16.681   1.345   8.496  0.0495  0.0358  0.0230
 1171ERGO    C216094  16.661   1.268   8.146  0.1320 -0.2490 -0.2714
 1172ERGO   ROH16095   5.414   9.397   9.508  0.2122  0.1206 -0.0688
 1172ERGO    R116096   5.278   9.397   9.259  0.0904  0.1455 -0.0019
 1172ERGO    R216097   5.333   9.581   9.060  0.1775 -0.0004 -0.1058
 1172ERGO    R316098   5.368   9.358   8.909 -0.1238 -0.1020 -0.0340
 1172ERGO    R416099   5.274   9.563   8.720  0.3056  0.0335 -0.1305
 1172ERGO    R516100   5.187   9.365   8.751 -0.0488  0.1745 -0.1212
 1172ERGO    C116101   5.273   9.344   8.380  0.0973 -0.0420 -0.0775
 1172ERGO    C216102   5.256   9.370   8.049 -0.1325 -0.1101 -0.1340
 1173ERGO   ROH16103   4.572   6.606   9.572 -0.1975  0.0024 -0.0409
 1173ERGO    R116104   4.486   6.529   9.313 -0.1235  0.0261 -0.0725
 1173ERGO    R216105   4.378   6.708   9.133  0.0754  0.0717 -0.1446
 1173ERGO    R316106   4.573   6.611   8.970  0.0912 -0.0703 -0.0434
 1173ERGO    R416107   4.402   6.771   8.794  0.2329 -0.0297 -0.1536
 1173ERGO    R516108   4.460   6.563   8.764  0.1423 -0.0702 -0.0740
 1173ERGO    C116109   4.599   6.716   8.444  0.3393 -0.2220 -0.0638
 1173ERGO    C216110   4.573   6.575   8.116  0.1998 -0.1282  0.0337
 1174ERGO   ROH16111  16.074   3.349   5.803  0.2308  0.3419  0.0303
 1174ERGO    R116112  16.071   3.247   6.068  0.0602  0.1659 -0.0377
 1174ERGO    R216113  16.298   3.240   6.228 -0.0272 -0.0154  0.0727
 1174ERGO    R316114  16.139   3.377   6.401 -0.0686 -0.0807  0.0890
 1174ERGO    R416115  16.329   3.235   6.571  0.1845  0.1982  0.0597
 1174ERGO    R516116  16.113   3.230   6.587  0.1912 -0.0151  0.1870
 1174ERGO    C116117  16.199   3.361   6.934  0.2691  0.2613  0.0675
 1174ERGO    C216118  16.187   3.587   7.192  0.0329  0.3091  0.0391
 1175ERGO   ROH16119   6.312   8.690   5.960  0.0210  0.1374  0.0470
 1175ERGO    R116120   6.303   8.717   6.242  0.0210  0.0842  0.0526
 1175ERGO    R216121   6.116   8.877   6.370  0.0310  0.0744  0.0830
 1175ERGO    R316122   6.062   8.648   6.506  0.0134  0.0517  0.0367
 1175ERGO    R416123   5.987   8.863   6.690 -0.1562  0.0185  0.0060
 1175ERGO    R516124   6.122   8.697   6.732 -0.1354  0.0541  0.0758
 1175ERGO    C116125   5.861   8.640   7.004 -0.2817 -0.0355 -0.0823
 1175ERGO    C216126   5.624   8.506   7.073  0.2348  0.0441 -0.1261
 1176ERGO   ROH16127   5.771   8.242   9.839  0.1386 -0.4900 -0.0598
 1176ERGO    R116128   5.851   8.319   9.578  0.1748 -0.3387 -0.0039
 1176ERGO    R216129   6.084   8.228   9.461  0.0706 -0.4574 -0.1113
 1176ERGO    R316130   5.916   8.153   9.261 -0.0265 -0.1253 -0.1623
 1176ERGO    R416131   6.146   8.270   9.124  0.1965 -0.4419 -0.0875
 1176ERGO    R516132   5.937   8.325   9.097  0.2785 -0.0956 -0.1030
 1176ERGO    C116133   6.024   8.224   8.740  0.1787 -0.1211 -0.1215
 1176ERGO    C216134   6.063   8.334   8.446  0.1782 -0.0912 -0.2002
 1177ERGO   ROH16135   5.994  17.799  10.053 -0.0504 -0.0993  0.1388
 1177ERGO    R116136   5.912  17.713   9.796 -0.2518  0.1816  0.1048
 1177ERGO    R216137   5.851  17.891   9.592  0.1922  0.4095  0.1555
 1177ERGO    R316138   6.035  17.745   9.455 -0.1465 -0.0086  0.1251
 1177ERGO    R416139   5.893  17.896   9.249  0.1733  0.3294  0.1518
 1177ERGO    R516140   5.923  17.681   9.254 -0.3157  0.2538  0.1347
 1177ERGO    C116141   6.090  17.763   8.921 -0.1556 -0.1096  0.1212
 1177ERGO    C216142   6.134  17.731   8.577  0.0469  0.0145 -0.1764
 1178ERGO   ROH16143  14.546  17.731   6.176 -0.1265  0.0094 -0.0051
 1178ERGO    R116144  14.816  17.808   6.211 -0.1373  0.0638 -0.0399
 1178ERGO    R216145  14.933  17.831   6.460 -0.0735 -0.0378 -0.0599
 1178ERGO    R316146  15.116  17.661   6.353 -0.0570  0.0681 -0.2028
 1178ERGO    R416147  15.265  17.813   6.555 -0.0865 -0.1280 -0.0301
 1178ERGO    R516148  15.318  17.789   6.345 -0.0569  0.0793 -0.0483
 1178ERGO    C116149  15.630  17.643   6.510 -0.0787 -0.0811 -0.1470
 1178ERGO    C216150  15.911  17.646   6.722 -0.1780 -0.1775  0.0675
 1179ERGO   ROH16151  10.865  18.025   6.582  0.2518 -0.2385  0.1894
 1179ERGO    R116152  10.858  18.230   6.777  0.1527 -0.1676  0.1133
 1179ERGO    R216153  10.709  18.460   6.746  0.1518 -0.1858 -0.0364
 1179ERGO    R316154  10.606  18.387   6.987  0.0492 -0.1064 -0.0558
 1179ERGO    R416155  10.557  18.676   6.970  0.1329 -0.0977 -0.1336
 1179ERGO    R516156  10.657  18.570   7.132  0.0484 -0.0901 -0.0772
 1179ERGO    C116157  10.371  18.732   7.326  0.0258  0.0284 -0.2086
 1179ERGO    C216158  10.175  18.844   7.611  0.1103 -0.1125 -0.0433
 1180ERGO   ROH16159   6.826  15.330   6.265  0.1665 -0.1033  0.0510
 1180ERGO    R116160   6.560  15.304   6.358  0.0777  0.0112 -0.1671
 1180ERGO    R216161   6.375  15.141   6.233  0.2237 -0.2107 -0.0950
 1180ERGO    R316162   6.348  15.035   6.482 -0.0088  0.1781  0.0550
 1180ERGO    R416163   6.151  14.892   6.317  0.3999 -0.3445 -0.0142
 1180ERGO    R516164   6.112  14.997   6.504 -0.0060 -0.0641 -0.2376
 1180ERGO    C116165   5.995  14.647   6.599  0.2842 -0.0573  0.1737
 1180ERGO    C216166   5.790  14.439   6.829 -0.1503 -0.2125 -0.1369
 1181ERGO   ROH16167   0.893   9.969   9.124 -0.1674  0.0317 -0.0245
 1181ERGO    R116168   0.899  10.084   8.865  0.0357  0.0704 -0.0043
 1181ERGO    R216169   1.126  10.085   8.707  0.0658 -0.2246  0.0312
 1181ERGO    R316170   0.961   9.969   8.526 -0.0750  0.0384 -0.0139
 1181ERGO    R416171   1.197  10.045   8.371  0.0930 -0.3348  0.0498
 1181ERGO    R516172   0.991  10.097   8.326  0.1834 -0.0045 -0.0053
 1181ERGO    C116173   1.083   9.913   8.005 -0.0233 -0.1521  0.0183
 1181ERGO    C216174   0.943   9.724   7.722  0.3711 -0.0811 -0.0761
 1182ERGO   ROH16175  12.464   5.786   6.547  0.0045  0.0133 -0.0693
 1182ERGO    R116176  12.575   5.845   6.801 -0.1359 -0.2232  0.0506
 1182ERGO    R216177  12.664   5.649   6.974  0.0720 -0.3757 -0.2217
 1182ERGO    R316178  12.893   5.794   6.969 -0.1090 -0.0661  0.0489
 1182ERGO    R416179  12.913   5.632   7.212 -0.0124 -0.3316 -0.1299
 1182ERGO    R516180  12.934   5.849   7.198 -0.2850 -0.2806  0.1351
 1182ERGO    C116181  13.274   5.759   7.347 -0.2313 -0.0155  0.1777
 1182ERGO    C216182  13.547   5.608   7.283  0.3060  0.2671 -0.0332
 1183ERGO   ROH16183  11.158   8.608   6.810 -0.0795 -0.2513  0.3771
 1183ERGO    R116184  11.205   8.825   6.986 -0.0864 -0.0221  0.1049
 1183ERGO    R216185  11.037   9.043   7.002 -0.2547 -0.1401  0.0311
 1183ERGO    R316186  11.033   8.981   7.266  0.0514  0.1291  0.1057
 1183ERGO    R416187  10.837   9.197   7.238 -0.2621 -0.1627  0.0388
 1183ERGO    R516188  11.005   9.191   7.377 -0.1361  0.2086 -0.0919
 1183ERGO    C116189  10.716   9.227   7.624  0.0210  0.0769  0.1133
 1183ERGO    C216190  10.566   9.434   7.853 -0.0219 -0.0859 -0.0942
 1184ERGO   ROH16191  16.623  10.317   5.979 -0.0769  0.0849 -0.0860
 1184ERGO    R116192  16.755  10.392   6.218 -0.0151 -0.1027 -0.0584
 1184ERGO    R216193  17.031  10.388   6.244  0.0035  0.0190 -0.1846
 1184ERGO    R316194  16.995  10.647   6.317 -0.1122 -0.0772  0.1106
 1184ERGO    R416195  17.238  10.563   6.458 -0.0312 -0.0994 -0.0536
 1184ERGO    R516196  17.061  10.653   6.547 -0.0505 -0.2900  0.0979
 1184ERGO    C116197  17.325  10.908   6.652 -0.1598 -0.2585  0.2998
 1184ERGO    C216198  17.278  11.234   6.897 -0.2284 -0.1969  0.1085
 1185ERGO   ROH16199   2.132  11.651   9.054  0.0248 -0.1717  0.1163
 1185ERGO    R116200   2.282  11.638   8.815  0.0173 -0.0184  0.1021
 1185ERGO    R216201   2.266  11.425   8.640  0.2442 -0.0551  0.1204
 1185ERGO    R316202   2.211  11.620   8.458  0.0006 -0.1293  0.1113
 1185ERGO    R416203   2.282  11.385   8.297  0.2239 -0.0674  0.1211
 1185ERGO    R516204   2.370  11.584   8.283  0.0073  0.0274  0.0859
 1185ERGO    C116205   2.240  11.545   7.927 -0.0166 -0.1444  0.1128
 1185ERGO    C216206   2.335  11.466   7.639 -0.3983 -0.0043 -0.1481
 1186ERGO   ROH16207   0.936  18.167   9.672  0.1761  0.3165  0.1585
 1186ERGO    R116208   1.029  18.238   9.414  0.1617  0.3275  0.1559
 1186ERGO    R216209   0.907  18.149   9.182  0.3017  0.1274  0.1549
 1186ERGO    R316210   0.895  18.414   9.124  0.0445  0.0997  0.0697
 1186ERGO    R416211   1.016  18.293   8.887  0.2820  0.1576  0.1627
 1186ERGO    R516212   1.097  18.458   9.003  0.0529  0.2797  0.1493
 1186ERGO    C116213   1.069  18.626   8.662  0.0291  0.1494  0.0873
 1186ERGO    C216214   1.178  18.654   8.437 -0.1754  0.1554 -0.1125
 1187ERGO   ROH16215   3.059  13.858   8.995 -0.0260  0.0876 -0.0865
 1187ERGO    R116216   3.063  13.973   8.736 -0.1177 -0.0717 -0.1597
 1187ERGO    R216217   3.271  14.132   8.647 -0.3255  0.1864 -0.1925
 1187ERGO    R316218   3.276  13.953   8.442  0.0082  0.0574 -0.0787
 1187ERGO    R416219   3.394  14.197   8.331 -0.4241  0.2107 -0.2265
 1187ERGO    R516220   3.227  14.084   8.248 -0.2215 -0.1493 -0.1669
 1187ERGO    C116221   3.471  14.068   7.954 -0.1683  0.1037 -0.1395
 1187ERGO    C216222   3.593  13.988   7.664 -0.1267 -0.0315  0.1356
 1188ERGO   ROH16223   8.210  16.032   6.601 -0.3484 -0.1363  0.1847
 1188ERGO    R116224   8.199  16.060   6.882 -0.1484  0.0782  0.1744
 1188ERGO    R216225   8.424  16.051   7.042 -0.0539 -0.0152  0.0426
 1188ERGO    R316226   8.333  16.291   7.130  0.2226  0.1374 -0.0739
 1188ERGO    R416227   8.475  16.177   7.360 -0.0901 -0.0103  0.0461
 1188ERGO    R516228   8.270  16.251   7.358  0.0128  0.2785 -0.1064
 1188ERGO    C116229   8.419  16.476   7.627  0.1484  0.1360 -0.0613
 1188ERGO    C216230   8.488  16.664   7.973  0.2867  0.1318  0.0137
 1189ERGO   ROH16231   1.296  14.216   5.777  0.0905 -0.0779  0.0458
 1189ERGO    R116232   1.074  14.168   5.947  0.0731 -0.0496  0.0314
 1189ERGO    R216233   1.096  14.029   6.185  0.0816  0.1349  0.1413
 1189ERGO    R316234   0.980  14.251   6.288 -0.0396  0.1629 -0.0503
 1189ERGO    R416235   1.026  14.077   6.519  0.0628  0.3905  0.1019
 1189ERGO    R516236   0.837  14.169   6.461  0.0107  0.2351  0.0254
 1189ERGO    C116237   0.875  14.315   6.811 -0.0620  0.5655 -0.1008
 1189ERGO    C216238   0.682  14.265   7.111  0.0278  0.0701  0.2022
 1190ERGO   ROH16239   5.306   7.669   9.855 -0.0577 -0.0768  0.0803
 1190ERGO    R116240   5.340   7.517   9.619 -0.0520 -0.1032  0.0984
 1190ERGO    R216241   5.134   7.473   9.439 -0.0499 -0.1360  0.1072
 1190ERGO    R316242   5.312   7.576   9.261 -0.0588 -0.1495  0.0903
 1190ERGO    R416243   5.110   7.444   9.096  0.0541 -0.3775  0.1184
 1190ERGO    R516244   5.325   7.411   9.088  0.0797 -0.2610  0.1999
 1190ERGO    C116245   5.264   7.523   8.729  0.1063 -0.5307  0.1091
 1190ERGO    C216246   5.284   7.564   8.413  0.3973  0.0504 -0.0249
 1191ERGO   ROH16247  15.372  17.134   9.673 -0.2369 -0.2693  0.1572
 1191ERGO    R116248  15.346  16.982   9.436 -0.2306 -0.1721  0.0928
 1191ERGO    R216249  15.117  16.986   9.281 -0.1998 -0.0492  0.0444
 1191ERGO    R316250  15.291  17.050   9.083 -0.1385 -0.0201  0.1078
 1191ERGO    R416251  15.045  16.975   8.943 -0.0127 -0.2391  0.0091
 1191ERGO    R516252  15.244  16.893   8.909  0.0576 -0.1235  0.1478
 1191ERGO    C116253  15.167  17.029   8.560  0.1538 -0.3225  0.0480
 1191ERGO    C216254  14.965  17.078   8.253 -0.0293  0.0786  0.3386
 1192ERGO   ROH16255   3.266  10.901   5.801  0.2269  0.0032 -0.0843
 1192ERGO    R116256   3.344  10.874   6.072  0.1984  0.0372 -0.0734
 1192ERGO    R216257   3.579  10.980   6.170  0.1348  0.1368 -0.0406
 1192ERGO    R316258   3.413  11.098   6.351  0.0621  0.0659 -0.0596
 1192ERGO    R416259   3.682  11.130   6.465  0.0089 -0.1919  0.1758
 1192ERGO    R516260   3.508  11.042   6.564 -0.1238 -0.1888 -0.0335
 1192ERGO    C116261   3.585  11.327   6.806 -0.1327 -0.4499  0.2839
 1192ERGO    C216262   3.587  11.549   7.059  0.1117 -0.1872 -0.0087
 1193ERGO   ROH16263  15.063  13.625   9.281  0.3748 -0.0624  0.0489
 1193ERGO    R116264  14.944  13.636   9.025  0.1730 -0.2631  0.1309
 1193ERGO    R216265  15.021  13.820   8.832 -0.2711 -0.1237  0.0732
 1193ERGO    R316266  15.054  13.597   8.680  0.0044 -0.0730  0.0540
 1193ERGO    R416267  14.981  13.806   8.489  0.0022 -0.0933  0.0383
 1193ERGO    R516268  14.884  13.613   8.512  0.1219 -0.1662 -0.0738
 1193ERGO    C116269  14.989  13.589   8.147  0.4201 -0.0280 -0.0001
 1193ERGO    C216270  14.922  13.749   7.854 -0.1281  0.0790 -0.1012
 1194ERGO   ROH16271   2.324   9.001   5.644  0.1694  0.1874  0.0055
 1194ERGO    R116272   2.490   9.139   5.826  0.0859  0.1238  0.1328
 1194ERGO    R216273   2.405   9.213   6.079 -0.0005 -0.0491  0.1617
 1194ERGO    R316274   2.627   9.076   6.158  0.0138 -0.0413  0.1310
 1194ERGO    R416275   2.544   9.226   6.395  0.1585  0.0988  0.0863
 1194ERGO    R516276   2.741   9.228   6.304  0.1110  0.0154 -0.0079
 1194ERGO    C116277   2.832   9.106   6.654  0.2644  0.1923  0.0136
 1194ERGO    C216278   2.955   8.968   6.928 -0.2222 -0.0273 -0.0422
 1195ERGO   ROH16279   0.347   6.093   9.212  0.1492  0.2704  0.0914
 1195ERGO    R116280   0.366   5.988   8.950  0.1735  0.1992  0.1211
 1195ERGO    R216281   0.150   5.878   8.817  0.1947  0.1162  0.1482
 1195ERGO    R316282   0.218   6.058   8.625  0.1617  0.0781  0.1012
 1195ERGO    R416283   0.070   5.849   8.482 -0.0372  0.1601  0.1980
 1195ERGO    R516284   0.269   5.924   8.433 -0.0333  0.0550  0.0673
 1195ERGO    C116285   0.087   6.002   8.107 -0.2031  0.1499  0.1828
 1195ERGO    C216286  -0.171   6.107   7.885 -0.0618  0.1002 -0.3740
 1196ERGO   ROH16287  18.287   7.842   9.151  0.0319  0.0011 -0.0932
 1196ERGO    R116288  18.279   7.695   8.909  0.0484  0.0348 -0.1144
 1196ERGO    R216289  18.058   7.694   8.742 -0.0010 -0.0706 -0.0494
 1196ERGO    R316290  18.240   7.771   8.555 -0.1016  0.0682 -0.0913
 1196ERGO    R416291  18.008   7.680   8.401 -0.1093 -0.0091 -0.0360
 1196ERGO    R516292  18.213   7.612   8.378 -0.0818  0.0993 -0.1225
 1196ERGO    C116293  18.148   7.744   8.026 -0.2669  0.1569 -0.0675
 1196ERGO    C216294  18.112   7.764   7.646  0.1489 -0.2716  0.1373
 1197ERGO   ROH16295   7.551   9.621   9.928 -0.1059 -0.0008  0.1149
 1197ERGO    R116296   7.463   9.688   9.668 -0.2448 -0.1223  0.1292
 1197ERGO    R216297   7.635   9.770   9.469 -0.4032  0.2816  0.1477
 1197ERGO    R316298   7.520   9.567   9.329  0.0122  0.0658  0.1030
 1197ERGO    R416299   7.598   9.766   9.126 -0.3751  0.2668  0.1447
 1197ERGO    R516300   7.399   9.678   9.154 -0.2074 -0.1448  0.1169
 1197ERGO    C116301   7.468   9.573   8.794  0.0312  0.0556  0.1009
 1197ERGO    C216302   7.532   9.643   8.391 -0.0110  0.0110  0.0467
 1198ERGO   ROH16303   6.624   6.823   6.493 -0.0521 -0.1304  0.2058
 1198ERGO    R116304   6.664   6.825   6.773 -0.0509  0.0260  0.2057
 1198ERGO    R216305   6.592   7.039   6.932 -0.1047  0.0929  0.0959
 1198ERGO    R316306   6.455   6.849   7.070 -0.0564  0.1285  0.1929
 1198ERGO    R416307   6.538   7.045   7.273 -0.0128  0.1933  0.1091
 1198ERGO    R516308   6.574   6.829   7.277 -0.0005  0.1984  0.1662
 1198ERGO    C116309   6.377   6.870   7.602  0.0862  0.2853  0.2079
 1198ERGO    C216310   6.091   6.911   7.764 -0.0719 -0.3093 -0.0542
 1199ERGO   ROH16311   9.731  11.898  10.150  0.0170  0.1349 -0.0355
 1199ERGO    R116312   9.801  12.003   9.897  0.0228  0.0106 -0.0843
 1199ERGO    R216313   9.948  11.858   9.712 -0.0589 -0.1132 -0.0439
 1199ERGO    R316314   9.738  11.916   9.549 -0.0539 -0.0959 -0.0464
 1199ERGO    R416315   9.952  11.830   9.367 -0.0118 -0.0152 -0.0528
 1199ERGO    R516316   9.839  12.016   9.356 -0.0417 -0.0224 -0.0087
 1199ERGO    C116317   9.757  11.868   9.014  0.0202  0.0581 -0.0603
 1199ERGO    C216318   9.837  11.828   8.723  0.3983 -0.2018  0.2649
 1200ERGO   ROH16319  16.377  14.442   9.541 -0.0531 -0.0270 -0.0187
 1200ERGO    R116320  16.420  14.310   9.294  0.1430  0.0095 -0.0051
 1200ERGO    R216321  16.234  14.314   9.089  0.1617 -0.2382 -0.0240
 1200ERGO    R316322  16.444  14.407   8.944  0.0634  0.0170 -0.0103
 1200ERGO    R416323  16.230  14.366   8.747  0.0907 -0.1760 -0.0146
 1200ERGO    R516324  16.432  14.285   8.738  0.1845  0.0389 -0.0358
 1200ERGO    C116325  16.425  14.482   8.412 -0.0432  0.0998  0.0037
 1200ERGO    C216326  16.263  14.509   8.181  0.0704 -0.0402  0.1802
 1201ERGO   ROH16327  16.040   9.772   9.679 -0.0217 -0.2657  0.0399
 1201ERGO    R116328  15.922   9.626   9.468 -0.0238 -0.1535 -0.0386
 1201ERGO    R216329  15.684   9.700   9.351  0.0230 -0.0341 -0.0674
 1201ERGO    R316330  15.829   9.689   9.121  0.0735  0.0009 -0.0364
 1201ERGO    R416331  15.549   9.708   9.032  0.0995 -0.0012 -0.0987
 1201ERGO    R516332  15.695   9.556   8.973  0.1167  0.0155 -0.0843
 1201ERGO    C116333  15.608   9.702   8.631  0.1913  0.0508 -0.0876
 1201ERGO    C216334  15.499   9.757   8.231 -0.1659  0.0882  0.1794
 1202ERGO   ROH16335  10.775   6.542   6.573  0.4668 -0.1312  0.0643
 1202ERGO    R116336  10.685   6.567   6.840  0.1045  0.0305 -0.0684
 1202ERGO    R216337  10.853   6.539   7.058 -0.2392 -0.1114  0.1813
 1202ERGO    R316338  10.754   6.784   7.124 -0.0640  0.0174 -0.0139
 1202ERGO    R416339  10.910   6.702   7.358 -0.1384  0.0693  0.0671
 1202ERGO    R516340  10.702   6.767   7.357 -0.0980  0.2267  0.0010
 1202ERGO    C116341  10.849   7.026   7.594  0.0847  0.2954 -0.1827
 1202ERGO    C216342  10.954   7.316   7.915 -0.0787  0.1265 -0.0049
 1203ERGO   ROH16343   3.317   1.191   6.288 -0.1184  0.3224 -0.1598
 1203ERGO    R116344   3.297   1.035   6.523 -0.0924  0.2159 -0.2277
 1203ERGO    R216345   3.362   1.134   6.773 -0.0352  0.0932 -0.1948
 1203ERGO    R316346   3.111   1.052   6.836 -0.0328  0.0923 -0.1850
 1203ERGO    R416347   3.239   1.105   7.095 -0.0593  0.2045 -0.1934
 1203ERGO    R516348   3.139   0.920   7.034 -0.0361  0.1707 -0.1316
 1203ERGO    C116349   2.931   1.011   7.341 -0.0710  0.2685 -0.1833
 1203ERGO    C216350   2.972   1.290   7.565 -0.3453 -0.1302  0.2051
 1204ERGO   ROH16351  13.925   3.078  10.281  0.0083 -0.1035  0.0845
 1204ERGO    R116352  13.892   2.883  10.079  0.0634 -0.0979  0.0692
 1204ERGO    R216353  13.644   2.802   9.988  0.0846 -0.1534  0.0536
 1204ERGO    R316354  13.746   2.869   9.746  0.0781 -0.1093  0.0635
 1204ERGO    R416355  13.492   2.737   9.685  0.1397 -0.2166  0.0403
 1204ERGO    R516356  13.688   2.686   9.603  0.1684 -0.1334  0.0579
 1204ERGO    C116357  13.500   2.763   9.280  0.1654 -0.2121  0.0419
 1204ERGO    C216358  13.477   2.705   9.002 -0.1430  0.0812  0.0267
 1205ERGO   ROH16359   5.173  17.084   6.287 -0.1164  0.0916 -0.0961
 1205ERGO    R116360   5.157  17.096   6.569 -0.1201  0.0850 -0.0971
 1205ERGO    R216361   5.368  17.179   6.727 -0.0980 -0.0003 -0.0913
 1205ERGO    R316362   5.184  17.354   6.825 -0.0353  0.0625 -0.0811
 1205ERGO    R416363   5.347  17.281   7.057 -0.1904 -0.1882 -0.0360
 1205ERGO    R516364   5.130  17.269   7.042 -0.1979 -0.0400 -0.1546
 1205ERGO    C116365   5.162  17.506   7.340 -0.1853 -0.2386  0.0057
 1205ERGO    C216366   5.269  17.663   7.618  0.0741  0.0178 -0.1922
 1206ERGO   ROH16367  15.153   7.553   6.317 -0.1186 -0.2661 -0.2402
 1206ERGO    R116368  15.119   7.648   6.582 -0.0195 -0.1682 -0.2619
 1206ERGO    R216369  14.871   7.699   6.691  0.0239 -0.1026 -0.1970
 1206ERGO    R316370  14.957   7.530   6.886  0.0694 -0.0416 -0.1639
 1206ERGO    R416371  14.803   7.735   7.028 -0.0144 -0.0683 -0.2083
 1206ERGO    R516372  15.008   7.674   7.071  0.0062  0.0091 -0.1837
 1206ERGO    C116373  14.845   7.599   7.407  0.0059  0.0088 -0.1838
 1206ERGO    C216374  14.815   7.743   7.762 -0.0312 -0.4371 -0.1695
 1207ERGO   ROH16375   8.148   1.947  10.231 -0.2657 -0.1052 -0.2255
 1207ERGO    R116376   8.083   2.054   9.977 -0.2011 -0.1173 -0.2470
 1207ERGO    R216377   8.276   2.124   9.791 -0.1452  0.0212 -0.1412
 1207ERGO    R316378   8.133   1.959   9.629  0.0368 -0.0518 -0.2310
 1207ERGO    R416379   8.254   2.154   9.447  0.1637 -0.0933 -0.1744
 1207ERGO    R516380   8.043   2.103   9.461  0.1643 -0.1264 -0.3598
 1207ERGO    C116381   8.108   2.016   9.096  0.5144 -0.2285 -0.2781
 1207ERGO    C216382   8.154   1.953   8.823 -0.1435  0.2527 -0.1825
 1208ERGO   ROH16383  12.171   7.609  10.462  0.0438 -0.2094 -0.0028
 1208ERGO    R116384  12.065   7.509  10.219 -0.1194 -0.1061  0.0226
 1208ERGO    R216385  11.930   7.668  10.038 -0.0001  0.0354  0.0477
 1208ERGO    R316386  12.115   7.570   9.864 -0.1357 -0.1610  0.0125
 1208ERGO    R416387  11.885   7.641   9.696 -0.0158  0.2593  0.0310
 1208ERGO    R516388  11.986   7.448   9.703 -0.3057  0.1053 -0.0540
 1208ERGO    C116389  12.032   7.533   9.334 -0.1522  0.2054 -0.0120
 1208ERGO    C216390  11.907   7.603   9.087  0.2615 -0.2352  0.0110
 1209ERGO   ROH16391   4.422  15.765   9.535 -0.2541 -0.1104  0.0096
 1209ERGO    R116392   4.564  15.794   9.292 -0.1756 -0.1065  0.0565
 1209ERGO    R216393   4.570  15.596   9.099 -0.1823 -0.0677  0.0222
 1209ERGO    R316394   4.483  15.797   8.937 -0.0707 -0.0097  0.0317
 1209ERGO    R416395   4.668  15.643   8.771 -0.2324 -0.1757 -0.0094
 1209ERGO    R516396   4.676  15.858   8.808 -0.0528 -0.1729 -0.0261
 1209ERGO    C116397   4.644  15.859   8.428 -0.1567 -0.1842 -0.0188
 1209ERGO    C216398   4.563  15.949   8.182 -0.5193 -0.1823  0.1088
 1210ERGO   ROH16399   6.746  12.224  10.206 -0.3014  0.0438 -0.0614
 1210ERGO    R116400   6.694  12.212   9.928 -0.1912  0.0485 -0.0845
 1210ERGO    R216401   6.703  12.435   9.764 -0.2043  0.0730 -0.0700
 1210ERGO    R316402   6.877  12.283   9.622 -0.0937  0.1387 -0.0018
 1210ERGO    R416403   6.776  12.477   9.429 -0.0791  0.0769 -0.0410
 1210ERGO    R516404   6.777  12.261   9.407  0.0121  0.0896 -0.0361
 1210ERGO    C116405   6.983  12.358   9.101  0.0977  0.1409  0.0400
 1210ERGO    C216406   6.986  12.199   8.709  0.0572  0.1710 -0.0816
 1211ERGO   ROH16407   6.075  10.524   9.895  0.2712 -0.2672  0.3020
 1211ERGO    R116408   6.100  10.332   9.688  0.2634 -0.1246  0.1727
 1211ERGO    R216409   5.894  10.272   9.515  0.2017 -0.1526  0.2883
 1211ERGO    R316410   6.079  10.332   9.324  0.0293  0.0646  0.1769
 1211ERGO    R416411   5.864  10.196   9.179  0.1760 -0.4725  0.3569
 1211ERGO    R516412   6.075  10.143   9.177  0.3075 -0.0843  0.3216
 1211ERGO    C116413   6.020  10.208   8.805 -0.0008 -0.4550  0.2924
 1211ERGO    C216414   6.020  10.129   8.402  0.2353  0.0503 -0.1623
 1212ERGO   ROH16415   4.694  10.799   5.990  0.0365 -0.0420  0.0477
 1212ERGO    R116416   4.577  10.786   6.247  0.1619 -0.1579  0.1012
 1212ERGO    R216417   4.726  10.750   6.478  0.3267  0.1893  0.0582
 1212ERGO    R316418   4.598  10.976   6.557 -0.0450 -0.0024  0.0212
 1212ERGO    R416419   4.654  10.832   6.805  0.1400  0.0965  0.0407
 1212ERGO    R516420   4.460  10.906   6.739  0.0308 -0.2103  0.0016
 1212ERGO    C116421   4.491  11.093   7.070 -0.3177 -0.1376 -0.0042
 1212ERGO    C216422   4.337  11.211   7.337 -0.1962 -0.2174  0.1627
 1213ERGO   ROH16423   3.996  12.941   9.161 -0.0230  0.0117  0.2291
 1213ERGO    R116424   3.985  12.748   8.954  0.0669 -0.0473  0.2790
 1213ERGO    R216425   3.817  12.774   8.735 -0.0314 -0.2396  0.3322
 1213ERGO    R316426   4.048  12.742   8.595 -0.0523 -0.0792  0.2575
 1213ERGO    R416427   3.835  12.706   8.397 -0.1010 -0.3406  0.3479
 1213ERGO    R516428   3.999  12.568   8.438  0.0426 -0.1811  0.3363
 1213ERGO    C116429   4.062  12.636   8.068 -0.1611 -0.2486  0.2870
 1213ERGO    C216430   4.084  12.513   7.809 -0.1471 -0.1395  0.1022
 1214ERGO   ROH16431  11.236   8.130  10.179 -0.2950  0.1697 -0.0318
 1214ERGO    R116432  11.241   8.231   9.914 -0.1632  0.0805 -0.0638
 1214ERGO    R216433  11.444   8.172   9.736 -0.1132 -0.0398  0.0346
 1214ERGO    R316434  11.238   8.090   9.578 -0.0764 -0.0291 -0.0201
 1214ERGO    R416435  11.434   8.202   9.392  0.0947 -0.2708  0.0050
 1214ERGO    R516436  11.224   8.258   9.408  0.1148 -0.1356 -0.1457
 1214ERGO    C116437  11.235   8.144   9.044  0.2505 -0.3953 -0.0637
 1214ERGO    C216438  11.338   8.180   8.744  0.2651  0.0764 -0.0612
 1215ERGO   ROH16439   2.787   4.538   9.644 -0.0325 -0.0635  0.0089
 1215ERGO    R116440   2.888   4.400   9.419  0.0371 -0.1034  0.0631
 1215ERGO    R216441   2.739   4.358   9.190  0.1086 -0.1379  0.0185
 1215ERGO    R316442   2.952   4.476   9.068  0.1505 -0.1612  0.0713
 1215ERGO    R416443   2.816   4.328   8.854  0.1924 -0.1507  0.0396
 1215ERGO    R516444   3.026   4.312   8.909  0.1755 -0.1697  0.0937
 1215ERGO    C116445   3.060   4.420   8.545  0.2805 -0.1800  0.1014
 1215ERGO    C216446   2.895   4.383   8.299 -0.0628 -0.1169  0.2377
 1216ERGO   ROH16447   3.392  17.721   9.675 -0.0679  0.2393  0.1542
 1216ERGO    R116448   3.372  17.840   9.419 -0.1189  0.0402  0.0641
 1216ERGO    R216449   3.578  17.982   9.305 -0.2299  0.1728  0.0228
 1216ERGO    R316450   3.542  17.808   9.099  0.0035 -0.0130  0.1344
 1216ERGO    R416451   3.599  18.065   8.970 -0.3616 -0.0149 -0.0333
 1216ERGO    R516452   3.427  17.936   8.932 -0.1846 -0.2807  0.0543
 1216ERGO    C116453   3.577  17.950   8.582 -0.2193 -0.2989  0.0388
 1216ERGO    C216454   3.734  18.071   8.321 -0.1192 -0.0386 -0.1096
 1217ERGO   ROH16455   0.912   9.796   5.794  0.0532  0.0990  0.0017
 1217ERGO    R116456   1.049   9.836   6.039 -0.0202  0.2232  0.0244
 1217ERGO    R216457   0.980  10.035   6.218 -0.2103  0.1842  0.0042
 1217ERGO    R316458   0.967   9.828   6.393 -0.0797  0.1795  0.0078
 1217ERGO    R416459   0.955  10.068   6.561 -0.3047  0.1647 -0.0012
 1217ERGO    R516460   1.094   9.902   6.582 -0.1794  0.2803  0.0308
 1217ERGO    C116461   0.928   9.893   6.925 -0.2369  0.1491 -0.0010
 1217ERGO    C216462   0.983   9.911   7.187  0.3017  0.1690  0.2869
 1218ERGO   ROH16463  11.524   2.153   6.741  0.0686 -0.1138  0.0546
 1218ERGO    R116464  11.470   2.266   6.995  0.0916  0.1390 -0.0493
 1218ERGO    R216465  11.492   2.122   7.229 -0.3326  0.2317  0.0570
 1218ERGO    R316466  11.654   2.327   7.303 -0.0074 -0.0129  0.0413
 1218ERGO    R416467  11.517   2.247   7.550 -0.2538  0.3177  0.0174
 1218ERGO    R516468  11.527   2.448   7.465  0.1277  0.2745 -0.0607
 1218ERGO    C116469  11.685   2.513   7.806  0.0973  0.1382 -0.0206
 1218ERGO    C216470  11.719   2.554   8.212  0.2129  0.1305 -0.0375
 1219ERGO   ROH16471   1.838  11.821   8.739 -0.0486  0.0625 -0.0782
 1219ERGO    R116472   1.754  11.811   8.469 -0.0237  0.1385 -0.0910
 1219ERGO    R216473   1.914  11.893   8.259  0.0378  0.1046 -0.0674
 1219ERGO    R316474   1.862  11.643   8.164 -0.0560  0.1383 -0.1000
 1219ERGO    R416475   1.852  11.817   7.928 -0.0738  0.1732 -0.0612
 1219ERGO    R516476   1.697  11.678   7.994 -0.0888  0.2076 -0.0475
 1219ERGO    C116477   1.767  11.538   7.646 -0.2268  0.2447 -0.0882
 1219ERGO    C216478   1.924  11.607   7.272  0.1960  0.0943  0.2254
 1220ERGO   ROH16479   5.076   9.939   5.958 -0.0427  0.0975  0.0303
 1220ERGO    R116480   5.020   9.952   6.236  0.0287  0.0744  0.0465
 1220ERGO    R216481   5.107   9.760   6.415  0.0160  0.0210 -0.0004
 1220ERGO    R316482   5.213   9.975   6.543  0.1118 -0.0276  0.0016
 1220ERGO    R416483   5.232   9.756   6.737 -0.0212 -0.0237  0.0133
 1220ERGO    R516484   5.140   9.950   6.770  0.0759  0.0228 -0.0065
 1220ERGO    C116485   5.405   9.955   7.045  0.0470 -0.0953  0.0232
 1220ERGO    C216486   5.502  10.056   7.397 -0.1171  0.3204 -0.0405
 1221ERGO   ROH16487   4.491   1.664   9.765  0.1146  0.2795  0.0364
 1221ERGO    R116488   4.414   1.580   9.506  0.0735  0.0183  0.1301
 1221ERGO    R216489   4.315   1.755   9.316 -0.1784 -0.2107  0.0449
 1221ERGO    R316490   4.515   1.652   9.163 -0.1506 -0.1329  0.0291
 1221ERGO    R416491   4.342   1.792   8.973 -0.1494 -0.0819  0.0609
 1221ERGO    R516492   4.408   1.584   8.961 -0.1239 -0.0715 -0.0071
 1221ERGO    C116493   4.545   1.717   8.631 -0.1065  0.0661  0.0554
 1221ERGO    C216494   4.415   1.685   8.326  0.1613 -0.0603 -0.2188
 1222ERGO   ROH16495   1.945   5.068   9.458 -0.0948 -0.2110  0.1039
 1222ERGO    R116496   1.938   4.926   9.214 -0.0399 -0.0671  0.0166
 1222ERGO    R216497   1.776   5.001   9.002 -0.0234  0.0370  0.0348
 1222ERGO    R316498   2.010   4.997   8.864 -0.0002  0.1551  0.0706
 1222ERGO    R416499   1.803   5.007   8.658  0.0457  0.1617  0.0420
 1222ERGO    R516500   1.964   4.862   8.673  0.0820  0.2105  0.0180
 1222ERGO    C116501   2.039   5.007   8.328  0.1077  0.3452  0.0798
 1222ERGO    C216502   2.214   5.177   8.134 -0.0573 -0.0059  0.0187
 1223ERGO   ROH16503   8.877   8.997   6.474  0.0840  0.1641  0.0632
 1223ERGO    R116504   8.735   8.881   6.690  0.0578  0.0685 -0.0043
 1223ERGO    R216505   8.810   8.918   6.953  0.0319 -0.0554  0.0225
 1223ERGO    R316506   8.552   9.000   6.980  0.0323 -0.0589  0.0323
 1223ERGO    R416507   8.615   8.869   7.235  0.0504 -0.0372  0.0380
 1223ERGO    R516508   8.446   8.825   7.104  0.0435 -0.0507  0.0524
 1223ERGO    C116509   8.260   8.918   7.424  0.0614 -0.0298  0.0561
 1223ERGO    C216510   8.036   9.135   7.714 -0.1000  0.0417  0.1354
 1224ERGO   ROH16511   2.038   7.298   9.249 -0.1580 -0.0046  0.0073
 1224ERGO    R116512   2.001   7.108   9.043 -0.0711  0.0821 -0.0896
 1224ERGO    R216513   1.755   7.061   8.927 -0.0424  0.0543 -0.1375
 1224ERGO    R316514   1.890   7.111   8.697 -0.0358  0.2120 -0.1004
 1224ERGO    R416515   1.621   7.034   8.610  0.0509 -0.0258 -0.1708
 1224ERGO    R516516   1.809   6.946   8.543  0.1494  0.1562 -0.1419
 1224ERGO    C116517   1.670   7.066   8.208  0.1115  0.0756 -0.1553
 1224ERGO    C216518   1.455   7.099   7.941  0.1389 -0.2211  0.1076
 1225ERGO   ROH16519  14.381   0.065   9.717 -0.1859  0.1759 -0.0432
 1225ERGO    R116520  14.293   0.209   9.490  0.0330  0.2142 -0.1060
 1225ERGO    R216521  14.451   0.246   9.266  0.1195 -0.0594 -0.0916
 1225ERGO    R316522  14.238   0.138   9.137  0.0024  0.1669 -0.0927
 1225ERGO    R416523  14.377   0.293   8.932  0.3470 -0.2139 -0.1662
 1225ERGO    R516524  14.167   0.308   8.985  0.3390  0.1623 -0.2679
 1225ERGO    C116525  14.133   0.218   8.616  0.3696 -0.0914 -0.2106
 1225ERGO    C216526  14.078   0.186   8.254 -0.1138 -0.1232  0.0253
 1226ERGO   ROH16527   0.774  17.125   9.591 -0.2461  0.0396  0.0041
 1226ERGO    R116528   0.916  17.198   9.357 -0.2164  0.1678  0.0631
 1226ERGO    R216529   0.939  17.030   9.139  0.0048  0.1994  0.0704
 1226ERGO    R316530   0.840  17.244   9.004 -0.1159  0.1229  0.0326
 1226ERGO    R416531   1.010  17.106   8.809  0.2024  0.3254  0.1386
 1226ERGO    R516532   1.021  17.316   8.865 -0.0657  0.3379  0.1935
 1226ERGO    C116533   0.958  17.351   8.491  0.2041  0.3272  0.1428
 1226ERGO    C216534   0.969  17.586   8.129 -0.1430  0.1099  0.2158
 1227ERGO   ROH16535  17.208  16.728   9.515  0.0399  0.0721 -0.0101
 1227ERGO    R116536  17.063  16.777   9.277  0.0615 -0.0361 -0.0466
 1227ERGO    R216537  17.113  16.995   9.114 -0.1060  0.0408  0.0022
 1227ERGO    R316538  17.139  16.805   8.922  0.1432  0.0937 -0.0196
 1227ERGO    R416539  17.109  17.057   8.775 -0.2709  0.0683  0.0085
 1227ERGO    R516540  16.990  16.876   8.748 -0.0047 -0.1142  0.0175
 1227ERGO    C116541  17.131  16.916   8.396 -0.1330  0.1338 -0.0083
 1227ERGO    C216542  17.333  17.008   8.134 -0.1079 -0.1219  0.0753
 1228ERGO   ROH16543   5.295  15.003   9.469 -0.0501 -0.1955 -0.0759
 1228ERGO    R116544   5.397  14.926   9.216 -0.0221 -0.2491 -0.0489
 1228ERGO    R216545   5.350  14.677   9.107 -0.0777 -0.2454 -0.0379
 1228ERGO    R316546   5.259  14.823   8.896  0.0100 -0.2333 -0.0673
 1228ERGO    R416547   5.478  14.662   8.786  0.2557 -0.0007  0.0781
 1228ERGO    R516548   5.456  14.879   8.772  0.0880 -0.0136  0.1508
 1228ERGO    C116549   5.467  14.790   8.401  0.5322  0.1532  0.1180
 1228ERGO    C216550   5.384  14.676   8.048 -0.1851  0.1041 -0.0171
 1229ERGO   ROH16551  13.659  12.165   6.423  0.0847  0.2258 -0.0628
 1229ERGO    R116552  13.555  12.196   6.685  0.0371  0.0434 -0.0592
 1229ERGO    R216553  13.553  11.991   6.869  0.2568 -0.0085 -0.1143
 1229ERGO    R316554  13.684  12.172   7.024  0.0495  0.0980 -0.0596
 1229ERGO    R416555  13.526  12.013   7.213  0.2285 -0.1417 -0.1067
 1229ERGO    R516556  13.525  12.230   7.194 -0.0207 -0.1331 -0.0421
 1229ERGO    C116557  13.632  12.196   7.559  0.0173 -0.1193 -0.0510
 1229ERGO    C216558  13.642  12.304   7.875 -0.0618 -0.0984 -0.1513
 1230ERGO   ROH16559  11.979   0.979  10.204  0.0291 -0.0500 -0.0617
 1230ERGO    R116560  11.962   0.865   9.945  0.1772 -0.0413 -0.0763
 1230ERGO    R216561  11.721   0.812   9.821  0.2456 -0.2091 -0.1419
 1230ERGO    R316562  11.827   0.963   9.622  0.1849 -0.1133 -0.1015
 1230ERGO    R416563  11.645   0.779   9.486  0.2496 -0.1440 -0.1488
 1230ERGO    R516564  11.855   0.811   9.440  0.2373 -0.0523 -0.1449
 1230ERGO    C116565  11.699   0.903   9.103  0.1948 -0.0161 -0.1149
 1230ERGO    C216566  11.670   1.002   8.792  0.0754  0.0082 -0.0904
 1231ERGO   ROH16567   7.901   3.947   6.711  0.1259 -0.1819  0.2463
 1231ERGO    R116568   7.654   4.017   6.830  0.1759  0.1233  0.1783
 1231ERGO    R216569   7.520   3.850   7.004 -0.2771  0.1113 -0.1671
 1231ERGO    R316570   7.528   4.066   7.168  0.0427 -0.1458  0.1700
 1231ERGO    R416571   7.265   3.945   7.218 -0.2569  0.3035 -0.2271
 1231ERGO    R516572   7.305   4.153   7.164  0.2132  0.3196  0.1163
 1231ERGO    C116573   7.125   4.203   7.497  0.0549  0.1741  0.0544
 1231ERGO    C216574   7.046   4.336   7.802 -0.1407  0.0195  0.0942
 1232ERGO   ROH16575  15.541  16.275   6.146  0.3288  0.2122 -0.1510
 1232ERGO    R116576  15.399  16.310   6.389  0.1396  0.4878 -0.2956
 1232ERGO    R216577  15.487  16.205   6.629 -0.3604  0.2211 -0.2162
 1232ERGO    R316578  15.464  16.462   6.713  0.1501  0.2688 -0.1935
 1232ERGO    R416579  15.497  16.307   6.959 -0.3015  0.1568 -0.1977
 1232ERGO    R516580  15.337  16.449   6.915  0.0160  0.5116 -0.2583
 1232ERGO    C116581  15.481  16.609   7.230  0.2121  0.1644 -0.1657
 1232ERGO    C216582  15.689  16.923   7.471  0.1992 -0.0241 -0.0487
 1233ERGO   ROH16583  15.913  11.194   9.560  0.2320 -0.1451 -0.1730
 1233ERGO    R116584  15.876  11.109   9.293 -0.0107 -0.0978 -0.1564
 1233ERGO    R216585  15.625  11.086   9.177 -0.1144 -0.0099  0.0431
 1233ERGO    R316586  15.734  11.249   8.989 -0.2197 -0.0143 -0.0220
 1233ERGO    R416587  15.549  11.077   8.840 -0.2564 -0.0538  0.0757
 1233ERGO    R516588  15.760  11.109   8.797 -0.2817 -0.0280 -0.0186
 1233ERGO    C116589  15.607  11.225   8.467 -0.4379 -0.0837  0.0335
 1233ERGO    C216590  15.494  11.219   8.226 -0.0616 -0.2289  0.2411
 1234ERGO   ROH16591   5.299   2.004   9.513  0.5197  0.2925 -0.0920
 1234ERGO    R116592   5.412   1.969   9.255  0.2162  0.2612 -0.2247
 1234ERGO    R216593   5.324   1.774   9.080  0.0679  0.1785 -0.0645
 1234ERGO    R316594   5.294   1.985   8.911 -0.2177  0.1217 -0.0891
 1234ERGO    R416595   5.365   1.759   8.738  0.1526  0.2103 -0.0557
 1234ERGO    R516596   5.465   1.953   8.746 -0.1382  0.3630 -0.0550
 1234ERGO    C116597   5.361   1.948   8.379 -0.0663  0.1754 -0.0737
 1234ERGO    C216598   5.479   1.846   8.055  0.0578 -0.3743 -0.0426
 1235ERGO   ROH16599   7.010  16.471  10.167  0.1064  0.2677  0.0411
 1235ERGO    R116600   7.167  16.503   9.934  0.0882  0.0517 -0.0060
 1235ERGO    R216601   7.252  16.289   9.781  0.0531 -0.0997  0.1577
 1235ERGO    R316602   7.133  16.427   9.580  0.0358 -0.2516  0.0657
 1235ERGO    R416603   7.356  16.288   9.451  0.1810 -0.0943  0.1994
 1235ERGO    R516604   7.314  16.502   9.442  0.0195 -0.1442  0.1214
 1235ERGO    C116605   7.304  16.417   9.071  0.2391 -0.2340  0.1372
 1235ERGO    C216606   7.380  16.399   8.788  0.1642  0.1217 -0.0625
 1236ERGO   ROH16607   6.154   2.535   6.431 -0.3725 -0.0180  0.1348
 1236ERGO    R116608   6.294   2.381   6.622 -0.2444 -0.0282  0.0377
 1236ERGO    R216609   6.385   2.486   6.860  0.1020  0.0206 -0.0887
 1236ERGO    R316610   6.245   2.280   6.969  0.0781  0.1529  0.1330
 1236ERGO    R416611   6.422   2.373   7.185  0.4352 -0.0154 -0.1361
 1236ERGO    R516612   6.404   2.168   7.109  0.1518  0.0159 -0.0865
 1236ERGO    C116613   6.312   2.113   7.475  0.6069  0.0879  0.0444
 1236ERGO    C216614   6.039   2.114   7.815  0.2069 -0.2531 -0.0437
 1237ERGO   ROH16615  17.966   1.346   9.607 -0.0213 -0.0883 -0.0759
 1237ERGO    R116616  17.988   1.352   9.325 -0.0842 -0.0429 -0.0814
 1237ERGO    R216617  17.943   1.130   9.167 -0.0621 -0.0380 -0.1077
 1237ERGO    R316618  17.768   1.295   9.041 -0.1340 -0.0622 -0.0364
 1237ERGO    R416619  17.865   1.116   8.831  0.0732  0.1955 -0.1496
 1237ERGO    R516620  17.866   1.334   8.827 -0.0860  0.1949  0.0348
 1237ERGO    C116621  17.656   1.263   8.517  0.0844  0.3088 -0.1070
 1237ERGO    C216622  17.593   1.302   8.224  0.1844 -0.0518 -0.0597
 1238ERGO   ROH16623   2.339  14.000   5.871 -0.1959  0.0997 -0.0614
 1238ERGO    R116624   2.440  13.907   6.118  0.0459  0.1026 -0.1549
 1238ERGO    R216625   2.592  14.066   6.287 -0.2148  0.2776 -0.0679
 1238ERGO    R316626   2.403  13.996   6.469 -0.0496 -0.2299 -0.0792
 1238ERGO    R416627   2.646  14.039   6.627 -0.0979  0.0783 -0.1021
 1238ERGO    R516628   2.521  13.861   6.628  0.2299 -0.1542 -0.2230
 1238ERGO    C116629   2.500  13.957   6.996  0.1252 -0.5142 -0.1327
 1238ERGO    C216630   2.531  14.002   7.417 -0.3874 -0.1532  0.0083
 1239ERGO   ROH16631  16.436  17.365   9.778  0.1409  0.1644 -0.0304
 1239ERGO    R116632  16.279  17.253   9.570 -0.0774  0.2131  0.1066
 1239ERGO    R216633  16.120  17.407   9.406  0.2276  0.3330 -0.0827
 1239ERGO    R316634  16.259  17.283   9.208 -0.0054 -0.1948  0.0648
 1239ERGO    R416635  16.047  17.429   9.068  0.5061  0.3887 -0.1426
 1239ERGO    R516636  16.092  17.217   9.050 -0.1166  0.2243 -0.0042
 1239ERGO    C116637  16.136  17.326   8.687  0.4495 -0.0746 -0.0390
 1239ERGO    C216638  15.929  17.329   8.337 -0.1058  0.0585 -0.1091
 1240ERGO   ROH16639  14.445   5.446   6.292 -0.3859  0.2581 -0.1488
 1240ERGO    R116640  14.369   5.375   6.555 -0.1563  0.0269 -0.1428
 1240ERGO    R216641  14.541   5.249   6.730  0.1348  0.2607 -0.2681
 1240ERGO    R316642  14.478   5.458   6.893 -0.1623  0.0887 -0.1519
 1240ERGO    R416643  14.517   5.230   7.074  0.0798 -0.0060 -0.2840
 1240ERGO    R516644  14.342   5.359   7.064 -0.0906 -0.2050 -0.2440
 1240ERGO    C116645  14.444   5.414   7.427 -0.2313 -0.3228 -0.1843
 1240ERGO    C216646  14.645   5.449   7.688  0.2218  0.3745 -0.0636
 1241ERGO   ROH16647  13.035  17.685   6.257 -0.0465 -0.0584 -0.1249
 1241ERGO    R116648  13.161  17.786   6.489  0.0378 -0.0276 -0.1827
 1241ERGO    R216649  13.286  18.033   6.496 -0.0495  0.0224 -0.2303
 1241ERGO    R316650  13.120  18.074   6.708  0.0416 -0.0582 -0.1436
 1241ERGO    R416651  13.271  18.324   6.682 -0.0015 -0.0399 -0.1291
 1241ERGO    R516652  13.251  18.203   6.861  0.0913 -0.0943 -0.1611
 1241ERGO    C116653  13.107  18.532   6.988  0.1119 -0.1516  0.0114
 1241ERGO    C216654  13.122  18.823   7.243 -0.1818 -0.0560 -0.0027
 1242ERGO   ROH16655  15.558   8.871   6.101  0.0601 -0.0376  0.0285
 1242ERGO    R116656  15.522   9.032   6.331  0.0551 -0.1113  0.0790
 1242ERGO    R216657  15.455   8.927   6.577  0.0889 -0.1932  0.0506
 1242ERGO    R316658  15.675   9.062   6.660  0.0750 -0.1861  0.0775
 1242ERGO    R416659  15.543   8.975   6.908 -0.0437 -0.0526  0.0671
 1242ERGO    R516660  15.602   9.179   6.856  0.0074 -0.0826 -0.0056
 1242ERGO    C116661  15.802   9.130   7.178 -0.1340  0.0358  0.1020
 1242ERGO    C216662  15.807   9.212   7.545  0.0963  0.1011  0.0297
 1243ERGO   ROH16663  16.874  10.853   9.311 -0.0895 -0.3192  0.2190
 1243ERGO    R116664  16.749  10.678   9.127 -0.1762 -0.0371 -0.0001
 1243ERGO    R216665  16.646  10.765   8.886  0.1194  0.2646 -0.0352
 1243ERGO    R316666  16.806  10.571   8.784 -0.0424  0.1270 -0.0278
 1243ERGO    R416667  16.640  10.655   8.558  0.1673  0.3777 -0.0735
 1243ERGO    R516668  16.666  10.451   8.631 -0.0882  0.3296 -0.1362
 1243ERGO    C116669  16.787  10.408   8.272  0.0434  0.3143 -0.0888
 1243ERGO    C216670  16.768  10.234   7.909  0.0954 -0.1594 -0.3762
 1244ERGO   ROH16671   7.691  12.257   6.444 -0.1419 -0.1423  0.0839
 1244ERGO    R116672   7.598  12.416   6.659 -0.0354 -0.0136  0.0351
 1244ERGO    R216673   7.657  12.358   6.922 -0.0193  0.0662  0.0456
 1244ERGO    R316674   7.748  12.615   6.924  0.0957  0.0281 -0.0677
 1244ERGO    R416675   7.718  12.544   7.207  0.0902  0.1505 -0.0314
 1244ERGO    R516676   7.632  12.717   7.107  0.1558  0.1518 -0.0944
 1244ERGO    C116677   7.838  12.893   7.375  0.2619  0.1639 -0.1825
 1244ERGO    C216678   8.013  13.051   7.741  0.0547 -0.3216 -0.2251
 1245ERGO   ROH16679   3.560  15.972   6.069 -0.0172  0.2360 -0.1853
 1245ERGO    R116680   3.496  15.959   6.344 -0.0116  0.0689 -0.1902
 1245ERGO    R216681   3.689  15.960   6.542 -0.0051 -0.1100 -0.1938
 1245ERGO    R316682   3.545  16.170   6.637  0.0499 -0.1364 -0.0502
 1245ERGO    R416683   3.598  16.004   6.872  0.1097 -0.2506 -0.1429
 1245ERGO    R516684   3.403  16.074   6.804  0.0948 -0.1970 -0.0466
 1245ERGO    C116685   3.410  16.227   7.154  0.2281 -0.3576  0.0215
 1245ERGO    C216686   3.544  16.377   7.477  0.1686 -0.1108 -0.3069
 1246ERGO   ROH16687   0.017  10.015   5.897  0.3353  0.0375  0.1051
 1246ERGO    R116688   0.047  10.030   6.178  0.4619  0.1944  0.0851
 1246ERGO    R216689   0.131  10.260   6.307 -0.0571  0.4647 -0.0310
 1246ERGO    R316690  -0.098  10.224   6.450  0.1019 -0.0963  0.1089
 1246ERGO    R416691   0.025  10.464   6.565 -0.4637  0.2935 -0.0546
 1246ERGO    R516692  -0.038  10.287   6.673  0.0683  0.1501  0.0523
 1246ERGO    C116693  -0.251  10.550   6.849 -0.5507 -0.3332  0.0629
 1246ERGO    C216694  -0.481  10.745   6.948 -0.1107 -0.0778 -0.0141
 1247ERGO   ROH16695  15.921  15.781   9.457  0.0549  0.2726  0.0573
 1247ERGO    R116696  16.018  15.821   9.194 -0.0046  0.0437 -0.0021
 1247ERGO    R216697  15.954  15.653   8.984 -0.1501 -0.0742  0.1311
 1247ERGO    R316698  15.874  15.884   8.866 -0.0751 -0.1150 -0.0013
 1247ERGO    R416699  15.896  15.692   8.646 -0.4405 -0.3257  0.1468
 1247ERGO    R516700  15.991  15.888   8.657 -0.2716 -0.3922 -0.1189
 1247ERGO    C116701  15.787  15.933   8.338 -0.5391 -0.5106  0.0316
 1247ERGO    C216702  15.764  16.094   8.047  0.2813 -0.2827 -0.0300
 1248ERGO   ROH16703  15.905   1.043   6.307  0.0531  0.0340 -0.0700
 1248ERGO    R116704  15.959   1.106   6.578  0.2712  0.0595 -0.1192
 1248ERGO    R216705  16.155   1.287   6.653  0.0212  0.4166 -0.3221
 1248ERGO    R316706  15.950   1.404   6.786 -0.0440 -0.0109 -0.0245
 1248ERGO    R416707  16.188   1.480   6.937  0.0431  0.4857 -0.3695
 1248ERGO    R516708  16.010   1.385   7.017  0.3406  0.1034 -0.1029
 1248ERGO    C116709  16.014   1.702   7.229 -0.0054  0.1246 -0.1179
 1248ERGO    C216710  16.174   1.860   7.477  0.1798  0.0147 -0.0326
 1249ERGO   ROH16711   5.311   3.883   9.772  0.2886  0.1858  0.1670
 1249ERGO    R116712   5.199   3.890   9.512  0.0002  0.0281  0.2823
 1249ERGO    R216713   5.310   4.038   9.306 -0.2796 -0.0213  0.0942
 1249ERGO    R316714   5.306   3.799   9.176 -0.3338 -0.0795  0.2004
 1249ERGO    R416715   5.278   4.000   8.964 -0.2211 -0.1555  0.1026
 1249ERGO    R516716   5.147   3.830   9.000 -0.2895 -0.0979  0.1526
 1249ERGO    C116717   5.256   3.754   8.643 -0.2380 -0.2884  0.2072
 1249ERGO    C216718   5.437   3.896   8.393  0.1381  0.2444 -0.3024
 1250ERGO   ROH16719   9.468   1.772   6.726 -0.0696 -0.2550 -0.0103
 1250ERGO    R116720   9.529   1.865   6.986  0.0397 -0.2085 -0.0522
 1250ERGO    R216721   9.358   1.831   7.201  0.0445 -0.0002 -0.0158
 1250ERGO    R316722   9.577   1.718   7.315 -0.0260 -0.1270 -0.0048
 1250ERGO    R416723   9.421   1.824   7.540  0.0856  0.0988 -0.0214
 1250ERGO    R516724   9.631   1.865   7.497  0.1166 -0.0862 -0.0746
 1250ERGO    C116725   9.662   1.714   7.846  0.0432  0.0376 -0.0143
 1250ERGO    C216726   9.611   1.570   8.118  0.1155  0.0054  0.0535
 1251ERGO   ROH16727  14.225  13.511   5.977  0.0301 -0.1172  0.0339
 1251ERGO    R116728  14.050  13.534   6.199  0.0480 -0.0419  0.0398
 1251ERGO    R216729  13.934  13.314   6.320  0.0827 -0.0016  0.1417
 1251ERGO    R316730  14.045  13.420   6.545  0.0895  0.1040  0.0896
 1251ERGO    R416731  13.834  13.243   6.643  0.1366  0.0938  0.1805
 1251ERGO    R516732  13.860  13.453   6.693  0.0992  0.1195  0.1005
 1251ERGO    C116733  13.880  13.301   7.042  0.1745  0.2486  0.1542
 1251ERGO    C216734  13.980  13.133   7.213  0.1984 -0.3508  0.2619
 1252ERGO   ROH16735  10.098  16.552  10.422  0.0057 -0.0073  0.0678
 1252ERGO    R116736  10.070  16.630  10.151 -0.1037 -0.0381  0.0706
 1252ERGO    R216737  10.274  16.605   9.967 -0.0995  0.1658  0.0490
 1252ERGO    R316738  10.088  16.466   9.826  0.0226 -0.0246  0.0698
 1252ERGO    R416739  10.234  16.619   9.624 -0.0646  0.0182  0.0376
 1252ERGO    R516740  10.019  16.617   9.654 -0.0691 -0.1341  0.0084
 1252ERGO    C116741  10.036  16.497   9.292  0.0704 -0.2462  0.0505
 1252ERGO    C216742  10.079  16.572   8.922  0.1111  0.2542 -0.0507
 1253ERGO   ROH16743  16.742   5.714   9.401 -0.2297 -0.0796 -0.1146
 1253ERGO    R116744  16.765   5.583   9.151 -0.0790 -0.0999 -0.0908
 1253ERGO    R216745  16.601   5.640   8.937 -0.1285 -0.3066 -0.1118
 1253ERGO    R316746  16.836   5.679   8.808 -0.1582 -0.0838 -0.1024
 1253ERGO    R416747  16.641   5.630   8.594 -0.1067 -0.2399 -0.1112
 1253ERGO    R516748  16.830   5.525   8.624 -0.0130 -0.0737 -0.1161
 1253ERGO    C116749  16.885   5.661   8.273 -0.1219  0.0081 -0.1021
 1253ERGO    C216750  16.682   5.873   8.009 -0.0160 -0.0441  0.0513
 1254ERGO   ROH16751   8.641   1.707  10.166 -0.0042 -0.1074  0.0700
 1254ERGO    R116752   8.569   1.770   9.900 -0.0854 -0.1046  0.0925
 1254ERGO    R216753   8.728   1.925   9.735 -0.1957  0.0042  0.0873
 1254ERGO    R316754   8.706   1.712   9.568 -0.1142  0.0176  0.0587
 1254ERGO    R416755   8.679   1.947   9.394  0.0531  0.0315  0.0514
 1254ERGO    R516756   8.540   1.779   9.408  0.0119  0.0561 -0.0574
 1254ERGO    C116757   8.630   1.761   9.038  0.2744  0.0599  0.0036
 1254ERGO    C216758   8.610   1.839   8.693 -0.1487 -0.3766  0.0347
 1255ERGO   ROH16759  16.483  15.456   6.088  0.0624  0.3846 -0.0477
 1255ERGO    R116760  16.560  15.606   6.315 -0.3394  0.2140  0.2141
 1255ERGO    R216761  16.480  15.539   6.571 -0.1152 -0.4980  0.1277
 1255ERGO    R316762  16.747  15.544   6.621 -0.0992  0.1938  0.0632
 1255ERGO    R416763  16.625  15.495   6.882  0.0892 -0.5864  0.0207
 1255ERGO    R516764  16.767  15.653   6.833 -0.3675 -0.0843  0.2336
 1255ERGO    C116765  16.960  15.474   7.109  0.2230  0.0115 -0.1020
 1255ERGO    C216766  17.250  15.433   7.390  0.0244  0.2852  0.0817
 1256ERGO   ROH16767   8.798   7.132   7.027  0.1470  0.3031  0.0700
 1256ERGO    R116768   8.598   6.997   7.176  0.1179  0.1452 -0.1087
 1256ERGO    R216769   8.576   7.020   7.450  0.0583 -0.1336 -0.0888
 1256ERGO    R316770   8.320   7.090   7.391  0.0681 -0.0812 -0.0710
 1256ERGO    R416771   8.332   7.093   7.684  0.0264 -0.3236 -0.0609
 1256ERGO    R516772   8.189   6.985   7.561  0.0418 -0.2225 -0.1747
 1256ERGO    C116773   7.950   7.201   7.765  0.0169 -0.3850 -0.0279
 1256ERGO    C216774   7.853   7.453   7.912  0.2212  0.0564 -0.0613
 1257ERGO   ROH16775  15.849  13.562   9.623 -0.3970  0.0116  0.1866
 1257ERGO    R116776  15.719  13.444   9.400 -0.1198 -0.1437  0.1035
 1257ERGO    R216777  15.507  13.565   9.270 -0.2158 -0.4161  0.0026
 1257ERGO    R316778  15.664  13.530   9.051 -0.0477 -0.1839  0.0817
 1257ERGO    R416779  15.409  13.623   8.944  0.0031 -0.1581 -0.0214
 1257ERGO    R516780  15.516  13.444   8.884  0.0930 -0.0793 -0.1017
 1257ERGO    C116781  15.499  13.624   8.548  0.2883  0.2102  0.0389
 1257ERGO    C216782  15.532  13.651   8.164 -0.1259  0.1777 -0.3353
 1258ERGO   ROH16783   3.510  14.967   9.082 -0.0084  0.2924  0.0381
 1258ERGO    R116784   3.504  15.107   8.837  0.0858  0.1756 -0.0325
 1258ERGO    R216785   3.678  15.053   8.629  0.0818 -0.0127  0.0101
 1258ERGO    R316786   3.449  15.024   8.486  0.0815  0.0289  0.0026
 1258ERGO    R416787   3.662  15.028   8.285  0.0642  0.2852 -0.0132
 1258ERGO    R516788   3.485  15.155   8.289  0.0179  0.2172  0.1138
 1258ERGO    C116789   3.436  14.986   7.951  0.0537  0.4978 -0.0337
 1258ERGO    C216790   3.265  14.955   7.662 -0.1315 -0.0877  0.0616
 1259ERGO   ROH16791  18.200  14.612   9.325 -0.0546 -0.1269  0.0078
 1259ERGO    R116792  18.096  14.676   9.069  0.0218 -0.0913 -0.0154
 1259ERGO    R216793  18.245  14.806   8.877  0.0814 -0.0592  0.0447
 1259ERGO    R316794  18.175  14.592   8.724  0.1308 -0.0423 -0.0009
 1259ERGO    R416795  18.212  14.812   8.533  0.1963 -0.0382  0.0339
 1259ERGO    R516796  18.036  14.685   8.553  0.1930 -0.0334 -0.0401
 1259ERGO    C116797  18.127  14.614   8.189  0.3097 -0.0102 -0.0152
 1259ERGO    C216798  18.111  14.584   7.833  0.1302 -0.1439 -0.3767
 1260ERGO   ROH16799  11.044   9.686  10.180 -0.0343  0.1097  0.0333
 1260ERGO    R116800  10.901   9.787   9.958 -0.0494  0.0088 -0.0026
 1260ERGO    R216801  11.028   9.886   9.733 -0.0639  0.0059 -0.0103
 1260ERGO    R316802  10.871   9.705   9.604  0.0150 -0.0789  0.0114
 1260ERGO    R416803  10.994   9.862   9.390  0.0725 -0.1553 -0.0141
 1260ERGO    R516804  10.781   9.825   9.418  0.0663 -0.1770 -0.0789
 1260ERGO    C116805  10.827   9.678   9.069  0.2260 -0.3287  0.0043
 1260ERGO    C216806  10.829   9.673   8.666  0.0093  0.2271 -0.5416
 1261ERGO   ROH16807   7.135  11.233   9.921  0.1823  0.0260  0.0687
 1261ERGO    R116808   7.069  11.289   9.652 -0.0021 -0.1164  0.0832
 1261ERGO    R216809   7.251  11.393   9.472 -0.2090  0.0885 -0.0126
 1261ERGO    R316810   7.179  11.176   9.324  0.0137 -0.0406  0.0624
 1261ERGO    R416811   7.217  11.392   9.128 -0.1728 -0.0800 -0.0172
 1261ERGO    R516812   7.040  11.267   9.151 -0.0561 -0.2420  0.0111
 1261ERGO    C116813   7.130  11.189   8.789  0.0575 -0.2995  0.0506
 1261ERGO    C216814   7.185  11.261   8.476  0.1396  0.0002 -0.1240
 1262ERGO   ROH16815  14.001  14.130   9.955 -0.2783  0.0425  0.0879
 1262ERGO    R116816  14.081  14.139   9.683 -0.2284  0.2235  0.1061
 1262ERGO    R216817  14.107  13.912   9.529  0.1777  0.2850  0.0633
 1262ERGO    R316818  13.937  14.044   9.363 -0.0075  0.0467  0.0592
 1262ERGO    R416819  14.124  13.906   9.183  0.1047  0.2125  0.0613
 1262ERGO    R516820  14.076  14.118   9.182 -0.1356  0.1554  0.0096
 1262ERGO    C116821  13.973  14.026   8.827 -0.1117 -0.0533  0.0564
 1262ERGO    C216822  13.890  14.049   8.436  0.0307  0.0473 -0.0197
 1263ERGO   ROH16823  13.489  15.988   9.901 -0.0541  0.0257 -0.0904
 1263ERGO    R116824  13.490  16.149   9.668 -0.1999  0.0850 -0.0512
 1263ERGO    R216825  13.668  16.110   9.460 -0.1475  0.3095 -0.0528
 1263ERGO    R316826  13.441  16.098   9.311 -0.1316  0.1221 -0.0655
 1263ERGO    R416827  13.658  16.063   9.118 -0.1127 -0.0416 -0.0103
 1263ERGO    R516828  13.498  16.210   9.107 -0.1331 -0.0770 -0.1759
 1263ERGO    C116829  13.439  16.026   8.779 -0.0773 -0.4217  0.0026
 1263ERGO    C216830  13.478  16.051   8.446  0.0256  0.4375 -0.1822
 1264ERGO   ROH16831  16.235  11.414   9.276  0.1850  0.1430 -0.2524
 1264ERGO    R116832  16.101  11.520   9.050  0.0600  0.1142 -0.1929
 1264ERGO    R216833  16.235  11.601   8.823 -0.0618  0.1198 -0.2632
 1264ERGO    R316834  16.063  11.430   8.699 -0.1011  0.0915 -0.1705
 1264ERGO    R416835  16.116  11.640   8.501 -0.0453 -0.0321 -0.2886
 1264ERGO    R516836  15.920  11.573   8.571 -0.0637  0.0548 -0.2542
 1264ERGO    C116837  15.885  11.502   8.198 -0.0726 -0.1471 -0.2163
 1264ERGO    C216838  15.831  11.536   7.791  0.3530 -0.0358  0.1998
 1265ERGO   ROH16839   1.661  15.616   6.123 -0.5019  0.2205 -0.0733
 1265ERGO    R116840   1.600  15.731   6.375 -0.1145  0.2482  0.0130
 1265ERGO    R216841   1.484  15.587   6.580 -0.0742  0.3478  0.0980
 1265ERGO    R316842   1.699  15.677   6.721  0.1741  0.0746 -0.0904
 1265ERGO    R416843   1.507  15.591   6.925  0.2037  0.3656  0.0827
 1265ERGO    R516844   1.603  15.786   6.912  0.4699  0.2404 -0.0238
 1265ERGO    C116845   1.722  15.678   7.258  0.5987  0.1195 -0.1031
 1265ERGO    C216846   1.722  15.598   7.546  0.0212 -0.0791  0.2669
 1266ERGO   ROH16847   3.986   8.828   9.591  0.0241 -0.2445  0.0122
 1266ERGO    R116848   4.009   8.737   9.324 -0.0928 -0.1623 -0.0256
 1266ERGO    R216849   3.826   8.804   9.127  0.0054  0.1733 -0.0005
 1266ERGO    R316850   4.049   8.889   8.995  0.1266 -0.0750  0.0373
 1266ERGO    R416851   3.856   8.824   8.784  0.0472  0.2085  0.0043
 1266ERGO    R516852   4.059   8.748   8.802 -0.0407 -0.0551  0.0060
 1266ERGO    C116853   4.081   8.914   8.459  0.1854 -0.0041  0.0425
 1266ERGO    C216854   4.057   8.814   8.126  0.1964 -0.0196  0.1782
 1267ERGO   ROH16855   0.947  16.311   5.770 -0.0369  0.0332 -0.0282
 1267ERGO    R116856   0.840  16.380   6.022  0.3213 -0.0614  0.1534
 1267ERGO    R216857   0.598  16.285   6.113  0.0713  0.5229  0.1102
 1267ERGO    R316858   0.745  16.205   6.327 -0.0393 -0.3017 -0.0859
 1267ERGO    R416859   0.471  16.234   6.430  0.1135  0.8815  0.1906
 1267ERGO    R516860   0.651  16.327   6.511  0.6644  0.0365  0.0940
 1267ERGO    C116861   0.535  16.129   6.816  0.0342  0.3164  0.0533
 1267ERGO    C216862   0.547  16.093   7.187  0.1485  0.3808  0.1319
 1268ERGO   ROH16863   3.655   9.504   5.677  0.1983 -0.0152  0.1680
 1268ERGO    R116864   3.566   9.469   5.943  0.1568  0.0609  0.1650
 1268ERGO    R216865   3.651   9.259   6.102 -0.0504 -0.0316  0.1603
 1268ERGO    R316866   3.718   9.459   6.274  0.1421 -0.1011  0.1675
 1268ERGO    R416867   3.687   9.222   6.444 -0.0802 -0.0794  0.1579
 1268ERGO    R516868   3.588   9.415   6.470  0.1027  0.0140  0.1671
 1268ERGO    C116869   3.770   9.389   6.804  0.0832 -0.1725  0.1632
 1268ERGO    C216870   3.720   9.576   7.009  0.2273  0.0059  0.1224
 1269ERGO   ROH16871  14.585  15.894   6.169  0.0764  0.1448  0.0818
 1269ERGO    R116872  14.419  16.017   6.363  0.0238  0.1075  0.0597
 1269ERGO    R216873  14.397  15.924   6.621  0.0035  0.0974  0.0517
 1269ERGO    R316874  14.463  16.179   6.685 -0.0578  0.1089  0.0711
 1269ERGO    R416875  14.409  16.049   6.943  0.1032  0.0353  0.0731
 1269ERGO    R516876  14.319  16.233   6.869  0.0032  0.0202  0.1486
 1269ERGO    C116877  14.478  16.363   7.191  0.1039  0.0098  0.1038
 1269ERGO    C216878  14.540  16.416   7.529 -0.1936  0.2355 -0.0855
 1270ERGO   ROH16879   6.106   1.068   9.977  0.2482 -0.0623 -0.0477
 1270ERGO    R116880   5.975   1.118   9.731  0.1511  0.0470  0.0264
 1270ERGO    R216881   6.064   1.308   9.551  0.1640  0.0224  0.0142
 1270ERGO    R316882   6.060   1.098   9.378 -0.0412  0.0535 -0.0224
 1270ERGO    R416883   6.083   1.335   9.207  0.4663  0.0603  0.0302
 1270ERGO    R516884   5.933   1.178   9.191  0.2195  0.2954 -0.1072
 1270ERGO    C116885   6.090   1.154   8.844  0.4497  0.1115  0.0053
 1270ERGO    C216886   6.038   1.238   8.496 -0.2713  0.1488 -0.0546
 1271ERGO   ROH16887  18.415  12.763   9.553 -0.0003 -0.1573 -0.0904
 1271ERGO    R116888  18.285  12.669   9.320 -0.1218 -0.1677 -0.0197
 1271ERGO    R216889  18.015  12.613   9.312 -0.1925  0.1405  0.0361
 1271ERGO    R316890  18.017  12.785   9.102 -0.0015 -0.0027 -0.0822
 1271ERGO    R416891  17.804  12.594   9.040 -0.0999  0.0911 -0.0325
 1271ERGO    R516892  17.972  12.647   8.912 -0.0163 -0.1040 -0.0056
 1271ERGO    C116893  17.683  12.745   8.683  0.1331 -0.0721 -0.1835
 1271ERGO    C216894  17.572  12.835   8.346  0.1715 -0.0064  0.0859
 1272ERGO   ROH16895  17.339  17.068   6.057  0.0827  0.2275 -0.0377
 1272ERGO    R116896  17.243  17.248   6.254 -0.1467  0.1324 -0.0572
 1272ERGO    R216897  16.976  17.266   6.322 -0.1742 -0.2306 -0.0233
 1272ERGO    R316898  17.070  17.223   6.573 -0.0722 -0.0590 -0.0327
 1272ERGO    R416899  16.878  17.442   6.602 -0.1062 -0.0942 -0.0857
 1272ERGO    R516900  17.085  17.441   6.669 -0.0873 -0.0051 -0.1630
 1272ERGO    C116901  16.910  17.504   7.002  0.0294  0.1461 -0.1309
 1272ERGO    C216902  16.767  17.530   7.396  0.0655  0.0957 -0.0912
 1273ERGO   ROH16903   5.069  18.094   6.246 -0.0426  0.3353 -0.0310
 1273ERGO    R116904   5.016  18.159   6.517 -0.1292  0.0194  0.0311
 1273ERGO    R216905   4.896  18.396   6.593  0.0576  0.0362  0.2836
 1273ERGO    R316906   4.722  18.229   6.720 -0.1751  0.0264 -0.0370
 1273ERGO    R416907   4.684  18.489   6.850  0.1071 -0.1319  0.3866
 1273ERGO    R516908   4.728  18.299   6.948 -0.1431 -0.3570  0.0877
 1273ERGO    C116909   4.398  18.386   7.118 -0.0825 -0.2387  0.1456
 1273ERGO    C216910   4.223  18.622   7.246 -0.0797 -0.5025  0.1592
 1274ERGO   ROH16911   8.431   6.495   6.594  0.0729  0.0775  0.1150
 1274ERGO    R116912   8.406   6.402   6.860 -0.1522  0.0689  0.0929
 1274ERGO    R216913   8.196   6.244   6.943 -0.1645 -0.0319 -0.1168
 1274ERGO    R316914   8.395   6.079   7.028 -0.1680  0.0653  0.0830
 1274ERGO    R416915   8.148   5.961   7.136 -0.1892  0.0582  0.0101
 1274ERGO    R516916   8.327   6.015   7.249 -0.2687  0.1650  0.0793
 1274ERGO    C116917   8.308   5.642   7.329 -0.2069  0.2019  0.2715
 1274ERGO    C216918   8.268   5.392   7.604 -0.1482  0.0628  0.0895
 1275ERGO   ROH16919   2.677  10.143   9.266  0.0427  0.1560 -0.0291
 1275ERGO    R116920   2.606  10.145   8.992 -0.0067  0.0808 -0.0156
 1275ERGO    R216921   2.698  10.336   8.815  0.0224 -0.0196 -0.0963
 1275ERGO    R316922   2.780  10.119   8.674 -0.0785 -0.0929 -0.0454
 1275ERGO    R416923   2.754  10.333   8.474  0.2016 -0.0530 -0.0681
 1275ERGO    R516924   2.661  10.136   8.466  0.0376  0.0124 -0.1137
 1275ERGO    C116925   2.863  10.127   8.143  0.2113 -0.1413 -0.0041
 1275ERGO    C216926   2.809  10.233   7.884 -0.2370  0.2032  0.3286
 1276ERGO   ROH16927   6.170  15.657   9.976 -0.1722  0.3220 -0.0396
 1276ERGO    R116928   6.376  15.663   9.783 -0.1528 -0.0784 -0.0403
 1276ERGO    R216929   6.376  15.501   9.559 -0.4894 -0.0567 -0.0579
 1276ERGO    R316930   6.403  15.737   9.427 -0.0032 -0.0879 -0.0324
 1276ERGO    R416931   6.495  15.534   9.236 -0.5311 -0.2882 -0.0995
 1276ERGO    R516932   6.605  15.712   9.301 -0.0968 -0.5337 -0.1130
 1276ERGO    C116933   6.590  15.776   8.925 -0.0989 -0.4523 -0.0995
 1276ERGO    C216934   6.505  15.775   8.627  0.3046  0.1179  0.0606
 1277ERGO   ROH16935  13.125  14.797   6.387  0.0890  0.2743 -0.0628
 1277ERGO    R116936  13.230  14.919   6.621  0.1457  0.2398 -0.0695
 1277ERGO    R216937  13.082  14.947   6.853  0.1984  0.2134 -0.0299
 1277ERGO    R316938  13.295  14.819   6.964  0.2197  0.1904 -0.0980
 1277ERGO    R416939  13.205  15.007   7.170  0.4117  0.3170 -0.1304
 1277ERGO    R516940  13.407  14.989   7.091  0.3569  0.2085 -0.2432
 1277ERGO    C116941  13.476  14.922   7.460  0.5559  0.3559 -0.2529
 1277ERGO    C216942  13.428  14.988   7.711 -0.0467  0.2344  0.1207
 1278ERGO   ROH16943  15.139   4.751  10.001 -0.0925  0.0045 -0.0032
 1278ERGO    R116944  14.991   4.834   9.776 -0.0380  0.0050 -0.0390
 1278ERGO    R216945  15.111   4.915   9.540  0.0187 -0.0515 -0.0295
 1278ERGO    R316946  14.950   4.725   9.431 -0.0035 -0.0337 -0.0313
 1278ERGO    R416947  15.077   4.856   9.201 -0.0406  0.0040 -0.0338
 1278ERGO    R516948  14.863   4.827   9.232 -0.0378  0.0008 -0.0003
 1278ERGO    C116949  14.907   4.642   8.901 -0.0960  0.0530 -0.0379
 1278ERGO    C216950  14.903   4.542   8.433  0.1115  0.1196  0.3457
 1279ERGO   ROH16951  11.126  15.743   6.609 -0.4406 -0.1622  0.0793
 1279ERGO    R116952  11.249  15.561   6.788 -0.2308 -0.0204  0.0827
 1279ERGO    R216953  11.479  15.422   6.724 -0.2664 -0.0155 -0.0484
 1279ERGO    R316954  11.571  15.531   6.955 -0.0591  0.1524 -0.2065
 1279ERGO    R416955  11.696  15.267   6.944 -0.3727 -0.0214  0.0538
 1279ERGO    R516956  11.579  15.348   7.109 -0.2259  0.3136  0.0056
 1279ERGO    C116957  11.909  15.280   7.289 -0.2400  0.1330 -0.0350
 1279ERGO    C216958  12.137  15.064   7.264 -0.1218 -0.0612 -0.1959
 1280ERGO   ROH16959  15.227   3.005   9.857  0.2483  0.1184  0.0115
 1280ERGO    R116960  15.175   2.900   9.600  0.0700  0.1554  0.0309
 1280ERGO    R216961  14.924   2.811   9.523  0.0382  0.0642  0.2275
 1280ERGO    R316962  14.961   2.985   9.318 -0.2140  0.1298  0.2349
 1280ERGO    R416963  14.841   2.750   9.193  0.2689 -0.1053  0.1978
 1280ERGO    R516964  15.025   2.848   9.133  0.1114  0.2398  0.2614
 1280ERGO    C116965  14.826   2.878   8.809  0.1663 -0.1424  0.1875
 1280ERGO    C216966  14.816   2.914   8.391 -0.2582 -0.1645 -0.2076
 1281ERGO   ROH16967  15.548  15.016   6.085 -0.2244 -0.1392  0.0648
 1281ERGO    R116968  15.686  15.063   6.328 -0.2053 -0.0595  0.0381
 1281ERGO    R216969  15.662  15.300   6.468 -0.2056 -0.0199 -0.0315
 1281ERGO    R316970  15.596  15.135   6.673 -0.1772  0.0381  0.0257
 1281ERGO    R416971  15.723  15.365   6.802 -0.1157  0.0538 -0.0611
 1281ERGO    R516972  15.777  15.155   6.828 -0.1361  0.0524 -0.0233
 1281ERGO    C116973  15.696  15.247   7.189 -0.0367  0.1512 -0.0246
 1281ERGO    C216974  15.540  15.314   7.456 -0.0517 -0.2371  0.1203
 1282ERGO   ROH16975   8.972   4.248   6.843 -0.2206  0.0462  0.0321
 1282ERGO    R116976   8.979   4.505   6.963 -0.2128  0.0337  0.0570
 1282ERGO    R216977   8.881   4.553   7.217 -0.0599 -0.0234  0.1245
 1282ERGO    R316978   9.130   4.655   7.258 -0.0608  0.0426 -0.0236
 1282ERGO    R416979   8.967   4.766   7.475  0.0461 -0.0440  0.1077
 1282ERGO    R516980   9.090   4.879   7.334 -0.0790  0.0189  0.0426
 1282ERGO    C116981   9.250   4.986   7.664  0.1069  0.0059 -0.0410
 1282ERGO    C216982   9.163   4.991   8.038  0.0050  0.0497  0.0907
 1283ERGO   ROH16983   8.059  17.122   7.099  0.0768  0.1463 -0.0807
 1283ERGO    R116984   7.836  17.187   7.260  0.0983  0.0310 -0.0015
 1283ERGO    R216985   7.838  17.398   7.438  0.0683  0.0047  0.0393
 1283ERGO    R316986   7.614  17.473   7.303  0.0028 -0.0617  0.1127
 1283ERGO    R416987   7.573  17.573   7.576 -0.0001 -0.1820  0.1456
 1283ERGO    R516988   7.437  17.445   7.462  0.0468 -0.2075  0.1309
 1283ERGO    C116989   7.209  17.744   7.530 -0.1015 -0.3529  0.2764
 1283ERGO    C216990   7.172  17.930   7.827  0.3053 -0.2093 -0.1730
 1284ERGO   ROH16991  13.789   3.470  10.191  0.0005 -0.2747  0.0636
 1284ERGO    R116992  13.735   3.348   9.941 -0.0713 -0.2192  0.0540
 1284ERGO    R216993  13.483   3.260   9.870 -0.1283 -0.0058  0.0253
 1284ERGO    R316994  13.525   3.418   9.652  0.0196 -0.0377  0.0266
 1284ERGO    R416995  13.391   3.179   9.546 -0.4992  0.1994  0.0713
 1284ERGO    R516996  13.579   3.264   9.477 -0.3729 -0.1270 -0.0383
 1284ERGO    C116997  13.377   3.280   9.154 -0.5763  0.2890  0.0993
 1284ERGO    C216998  13.371   3.244   8.858 -0.2443 -0.1700  0.1391
 1285ERGO   ROH16999   9.466  10.835   6.612 -0.0404 -0.0802  0.2428
 1285ERGO    R117000   9.335  11.062   6.719 -0.1467 -0.1986  0.3693
 1285ERGO    R217001   9.260  11.079   6.985  0.2732 -0.1893  0.5000
 1285ERGO    R317002   9.403  11.310   6.977 -0.0146 -0.0140  0.1576
 1285ERGO    R417003   9.191  11.360   7.173  0.1980 -0.1508  0.4141
 1285ERGO    R517004   9.239  11.482   6.998 -0.1909 -0.1987  0.2728
 1285ERGO    C117005   9.285  11.741   7.275 -0.1158  0.0363  0.0427
 1285ERGO    C217006   9.036  11.965   7.499  0.0112 -0.2397  0.1543
 1286ERGO   ROH17007   0.751  13.148   5.880  0.3854  0.0369 -0.0297
 1286ERGO    R117008   0.903  13.011   6.075  0.2260 -0.0300  0.0496
 1286ERGO    R217009   0.905  13.086   6.341  0.2199  0.0486  0.0301
 1286ERGO    R317010   0.835  12.826   6.382 -0.0042  0.1160  0.0878
 1286ERGO    R417011   0.907  12.927   6.648 -0.0529  0.1426  0.0834
 1286ERGO    R517012   0.987  12.750   6.550 -0.1471  0.0477  0.1841
 1286ERGO    C117013   0.842  12.591   6.865 -0.4221  0.2606  0.1685
 1286ERGO    C217014   0.855  12.638   7.268 -0.2595 -0.1469 -0.1946
 1287ERGO   ROH17015  11.202  11.771   6.334  0.0612  0.0885 -0.1118
 1287ERGO    R117016  11.086  11.862   6.576  0.0246  0.0727 -0.1234
 1287ERGO    R217017  11.203  11.819   6.822  0.0094  0.0959 -0.1134
 1287ERGO    R317018  11.180  12.089   6.845 -0.0381  0.0923 -0.1172
 1287ERGO    R417019  11.269  11.998   7.110  0.1396  0.1246 -0.1602
 1287ERGO    R517020  11.094  12.122   7.067  0.0836  0.0838 -0.0663
 1287ERGO    C117021  11.285  12.356   7.300  0.1710  0.1380 -0.1912
 1287ERGO    C217022  11.317  12.428   7.578 -0.0152  0.1482 -0.0108
 1288ERGO   ROH17023   4.742  17.414   6.270 -0.1370 -0.0389 -0.1428
 1288ERGO    R117024   4.851  17.481   6.523  0.0599  0.0365 -0.2453
 1288ERGO    R217025   5.019  17.698   6.559 -0.1655  0.2435 -0.3849
 1288ERGO    R317026   4.837  17.766   6.749 -0.0499 -0.0314 -0.1671
 1288ERGO    R417027   5.096  17.814   6.876  0.0238  0.1009 -0.3762
 1288ERGO    R517028   4.933  17.693   6.955  0.1993 -0.0847 -0.3022
 1288ERGO    C117029   4.969  17.946   7.237  0.2424 -0.2403 -0.1668
 1288ERGO    C217030   5.042  18.080   7.530  0.0355  0.1931  0.3488
 1289ERGO   ROH17031  14.754  11.894   6.227  0.0351  0.0740 -0.2121
 1289ERGO    R117032  14.731  11.718   6.448 -0.0408  0.2782 -0.0520
 1289ERGO    R217033  14.495  11.685   6.588 -0.1685  0.2154 -0.2646
 1289ERGO    R317034  14.536  11.422   6.531  0.1307  0.1909  0.0370
 1289ERGO    R417035  14.382  11.421   6.780 -0.2953  0.2978 -0.2268
 1289ERGO    R517036  14.572  11.320   6.744 -0.1559  0.4055  0.1897
 1289ERGO    C117037  14.355  11.020   6.838 -0.0883  0.3226  0.0783
 1289ERGO    C217038  14.343  10.743   7.051  0.0117 -0.0090 -0.0368
 1290ERGO   ROH17039   8.383   3.980   6.715  0.0140 -0.5042  0.1585
 1290ERGO    R117040   8.530   3.958   6.957  0.0463 -0.0833  0.1845
 1290ERGO    R217041   8.598   4.177   7.111 -0.4146  0.1319  0.0976
 1290ERGO    R317042   8.474   4.037   7.307 -0.1349 -0.0283  0.1386
 1290ERGO    R417043   8.615   4.250   7.448 -0.4756  0.2203  0.0812
 1290ERGO    R517044   8.629   4.038   7.489 -0.1141  0.2664  0.1115
 1290ERGO    C117045   8.508   4.161   7.829 -0.2486  0.1214  0.1101
 1290ERGO    C217046   8.510   4.071   8.195 -0.3197  0.4078  0.0032
 1291ERGO   ROH17047  15.071   1.611   6.215  0.0757 -0.0853 -0.0381
 1291ERGO    R117048  15.141   1.633   6.488  0.0946  0.0030 -0.0492
 1291ERGO    R217049  15.030   1.822   6.656  0.1130  0.0642 -0.1017
 1291ERGO    R317050  14.971   1.605   6.808  0.1144  0.1170 -0.0292
 1291ERGO    R417051  14.892   1.835   6.972  0.0510  0.1681 -0.1335
 1291ERGO    R517052  15.025   1.673   7.032  0.0610  0.2108 -0.0458
 1291ERGO    C117053  14.756   1.639   7.300  0.0163  0.2781 -0.0839
 1291ERGO    C217054  14.603   1.640   7.631  0.2808 -0.1007 -0.2311
 1292ERGO   ROH17055   1.598   8.731   9.042  0.0472 -0.2102  0.3050
 1292ERGO    R117056   1.676   8.654   8.781  0.0387 -0.1073  0.2720
 1292ERGO    R217057   1.527   8.481   8.626  0.0829 -0.1212  0.2472
 1292ERGO    R317058   1.541   8.684   8.444 -0.0218 -0.0658  0.2994
 1292ERGO    R417059   1.600   8.441   8.290  0.1930  0.0112  0.2541
 1292ERGO    R517060   1.722   8.622   8.301  0.0598  0.0999  0.3270
 1292ERGO    C117061   1.656   8.607   7.925  0.1588  0.1402  0.3073
 1292ERGO    C217062   1.788   8.512   7.642  0.4473  0.1645 -0.0977
 1293ERGO   ROH17063   0.445  15.969   9.365 -0.0084  0.1471 -0.0029
 1293ERGO    R117064   0.405  16.036   9.093 -0.0281  0.1892  0.0109
 1293ERGO    R217065   0.177  16.163   9.003 -0.0239  0.2174  0.0515
 1293ERGO    R317066   0.355  16.341   8.900 -0.0232  0.2203  0.0563
 1293ERGO    R417067   0.097  16.418   8.784  0.0245 -0.0039 -0.2307
 1293ERGO    R517068   0.281  16.376   8.675  0.1447 -0.0065 -0.0419
 1293ERGO    C117069   0.217  16.734   8.560  0.0534 -0.1299 -0.3907
 1293ERGO    C217070   0.121  17.069   8.438 -0.0213  0.0187 -0.0513
 1294ERGO   ROH17071  15.185  11.603   6.196 -0.0627  0.0150 -0.0556
 1294ERGO    R117072  15.177  11.614   6.479  0.1543  0.0660 -0.0510
 1294ERGO    R217073  15.028  11.438   6.631 -0.0081  0.3129  0.0728
 1294ERGO    R317074  15.266  11.394   6.755  0.0167 -0.0338 -0.0834
 1294ERGO    R417075  15.082  11.202   6.878 -0.1830  0.1946  0.0018
 1294ERGO    R517076  15.207  11.347   6.982  0.0880  0.0135 -0.0504
 1294ERGO    C117077  15.337  11.024   7.138 -0.2615 -0.1996 -0.1863
 1294ERGO    C217078  15.668  10.874   7.204  0.1032 -0.2364 -0.0199
 1295ERGO   ROH17079   0.789   4.236   9.499 -0.0846  0.1551  0.2756
 1295ERGO    R117080   0.857   4.419   9.294  0.0173  0.0269  0.1930
 1295ERGO    R217081   1.001   4.345   9.070 -0.1174 -0.1796  0.1696
 1295ERGO    R317082   0.790   4.454   8.938 -0.0641 -0.0336  0.2027
 1295ERGO    R417083   1.014   4.476   8.751 -0.0850 -0.2025  0.1616
 1295ERGO    R517084   0.884   4.637   8.817  0.0437 -0.1065  0.1772
 1295ERGO    C117085   0.823   4.654   8.440 -0.0161 -0.0787  0.1881
 1295ERGO    C217086   0.584   4.689   8.182 -0.0124 -0.0339  0.0738
 1296ERGO   ROH17087  16.679  13.287   9.223  0.4499  0.0630 -0.0824
 1296ERGO    R117088  16.779  13.301   8.959  0.2213 -0.0175 -0.1766
 1296ERGO    R217089  16.662  13.165   8.748 -0.0184 -0.0117 -0.0562
 1296ERGO    R317090  16.656  13.412   8.635 -0.0289 -0.0263 -0.0855
 1296ERGO    R417091  16.559  13.232   8.425  0.0026 -0.0514 -0.0705
 1296ERGO    R517092  16.722  13.375   8.407 -0.0102 -0.0432 -0.0743
 1296ERGO    C117093  16.492  13.502   8.131  0.0047 -0.0882 -0.1064
 1296ERGO    C217094  16.424  13.562   7.780  0.1573 -0.2480 -0.0265
 1297ERGO   ROH17095  17.903   9.484   5.933  0.1657 -0.0449  0.0369
 1297ERGO    R117096  17.937   9.528   6.211  0.1601 -0.1517  0.0548
 1297ERGO    R217097  17.748   9.658   6.365  0.2598 -0.0059  0.0530
 1297ERGO    R317098  17.764   9.434   6.517  0.0112 -0.0639 -0.0004
 1297ERGO    R417099  17.610   9.622   6.680  0.2564  0.0911  0.0634
 1297ERGO    R517100  17.789   9.514   6.741  0.1401 -0.1409  0.0154
 1297ERGO    C117101  17.545   9.390   7.006  0.0209  0.0932  0.0192
 1297ERGO    C217102  17.357   9.490   7.268 -0.3484 -0.1117 -0.0163
 1298ERGO   ROH17103  16.889   7.424   9.258 -0.1029 -0.0673  0.0176
 1298ERGO    R117104  16.764   7.567   9.049  0.0196 -0.0030 -0.0133
 1298ERGO    R217105  16.882   7.605   8.802  0.0691 -0.1265 -0.0124
 1298ERGO    R317106  16.651   7.496   8.711 -0.0062  0.0295 -0.0104
 1298ERGO    R417107  16.749   7.660   8.488  0.1593 -0.1358 -0.0525
 1298ERGO    R517108  16.551   7.670   8.579  0.1545  0.0594 -0.0899
 1298ERGO    C117109  16.453   7.589   8.219  0.1409  0.0053 -0.0741
 1298ERGO    C217110  16.261   7.579   7.918 -0.1701 -0.0087  0.0009
 1299ERGO   ROH17111  16.182  13.298   6.067 -0.3100 -0.1535 -0.1326
 1299ERGO    R117112  16.310  13.052   6.125 -0.1386 -0.0504 -0.0665
 1299ERGO    R217113  16.560  13.039   6.242 -0.1397  0.1534 -0.0368
 1299ERGO    R317114  16.431  12.882   6.423 -0.0461  0.0997 -0.0179
 1299ERGO    R417115  16.716  12.841   6.478 -0.0214  0.1829 -0.0895
 1299ERGO    R517116  16.568  12.686   6.440  0.0183  0.1411 -0.0650
 1299ERGO    C117117  16.686  12.578   6.786  0.1354  0.1496 -0.1023
 1299ERGO    C217118  16.588  12.378   7.165  0.1389  0.0216 -0.0474
 1300ERGO   ROH17119  13.196   4.289   6.688  0.1216  0.0569 -0.1033
 1300ERGO    R117120  13.289   4.206   6.942 -0.0693 -0.0535 -0.0690
 1300ERGO    R217121  13.369   4.384   7.137  0.1369 -0.1483 -0.0685
 1300ERGO    R317122  13.187   4.251   7.288 -0.1016  0.1302 -0.1009
 1300ERGO    R417123  13.355   4.394   7.482  0.1970 -0.2552 -0.0617
 1300ERGO    R517124  13.310   4.180   7.481 -0.2059 -0.1800 -0.1415
 1300ERGO    C117125  13.175   4.274   7.825  0.0081 -0.0560 -0.0882
 1300ERGO    C217126  13.120   4.368   8.101  0.1647 -0.3153  0.2290
 1301ERGO   ROH17127  10.971  14.147   6.801  0.4857  0.1420  0.3235
 1301ERGO    R117128  10.897  13.931   6.969  0.2790  0.0713  0.1438
 1301ERGO    R217129  10.956  13.924   7.238  0.1819 -0.1634  0.1608
 1301ERGO    R317130  10.688  13.885   7.263  0.1448  0.0012  0.0392
 1301ERGO    R417131  10.805  13.752   7.497 -0.0553  0.0634  0.1770
 1301ERGO    R517132  10.668  13.663   7.352 -0.0272  0.0597  0.1525
 1301ERGO    C117133  10.465  13.615   7.671 -0.2283  0.3500  0.0723
 1301ERGO    C217134  10.466  13.506   7.955 -0.1567 -0.1921 -0.0388
 1302ERGO   ROH17135   2.375  15.342   9.643 -0.0538  0.0488 -0.0801
 1302ERGO    R117136   2.145  15.316   9.480 -0.0216  0.0475 -0.1236
 1302ERGO    R217137   1.985  15.532   9.413 -0.0757  0.0239 -0.0515
 1302ERGO    R317138   2.033  15.446   9.159 -0.0187  0.1495 -0.0854
 1302ERGO    R417139   1.758  15.548   9.153  0.0479  0.3450 -0.1464
 1302ERGO    R517140   1.825  15.350   9.089 -0.0577  0.3344 -0.2393
 1302ERGO    C117141   1.670  15.476   8.764  0.1735  0.6496 -0.2336
 1302ERGO    C217142   1.514  15.611   8.549  0.1878 -0.0791  0.0548
 1303ERGO   ROH17143  17.661   4.157   6.179 -0.0286 -0.3259 -0.0813
 1303ERGO    R117144  17.805   4.026   6.384  0.0282 -0.1461 -0.0064
 1303ERGO    R217145  17.833   3.752   6.394  0.2629 -0.1141  0.0735
 1303ERGO    R317146  18.098   3.812   6.406  0.2124  0.1116  0.1388
 1303ERGO    R417147  18.080   3.537   6.507  0.4727 -0.1169 -0.3661
 1303ERGO    R517148  18.174   3.706   6.607  0.3344 -0.2047 -0.0593
 1303ERGO    C117149  18.472   3.469   6.584  0.5473  0.0934 -0.5607
 1303ERGO    C217150  18.751   3.136   6.497  0.1385  0.2705  0.1307
 1304ERGO   ROH17151  16.934   7.982   9.415  0.2081 -0.0528 -0.1657
 1304ERGO    R117152  16.753   8.080   9.221  0.1239 -0.0471 -0.0889
 1304ERGO    R217153  16.835   8.163   8.970  0.0293  0.0315 -0.1068
 1304ERGO    R317154  16.647   7.985   8.886  0.0473  0.0016 -0.0757
 1304ERGO    R417155  16.661   8.185   8.672 -0.2248  0.1360  0.0488
 1304ERGO    R517156  16.482   8.120   8.778 -0.1034 -0.0153  0.1445
 1304ERGO    C117157  16.383   8.031   8.420 -0.3559  0.1688  0.1687
 1304ERGO    C217158  16.350   8.095   8.098 -0.1911  0.0882 -0.0008
 1305ERGO   ROH17159   6.476  13.835   9.958  0.1618 -0.0446  0.0550
 1305ERGO    R117160   6.446  13.851   9.677  0.1048 -0.0301  0.0622
 1305ERGO    R217161   6.558  14.054   9.527  0.1680 -0.0840  0.0380
 1305ERGO    R317162   6.665  13.847   9.387  0.0368 -0.1361  0.0112
 1305ERGO    R417163   6.555  14.025   9.182  0.3401  0.0721  0.0218
 1305ERGO    R517164   6.514  13.812   9.205  0.1051  0.1014 -0.0954
 1305ERGO    C117165   6.655  13.814   8.851  0.3172  0.1141 -0.0129
 1305ERGO    C217166   6.578  13.838   8.484  0.0747  0.0378  0.2950
 1306ERGO   ROH17167  17.102   5.168   6.124 -0.0853 -0.0105 -0.0475
 1306ERGO    R117168  17.001   5.176   6.388 -0.0773  0.1887 -0.0482
 1306ERGO    R217169  17.152   5.101   6.608 -0.2228 -0.1209 -0.0458
 1306ERGO    R317170  17.083   5.348   6.698  0.2692  0.0254 -0.0457
 1306ERGO    R417171  17.168   5.203   6.937 -0.2203 -0.2222 -0.0147
 1306ERGO    R517172  16.979   5.308   6.909  0.0274  0.2136 -0.1260
 1306ERGO    C117173  17.113   5.494   7.214  0.2431 -0.1437  0.0037
 1306ERGO    C217174  17.266   5.752   7.400 -0.0970  0.0678 -0.3958
 1307ERGO   ROH17175  14.363   4.081   6.300 -0.1919 -0.0475  0.0887
 1307ERGO    R117176  14.437   3.997   6.560 -0.0416 -0.1407  0.0179
 1307ERGO    R217177  14.679   3.875   6.614  0.1147  0.0966 -0.1169
 1307ERGO    R317178  14.702   4.074   6.797 -0.0777  0.0040  0.0113
 1307ERGO    R417179  14.858   3.854   6.909  0.0484  0.0492 -0.0798
 1307ERGO    R517180  14.698   3.963   7.009 -0.0562 -0.1250 -0.0567
 1307ERGO    C117181  14.984   4.030   7.252 -0.1709 -0.0652  0.0620
 1307ERGO    C217182  15.123   3.851   7.534 -0.0812  0.0189 -0.0307
 1308ERGO   ROH17183   2.823   2.934   9.854  0.0293  0.2366 -0.0378
 1308ERGO    R117184   2.790   2.974   9.576 -0.0350  0.0750 -0.0550
 1308ERGO    R217185   2.965   2.871   9.389 -0.0592 -0.0075 -0.0365
 1308ERGO    R317186   2.739   2.764   9.283 -0.0676 -0.0994  0.0743
 1308ERGO    R417187   2.936   2.750   9.067 -0.2102  0.1187 -0.0708
 1308ERGO    R517188   2.738   2.840   9.056 -0.2736  0.0013  0.1081
 1308ERGO    C117189   2.706   2.579   8.780 -0.3059  0.1060  0.0135
 1308ERGO    C217190   2.663   2.593   8.455  0.2082  0.0591 -0.0364
 1309ERGO   ROH17191  15.914   5.349   5.820  0.1081 -0.0626 -0.2571
 1309ERGO    R117192  15.831   5.232   6.064  0.0909 -0.0066 -0.2363
 1309ERGO    R217193  15.842   4.960   6.110  0.0513  0.0007 -0.1876
 1309ERGO    R317194  15.985   5.036   6.329  0.0618  0.0185 -0.2004
 1309ERGO    R417195  15.863   4.780   6.405 -0.1954  0.1789 -0.0569
 1309ERGO    R517196  15.850   4.968   6.515 -0.0534  0.2686 -0.1883
 1309ERGO    C117197  16.010   4.746   6.781 -0.3292  0.2993  0.0072
 1309ERGO    C217198  16.266   4.763   7.105  0.3223 -0.0472 -0.0435
 1310ERGO   ROH17199  18.041   9.624   9.076  0.1785  0.1650 -0.1332
 1310ERGO    R117200  17.941   9.711   8.826  0.0048 -0.0427 -0.1385
 1310ERGO    R217201  18.100   9.837   8.638 -0.2351  0.2448 -0.1514
 1310ERGO    R317202  18.008   9.640   8.475  0.1323  0.0531 -0.1350
 1310ERGO    R417203  18.120   9.840   8.293 -0.2402  0.2628 -0.1515
 1310ERGO    R517204  17.919   9.755   8.285 -0.0904 -0.1198 -0.1431
 1310ERGO    C117205  18.046   9.656   7.939  0.1015  0.0933 -0.1363
 1310ERGO    C217206  18.199   9.367   7.673  0.0711 -0.1402 -0.3318
 1311ERGO   ROH17207  17.828  18.325   9.229 -0.0173  0.1337 -0.0032
 1311ERGO    R117208  17.831  18.239   8.959  0.1925  0.0868  0.0128
 1311ERGO    R217209  17.621  18.287   8.786  0.1763 -0.2412 -0.0628
 1311ERGO    R317210  17.817  18.396   8.631  0.0753  0.0104 -0.0197
 1311ERGO    R417211  17.603  18.330   8.443  0.1241 -0.0822 -0.0418
 1311ERGO    R517212  17.811  18.269   8.429  0.1786  0.1073 -0.0850
 1311ERGO    C117213  17.775  18.457   8.099 -0.0011  0.2465  0.0110
 1311ERGO    C217214  17.928  18.622   7.839  0.0419 -0.1656 -0.1810
 1312ERGO   ROH17215   1.999  17.731   9.859  0.0037 -0.3330  0.1437
 1312ERGO    R117216   1.983  17.843   9.600  0.0948 -0.1376  0.2191
 1312ERGO    R217217   2.106  17.729   9.381  0.1202 -0.0102  0.1602
 1312ERGO    R317218   1.856  17.740   9.274  0.1474  0.1298  0.1128
 1312ERGO    R417219   2.038  17.744   9.042  0.1851 -0.1988  0.1386
 1312ERGO    R517220   1.879  17.888   9.087  0.3046 -0.0288  0.0075
 1312ERGO    C117221   1.764  17.763   8.745  0.2484 -0.1774  0.0815
 1312ERGO    C217222   1.844  17.836   8.367 -0.1726 -0.2399 -0.1499
 1313ERGO   ROH17223  10.417  15.526  10.269  0.2396  0.3334 -0.0366
 1313ERGO    R117224  10.341  15.632  10.018  0.1431  0.1285 -0.0940
 1313ERGO    R217225  10.507  15.627   9.798  0.0929  0.0441 -0.1176
 1313ERGO    R317226  10.294  15.505   9.680  0.1188 -0.1192 -0.0027
 1313ERGO    R417227  10.442  15.630   9.459 -0.0374 -0.0561 -0.0957
 1313ERGO    R517228  10.230  15.656   9.505 -0.0464 -0.1824 -0.0093
 1313ERGO    C117229  10.205  15.517   9.151 -0.0891 -0.2678  0.0249
 1313ERGO    C217230  10.316  15.592   8.914  0.0203  0.0528  0.0818
 1314ERGO   ROH17231  17.648   4.800   9.308 -0.0817  0.0887  0.0590
 1314ERGO    R117232  17.655   4.689   9.047  0.0232  0.0912  0.0612
 1314ERGO    R217233  17.427   4.649   8.895  0.0639 -0.1108  0.0570
 1314ERGO    R317234  17.563   4.797   8.712 -0.0609  0.0048  0.0550
 1314ERGO    R417235  17.404   4.611   8.553  0.2608 -0.2975  0.0619
 1314ERGO    R517236  17.619   4.642   8.539  0.2324 -0.0011  0.1444
 1314ERGO    C117237  17.518   4.727   8.181  0.2584 -0.2977  0.0630
 1314ERGO    C217238  17.477   4.934   7.996  0.1353  0.1843 -0.1922
 1315ERGO   ROH17239   4.071   1.428   9.766  0.2258  0.1666 -0.1547
 1315ERGO    R117240   4.097   1.286   9.522  0.3928  0.1639 -0.1362
 1315ERGO    R217241   3.905   1.294   9.324  0.2947 -0.2272 -0.0634
 1315ERGO    R317242   4.115   1.369   9.169  0.1028  0.1314 -0.1613
 1315ERGO    R417243   3.900   1.304   8.979  0.1564 -0.3797 -0.0676
 1315ERGO    R517244   4.103   1.223   8.979  0.3290  0.0210 -0.0959
 1315ERGO    C117245   4.095   1.381   8.631 -0.1043 -0.1318 -0.1619
 1315ERGO    C217246   3.998   1.397   8.294  0.1172 -0.1304 -0.0627
 1316ERGO   ROH17247  11.991   0.730   6.225 -0.2150 -0.1532 -0.0011
 1316ERGO    R117248  11.974   0.765   6.505 -0.0997 -0.0564 -0.0059
 1316ERGO    R217249  11.785   0.637   6.660 -0.0700  0.0388  0.1086
 1316ERGO    R317250  12.003   0.554   6.800 -0.0357  0.0351  0.0539
 1316ERGO    R417251  11.778   0.524   6.987  0.0094  0.0391  0.1108
 1316ERGO    R517252  11.964   0.634   7.023  0.0211  0.0364  0.0642
 1316ERGO    C117253  11.979   0.382   7.309  0.0879  0.0358  0.0607
 1316ERGO    C217254  11.866   0.297   7.659  0.2165  0.0185  0.1281
 1317ERGO   ROH17255   0.244   2.145   9.470  0.2616  0.0989  0.1284
 1317ERGO    R117256   0.224   2.031   9.212  0.4712  0.0051  0.1524
 1317ERGO    R217257   0.058   2.133   9.017  0.0661 -0.4936  0.2198
 1317ERGO    R317258   0.287   2.138   8.870 -0.0000  0.1612  0.1062
 1317ERGO    R417259   0.073   2.119   8.672 -0.0700 -0.4241  0.2097
 1317ERGO    R517260   0.246   1.987   8.689  0.3250  0.0448  0.1176
 1317ERGO    C117261   0.297   2.115   8.333 -0.2113  0.2311  0.0972
 1317ERGO    C217262   0.347   2.182   7.946 -0.3091 -0.0377  0.0231
 1318ERGO   ROH17263  10.660   7.131  10.276  0.0115 -0.1363  0.0143
 1318ERGO    R117264  10.686   6.970  10.045 -0.0755 -0.0880 -0.0306
 1318ERGO    R217265  10.489   6.954   9.852 -0.0936  0.0576 -0.0293
 1318ERGO    R317266  10.692   7.023   9.685 -0.0661  0.0070 -0.0162
 1318ERGO    R417267  10.455   7.012   9.513 -0.0379 -0.0202 -0.0481
 1318ERGO    R517268  10.644   6.908   9.481 -0.0406 -0.0370  0.0045
 1318ERGO    C117269  10.626   7.112   9.159  0.0204 -0.1131 -0.0467
 1318ERGO    C217270  10.536   7.065   8.791 -0.1751  0.1891  0.0951
 1319ERGO   ROH17271   4.735   3.415   6.292  0.0629 -0.0432  0.0971
 1319ERGO    R117272   4.602   3.508   6.524  0.0015 -0.0852  0.0790
 1319ERGO    R217273   4.434   3.347   6.674  0.0393 -0.1415  0.0607
 1319ERGO    R317274   4.598   3.422   6.878 -0.0122 -0.0801  0.0801
 1319ERGO    R417275   4.343   3.360   7.007 -0.0837  0.0848  0.0205
 1319ERGO    R517276   4.456   3.545   7.026 -0.0268  0.0569 -0.0446
 1319ERGO    C117277   4.444   3.438   7.392 -0.2038  0.2742  0.0154
 1319ERGO    C217278   4.602   3.383   7.701 -0.4288 -0.3189  0.0370
 1320ERGO   ROH17279   6.559  11.154   6.298 -0.0217 -0.0367  0.1023
 1320ERGO    R117280   6.618  11.278   6.546 -0.0484  0.1504  0.0163
 1320ERGO    R217281   6.558  11.542   6.598 -0.3335  0.1060 -0.0827
 1320ERGO    R317282   6.430  11.437   6.814 -0.1097  0.0575  0.0298
 1320ERGO    R417283   6.542  11.690   6.910 -0.1447  0.1179 -0.0773
 1320ERGO    R517284   6.571  11.493   6.999  0.0200  0.1333 -0.0875
 1320ERGO    C117285   6.413  11.677   7.294  0.1754  0.0792  0.0315
 1320ERGO    C217286   6.415  11.871   7.636 -0.0738 -0.1899  0.2316
 1321ERGO   ROH17287  14.911   1.478  10.100  0.1482  0.0450  0.0784
 1321ERGO    R117288  15.004   1.523   9.837  0.1498 -0.0941  0.0533
 1321ERGO    R217289  14.982   1.334   9.637  0.0475 -0.1610  0.1199
 1321ERGO    R317290  14.858   1.536   9.503  0.1278 -0.1509  0.0622
 1321ERGO    R417291  14.926   1.339   9.296  0.2405 -0.1278  0.0882
 1321ERGO    R517292  14.978   1.551   9.296  0.2423 -0.1339  0.1330
 1321ERGO    C117293  14.777   1.532   8.972  0.4282 -0.0990  0.0156
 1321ERGO    C217294  14.764   1.432   8.626  0.2996 -0.0945  0.1780
 1322ERGO   ROH17295   4.451  12.134   9.464 -0.0777 -0.0603  0.1341
 1322ERGO    R117296   4.626  12.207   9.255 -0.0826  0.0448  0.1661
 1322ERGO    R217297   4.767  12.021   9.106  0.0972  0.1314  0.2229
 1322ERGO    R317298   4.649  12.148   8.896  0.0494  0.0125  0.1807
 1322ERGO    R417299   4.836  11.958   8.773  0.0894  0.0157  0.2435
 1322ERGO    R517300   4.825  12.173   8.735  0.0284 -0.0056  0.1578
 1322ERGO    C117301   4.766  12.040   8.383  0.0400 -0.1634  0.2157
 1322ERGO    C217302   4.700  12.054   7.993 -0.2275  0.0751 -0.2374
 1323ERGO   ROH17303   4.042  11.927   5.931 -0.2292  0.1488 -0.0300
 1323ERGO    R117304   4.038  12.140   6.118 -0.1474  0.1303 -0.0067
 1323ERGO    R217305   3.895  12.129   6.353  0.1103  0.0283  0.1496
 1323ERGO    R317306   4.136  12.188   6.465  0.2002  0.1518 -0.1031
 1323ERGO    R417307   3.938  12.294   6.654  0.3409  0.1152  0.0705
 1323ERGO    R517308   4.104  12.404   6.564  0.2101  0.1626 -0.1218
 1323ERGO    C117309   4.189  12.446   6.933  0.5596  0.2818 -0.2129
 1323ERGO    C217310   4.424  12.458   7.217 -0.1385 -0.0982 -0.1855
 1324ERGO   ROH17311  16.710   2.089   5.963 -0.0638  0.1946  0.0706
 1324ERGO    R117312  16.819   2.160   6.215 -0.1957  0.1187  0.1507
 1324ERGO    R217313  16.718   2.064   6.453 -0.0891 -0.2551  0.0541
 1324ERGO    R317314  16.975   1.986   6.494  0.0235  0.0770  0.0040
 1324ERGO    R417315  16.885   2.086   6.755 -0.1699 -0.3500  0.1061
 1324ERGO    R517316  17.063   2.149   6.646 -0.2417  0.0386  0.2040
 1324ERGO    C117317  17.224   2.026   6.969 -0.1112 -0.0934  0.0894
 1324ERGO    C217318  17.527   1.994   7.054  0.1093 -0.1071 -0.0677
 1325ERGO   ROH17319  10.142  16.364   6.846  0.1206  0.0063  0.0050
 1325ERGO    R117320  10.012  16.347   7.097  0.0995  0.0325 -0.0031
 1325ERGO    R217321  10.120  16.211   7.312  0.0338 -0.0362 -0.0079
 1325ERGO    R317322  10.083  16.449   7.439  0.1248 -0.0323  0.0099
 1325ERGO    R417323  10.030  16.246   7.644 -0.1468 -0.0260 -0.0577
 1325ERGO    R517324   9.898  16.409   7.586  0.0069  0.0767 -0.1108
 1325ERGO    C117325   9.943  16.489   7.956 -0.1667 -0.0164 -0.0700
 1325ERGO    C217326  10.090  16.428   8.289  0.0386  0.1744  0.2102
 1326ERGO   ROH17327   1.027  15.024   9.347  0.2871  0.1672 -0.0660
 1326ERGO    R117328   0.842  14.952   9.146  0.2008  0.1200  0.0287
 1326ERGO    R217329   0.761  15.127   8.948  0.0469  0.1042  0.0716
 1326ERGO    R317330   0.842  14.927   8.782  0.0199  0.1299  0.0280
 1326ERGO    R417331   0.706  15.118   8.607  0.0959  0.2043  0.0610
 1326ERGO    R517332   0.664  14.905   8.624  0.0414  0.2140 -0.0036
 1326ERGO    C117333   0.750  14.926   8.253  0.0990  0.2866  0.0140
 1326ERGO    C217334   0.652  14.997   8.000  0.0657 -0.2062  0.4354
 1327ERGO   ROH17335   3.960   8.238   5.375  0.0775 -0.3196 -0.1832
 1327ERGO    R117336   4.004   8.326   5.640  0.3816 -0.1350 -0.2895
 1327ERGO    R217337   3.826   8.275   5.845  0.2625  0.5966 -0.1843
 1327ERGO    R317338   4.046   8.171   5.966  0.0078  0.1029 -0.1219
 1327ERGO    R417339   3.875   8.259   6.187  0.2105  0.6699 -0.1733
 1327ERGO    R517340   4.083   8.313   6.155  0.3625  0.1274 -0.2032
 1327ERGO    C117341   4.109   8.152   6.500 -0.0590  0.2491 -0.1084
 1327ERGO    C217342   4.208   8.343   6.777 -0.3061  0.2082  0.2465
 1328ERGO   ROH17343  11.447   4.271   6.668 -0.1731 -0.1553  0.0878
 1328ERGO    R117344  11.523   4.389   6.914 -0.1526 -0.1199  0.0648
 1328ERGO    R217345  11.404   4.321   7.155 -0.0933 -0.1267  0.0921
 1328ERGO    R317346  11.660   4.273   7.231 -0.0692 -0.0655  0.0490
 1328ERGO    R417347  11.515   4.314   7.482 -0.0045  0.0798  0.0673
 1328ERGO    R517348  11.695   4.419   7.418 -0.0267  0.0523 -0.0478
 1328ERGO    C117349  11.820   4.266   7.744  0.0699  0.2574  0.0125
 1328ERGO    C217350  11.813   4.013   7.971  0.0937 -0.0994 -0.1428
 1329ERGO   ROH17351   5.221  15.942   9.824 -0.1490  0.0021 -0.1434
 1329ERGO    R117352   5.387  16.062   9.628 -0.2884  0.2187 -0.1326
 1329ERGO    R217353   5.538  15.914   9.451  0.0637  0.4059  0.0016
 1329ERGO    R317354   5.408  16.064   9.265 -0.1470  0.0781 -0.1272
 1329ERGO    R417355   5.624  15.933   9.117  0.2737  0.5190  0.0612
 1329ERGO    R517356   5.583  16.147   9.124 -0.2161  0.4400 -0.0140
 1329ERGO    C117357   5.553  16.086   8.748  0.1983  0.2771 -0.0251
 1329ERGO    C217358   5.517  15.954   8.388  0.0820 -0.2693  0.1210
 1330ERGO   ROH17359  10.210  11.014   6.309 -0.0027  0.1590 -0.0681
 1330ERGO    R117360  10.250  11.021   6.590 -0.1286  0.1425 -0.0490
 1330ERGO    R217361  10.480  11.122   6.705 -0.0886 -0.0567  0.0512
 1330ERGO    R317362  10.304  11.276   6.844 -0.0164  0.1137 -0.0435
 1330ERGO    R417363  10.525  11.227   7.031 -0.2801 -0.3292  0.1694
 1330ERGO    R517364  10.313  11.189   7.067 -0.3815 -0.0450 -0.0831
 1330ERGO    C117365  10.386  11.433   7.351 -0.3238 -0.3277  0.1493
 1330ERGO    C217366  10.485  11.630   7.694  0.2025  0.2155  0.1530
 1331ERGO   ROH17367  17.170   7.996   5.840 -0.1141 -0.0567 -0.0648
 1331ERGO    R117368  17.360   7.930   6.039 -0.1435 -0.1147 -0.0563
 1331ERGO    R217369  17.526   8.118   6.155  0.0062 -0.1879 -0.1521
 1331ERGO    R317370  17.422   8.019   6.386 -0.0435 -0.0155 -0.0985
 1331ERGO    R417371  17.691   8.113   6.459 -0.0158 -0.0576 -0.1369
 1331ERGO    R517372  17.608   7.914   6.494 -0.0837 -0.0118 -0.0223
 1331ERGO    C117373  17.689   8.017   6.852 -0.0754  0.1800 -0.0777
 1331ERGO    C217374  17.780   8.198   7.133  0.2527 -0.1474  0.2635
 1332ERGO   ROH17375   0.800   6.106   8.932  0.0007 -0.1778 -0.1188
 1332ERGO    R117376   0.939   6.026   8.699 -0.1159 -0.0901 -0.2205
 1332ERGO    R217377   0.886   6.133   8.450 -0.0511  0.2075 -0.1137
 1332ERGO    R317378   1.153   6.183   8.451  0.0006 -0.0568 -0.0989
 1332ERGO    R417379   1.090   6.120   8.171 -0.0613  0.0904 -0.1154
 1332ERGO    R517380   1.243   6.026   8.294 -0.1538 -0.0985 -0.1453
 1332ERGO    C117381   1.460   6.160   8.010 -0.0188 -0.2259 -0.1027
 1332ERGO    C217382   1.415   6.149   7.725  0.1901  0.0168 -0.1149
 1333ERGO   ROH17383   5.570  12.335   9.580 -0.0425 -0.0728 -0.0436
 1333ERGO    R117384   5.580  12.199   9.332 -0.3610  0.0611 -0.1340
 1333ERGO    R217385   5.411  12.263   9.121 -0.1178  0.7164 -0.1595
 1333ERGO    R317386   5.646  12.288   8.985  0.0275  0.1193 -0.0483
 1333ERGO    R417387   5.442  12.268   8.777  0.0909  0.5656 -0.1459
 1333ERGO    R517388   5.620  12.145   8.795 -0.2104  0.1337 -0.0243
 1333ERGO    C117389   5.679  12.295   8.449  0.3487 -0.0827 -0.0336
 1333ERGO    C217390   5.600  12.235   8.071 -0.0001  0.1999  0.0744
 1334ERGO   ROH17391  14.933   6.024  10.114 -0.0561 -0.0246 -0.0171
 1334ERGO    R117392  14.920   6.011   9.832 -0.1597  0.0067 -0.0137
 1334ERGO    R217393  14.994   5.787   9.689 -0.0474  0.0824 -0.0742
 1334ERGO    R317394  14.744   5.811   9.583 -0.1093 -0.0896  0.0276
 1334ERGO    R417395  14.916   5.737   9.356 -0.1458  0.0498 -0.0471
 1334ERGO    R517396  14.781   5.909   9.367 -0.2663 -0.0467  0.0185
 1334ERGO    C117397  14.636   5.730   9.063 -0.2612 -0.1306  0.0644
 1334ERGO    C217398  14.686   5.687   8.730  0.0883 -0.1498 -0.3538
 1335ERGO   ROH17399  16.947  15.202   9.267 -0.2070 -0.0109 -0.0349
 1335ERGO    R117400  16.856  15.280   9.010 -0.0898 -0.0438 -0.0868
 1335ERGO    R217401  16.944  15.510   8.885  0.0093 -0.0898 -0.1000
 1335ERGO    R317402  17.005  15.338   8.683  0.0505 -0.1441 -0.0421
 1335ERGO    R417403  16.880  15.568   8.550  0.0051 -0.2120 -0.1212
 1335ERGO    R517404  16.821  15.359   8.530  0.0489 -0.2320 -0.0539
 1335ERGO    C117405  16.900  15.441   8.166  0.0412 -0.3342 -0.0791
 1335ERGO    C217406  16.740  15.678   7.985 -0.4138  0.0815  0.3048
 1336ERGO   ROH17407   6.346   2.941   9.932 -0.3734  0.1689 -0.1305
 1336ERGO    R117408   6.306   3.040   9.670 -0.0708  0.1244 -0.1966
 1336ERGO    R217409   6.501   3.178   9.531  0.1668 -0.1001 -0.0821
 1336ERGO    R317410   6.454   2.988   9.342  0.1478 -0.1133 -0.0657
 1336ERGO    R417411   6.545   3.223   9.191 -0.1027 -0.0289 -0.1106
 1336ERGO    R517412   6.362   3.110   9.157 -0.0640 -0.1440  0.0111
 1336ERGO    C117413   6.527   3.072   8.816 -0.2776  0.0000 -0.1118
 1336ERGO    C217414   6.642   3.035   8.439 -0.1073  0.1545  0.1063
 1337ERGO   ROH17415   3.589   2.952   6.274  0.1415  0.0734 -0.0939
 1337ERGO    R117416   3.398   2.951   6.483  0.2980 -0.1323  0.0528
 1337ERGO    R217417   3.468   2.923   6.748  0.5570  0.1827  0.0264
 1337ERGO    R317418   3.326   3.153   6.776  0.1538 -0.0509 -0.0387
 1337ERGO    R417419   3.353   3.049   7.049  0.4838  0.1584  0.0080
 1337ERGO    R517420   3.167   3.104   6.949  0.3283 -0.2337  0.0704
 1337ERGO    C117421   3.152   3.338   7.250  0.0627 -0.0749 -0.0638
 1337ERGO    C217422   3.109   3.653   7.288 -0.2537  0.1099  0.2874
 1338ERGO   ROH17423   7.523   7.051  10.356  0.1084 -0.3043 -0.0056
 1338ERGO    R117424   7.495   6.895  10.121 -0.1814 -0.2412 -0.0190
 1338ERGO    R217425   7.282   6.923   9.949 -0.1222  0.2000 -0.0465
 1338ERGO    R317426   7.477   6.957   9.763 -0.0206 -0.1745 -0.0138
 1338ERGO    R417427   7.230   6.937   9.607 -0.0483  0.4458 -0.0478
 1338ERGO    R517428   7.411   6.819   9.580 -0.3141  0.0448 -0.0718
 1338ERGO    C117429   7.384   6.978   9.234  0.0901  0.2375 -0.0179
 1338ERGO    C217430   7.332   7.059   8.837 -0.3904  0.2038  0.5634
 1339ERGO   ROH17431   8.588  17.427   6.543 -0.2008  0.0092  0.0332
 1339ERGO    R117432   8.394  17.610   6.638 -0.0140  0.1894  0.0752
 1339ERGO    R217433   8.169  17.530   6.777 -0.1750  0.3723 -0.0741
 1339ERGO    R317434   8.259  17.708   6.961 -0.0256  0.1369  0.0863
 1339ERGO    R417435   7.999  17.618   7.065 -0.1522  0.3381 -0.0500
 1339ERGO    R517436   8.062  17.825   7.032  0.0814  0.2988  0.1227
 1339ERGO    C117437   7.985  17.838   7.406  0.0013  0.0974  0.1146
 1339ERGO    C217438   8.029  17.806   7.768 -0.1559 -0.4260  0.1192
 1340ERGO   ROH17439   1.233  17.779   5.986 -0.1946  0.0209  0.0864
 1340ERGO    R117440   1.201  17.637   6.228  0.0346 -0.0601  0.0715
 1340ERGO    R217441   1.406  17.605   6.409  0.1050  0.2087  0.0447
 1340ERGO    R317442   1.227  17.711   6.584 -0.0320 -0.0695  0.0784
 1340ERGO    R417443   1.442  17.606   6.753  0.1737  0.2709  0.0371
 1340ERGO    R517444   1.230  17.561   6.771  0.2434 -0.0659  0.0813
 1340ERGO    C117445   1.295  17.707   7.117  0.0853  0.0460  0.0644
 1340ERGO    C217446   1.582  17.709   7.345  0.0795 -0.1604 -0.0741
 1341ERGO   ROH17447   1.344   2.067   9.628  0.1438  0.0748 -0.0282
 1341ERGO    R117448   1.351   1.941   9.375  0.0985 -0.0386  0.0259
 1341ERGO    R217449   1.158   1.984   9.182 -0.0178 -0.2373  0.0914
 1341ERGO    R317450   1.372   2.047   9.027 -0.1226 -0.1839 -0.0330
 1341ERGO    R417451   1.159   1.980   8.837 -0.2030 -0.2546  0.0902
 1341ERGO    R517452   1.359   1.894   8.843 -0.1770 -0.1945 -0.0169
 1341ERGO    C117453   1.361   2.037   8.490 -0.4092 -0.2146 -0.0274
 1341ERGO    C217454   1.293   2.172   8.058 -0.3829  0.0312 -0.4669
 1342ERGO   ROH17455   6.828   3.838   6.342 -0.0996 -0.0826 -0.2436
 1342ERGO    R117456   6.749   3.813   6.613 -0.1472  0.2577 -0.2218
 1342ERGO    R217457   6.489   3.855   6.698 -0.2873 -0.1609 -0.4166
 1342ERGO    R317458   6.518   3.607   6.803  0.2374  0.0837  0.0718
 1342ERGO    R417459   6.276   3.714   6.929 -0.2768 -0.3259 -0.5064
 1342ERGO    R517460   6.449   3.631   7.032 -0.1891  0.3217 -0.0698
 1342ERGO    C117461   6.178   3.398   7.164  0.2218 -0.1923 -0.1001
 1342ERGO    C217462   5.894   3.282   7.280 -0.1708  0.0398 -0.0175
 1343ERGO   ROH17463   3.228   7.560   5.930  0.1184 -0.2235  0.1237
 1343ERGO    R117464   3.354   7.610   6.178 -0.0670  0.0593  0.1667
 1343ERGO    R217465   3.294   7.831   6.334 -0.3934  0.0935  0.0125
 1343ERGO    R317466   3.249   7.643   6.525 -0.2948  0.1486  0.0891
 1343ERGO    R417467   3.351   7.875   6.672 -0.1747  0.1581 -0.0318
 1343ERGO    R517468   3.429   7.672   6.681 -0.1982  0.1577 -0.0312
 1343ERGO    C117469   3.342   7.724   7.048  0.0454  0.2474  0.0143
 1343ERGO    C217470   3.494   7.720   7.265 -0.0560 -0.0685  0.1372
 1344ERGO   ROH17471  13.956   2.432   6.643 -0.0076 -0.2921  0.0119
 1344ERGO    R117472  13.856   2.373   6.901 -0.0289 -0.0575  0.0581
 1344ERGO    R217473  13.908   2.135   7.030 -0.4038 -0.1198  0.0929
 1344ERGO    R317474  13.997   2.298   7.228 -0.0534 -0.2277  0.0326
 1344ERGO    R417475  13.819   2.108   7.363 -0.4242  0.1425  0.1112
 1344ERGO    R517476  13.808   2.326   7.372  0.0026  0.1832  0.0491
 1344ERGO    C117477  13.850   2.246   7.742 -0.1071  0.1938  0.0652
 1344ERGO    C217478  13.714   2.062   8.037 -0.0113 -0.2185 -0.2127
 1345W        W17479  18.133   7.395   1.586 -0.0205  0.1383 -0.2784
 1346W        W17480  12.788   4.551  16.074 -0.0187  0.0164  0.3057
 1347W        W17481   1.748   2.741  11.494  0.0588 -0.0074 -0.2708
 1348W        W17482  16.929  17.917   0.375  0.1174  0.0723  0.0599
 1349W        W17483  11.676  15.995  12.278  0.0642 -0.0756 -0.1847
 1350W        W17484   9.329   2.964   2.619  0.2041 -0.1498  0.1353
 1351W        W17485   1.761  16.213   0.223 -0.0552 -0.1695 -0.1511
 1352W        W17486  17.203  17.286   4.207 -0.0797 -0.0926  0.1088
 1353W        W17487  12.835   3.736   5.423 -0.0111  0.4005 -0.0376
 1354W        W17488   7.749  11.560   0.747  0.0341  0.2161 -0.0499
 1355W        W17489   7.546  10.393  14.748  0.1054 -0.0980  0.1125
 1356W        W17490   1.803  12.410   3.832  0.1111  0.1458  0.0742
 1357W        W17491   5.445   4.477  14.721 -0.3421 -0.0436  0.0870
 1358W        W17492  17.874  11.672  12.200 -0.3040 -0.0414 -0.3568
 1359W        W17493  16.927   1.551  10.491  0.1023 -0.3446  0.0609
 1360W        W17494  17.563   4.989   5.822 -0.4424  0.1014  0.1525
 1361W        W17495  12.027   3.344   4.448  0.0446  0.1315  0.1417
 1362W        W17496  11.610  11.873   2.053  0.2128  0.3744  0.0674
 1363W        W17497   8.405  16.977  12.291 -0.1255 -0.0118  0.1757
 1364W        W17498  15.941   9.923  13.263 -0.0155  0.3337  0.0240
 1365W        W17499  14.752   2.680   0.082 -0.0828 -0.0444  0.0779
 1366W        W17500   9.910  10.408   2.560  0.0452 -0.2758 -0.0435
 1367W        W17501   7.158   1.894   1.481 -0.2406 -0.2465 -0.0481
 1368W        W17502   2.738  14.165   4.700 -0.4189  0.2013 -0.1734
 1369W        W17503  14.615   7.396   2.938  0.0312  0.0234  0.0658
 1370W        W17504  15.202   7.834   2.788 -0.2991 -0.0016 -0.0776
 1371W        W17505   5.710   3.677   4.786  0.2263 -0.0072  0.0061
 1372W        W17506   0.799   4.641   2.760 -0.3997  0.1497  0.0205
 1373W        W17507  15.201  14.114   2.845 -0.0583  0.1545 -0.1321
 1374W        W17508   0.311  10.425  10.544  0.1799  0.0934  0.2854
 1375W        W17509   4.243   5.669  13.973 -0.0880  0.1869 -0.3187
 1376W        W17510   4.198  11.100  12.304  0.0225  0.2952  0.1461
 1377W        W17511   5.551   7.380   1.007 -0.0215  0.1362  0.1261
 1378W        W17512  18.023  18.085   1.190 -0.2803 -0.0193 -0.1136
 1379W        W17513  11.335   3.629   5.427 -0.0677 -0.0156 -0.1823
 1380W        W17514  10.603   4.297   5.571  0.2007 -0.0529 -0.1855
 1381W        W17515   8.360  13.685  15.861  0.2689  0.1600 -0.2681
 1382W        W17516   1.744   6.226  10.430 -0.0270 -0.0860  0.0654
 1383W        W17517   2.494   4.105   1.791 -0.2529 -0.0732 -0.0328
 1384W        W17518   0.882   4.779  11.223  0.2406 -0.0717  0.1525
 1385W        W17519  17.406   8.247   3.935  0.1868  0.1835  0.2096
 1386W        W17520   2.650   8.848  15.442  0.2360 -0.0079  0.2630
 1387W        W17521   8.710  12.261  15.512  0.2545  0.0907 -0.1027
 1388W        W17522  14.527   9.136  12.384 -0.1839 -0.0017 -0.4202
 1389W        W17523  12.275   9.097  12.095 -0.2497 -0.1350 -0.0984
 1390W        W17524   2.888   1.468  11.639  0.0941  0.0924 -0.0787
 1391W        W17525   3.484  10.854  11.825  0.0481 -0.1420 -0.2200
 1392W        W17526  17.656  15.146   4.965  0.2353  0.0612  0.1453
 1393W        W17527   3.657  13.771  15.894  0.1143  0.1363 -0.0242
 1394W        W17528   2.381  14.035   2.765  0.0182  0.2061  0.0186
 1395W        W17529  17.003  17.732  14.695 -0.0539 -0.0145 -0.0661
 1396W        W17530   0.225   0.650   4.859  0.2697 -0.1493 -0.1588
 1397W        W17531  12.912   7.054  14.023 -0.0663  0.0663  0.0186
 1398W        W17532   8.747  17.055   2.828 -0.4332  0.1156  0.0783
 1399W        W17533  11.975  16.546   2.372  0.1988  0.2554 -0.1651
 1400W        W17534   6.053  12.700  12.154 -0.1198  0.2517 -0.2018
 1401W        W17535   5.143  15.611  13.643  0.1982  0.0091 -0.1864
 1402W        W17536   0.661   1.695   3.808 -0.2722  0.0734  0.2711
 1403W        W17537   7.502   3.549  16.046  0.0792 -0.2399  0.1257
 1404W        W17538  13.957   3.838  10.507  0.2024 -0.2492  0.2334
 1405W        W17539  10.894  10.225   1.554 -0.0698 -0.2153  0.0307
 1406W        W17540   4.228   6.812   4.868 -0.0661  0.3148  0.2337
 1407W        W17541   7.344   2.025  12.374  0.1053  0.1017  0.3276
 1408W        W17542   3.310   4.937  12.589 -0.2039  0.4532  0.0528
 1409W        W17543  12.808  12.066   3.608  0.0653  0.2739 -0.1039
 1410W        W17544   0.865   9.003   1.956 -0.1358 -0.0061 -0.0473
 1411W        W17545  13.171  18.134  12.375  0.2874  0.2496  0.1031
 1412W        W17546  13.890   2.281   5.131 -0.1604 -0.0064 -0.0406
 1413W        W17547  14.532   2.498  12.189  0.0172 -0.0390 -0.2133
 1414W        W17548   4.400   7.472   0.974 -0.0150  0.1367  0.1903
 1415W        W17549  13.016   0.992  13.553 -0.0463  0.1562  0.1848
 1416W        W17550   4.935  15.743  10.769  0.0551 -0.0475  0.2454
 1417W        W17551   6.100   2.203  11.722  0.0105 -0.0766 -0.1822
 1418W        W17552   0.630  12.202  12.022  0.0808 -0.0295 -0.0562
 1419W        W17553  12.935   2.428   2.297  0.1040  0.3351 -0.0367
 1420W        W17554   1.284  16.202   0.586 -0.2274 -0.2229 -0.1643
 1421W        W17555   6.893   0.053  10.849  0.0605  0.2055 -0.0395
 1422W        W17556  13.226   0.353  11.374 -0.2060 -0.0941 -0.4607
 1423W        W17557  17.764   7.414  13.192 -0.3270  0.0003 -0.1771
 1424W        W17558  17.359   4.592   2.796  0.3853  0.1249 -0.2527
 1425W        W17559   4.456   8.493   0.942  0.0399  0.2147 -0.1930
 1426W        W17560  13.441  11.855   4.923 -0.2715  0.4633  0.1702
 1427W        W17561  17.472  15.080  11.778 -0.0398 -0.2236  0.5299
 1428W        W17562   0.700   1.718  10.471 -0.1301  0.2026 -0.0152
 1429W        W17563  12.395  13.947   4.734  0.0994  0.1004  0.2385
 1430W        W17564  14.209   4.788   3.571  0.1057 -0.2695 -0.0750
 1431W        W17565   8.829   4.280   4.437  0.2991  0.0581 -0.1145
 1432W        W17566   8.404   6.710   2.505 -0.0942  0.0208  0.0715
 1433W        W17567  10.051  15.884   6.000  0.0820  0.0540 -0.1651
 1434W        W17568   2.862   0.332   2.502  0.0284 -0.1496 -0.2156
 1435W        W17569   6.894   2.981  13.908 -0.2627 -0.0885 -0.0187
 1436W        W17570   6.489  10.382   2.615  0.0290 -0.1199  0.0594
 1437W        W17571   8.166   6.601   0.123 -0.1213  0.0329  0.2011
 1438W        W17572   9.043  15.742  13.990  0.1892  0.0512  0.2750
 1439W        W17573   5.411   5.658   2.265 -0.2024 -0.0775  0.1644
 1440W        W17574  15.853   8.028   3.776 -0.0497 -0.0961 -0.3194
 1441W        W17575  16.517   1.354   0.199 -0.0213  0.0192  0.2814
 1442W        W17576  14.545   8.738   3.012  0.1545 -0.0548  0.0149
 1443W        W17577   6.034  11.957  14.648 -0.3553  0.0795  0.3178
 1444W        W17578   5.093   7.878  14.207 -0.1446 -0.1031  0.0517
 1445W        W17579   8.873  14.720   5.296  0.0206  0.1476  0.1088
 1446W        W17580   3.764   7.624  12.812  0.1684 -0.0533 -0.2434
 1447W        W17581  15.278   7.521  14.094  0.1280 -0.2723  0.0514
 1448W        W17582   6.316  17.085  13.907 -0.2430 -0.0685  0.0978
 1449W        W17583   7.982   2.293  14.907  0.3007 -0.3805  0.2220
 1450W        W17584   2.404  11.037   4.792 -0.0148  0.0732 -0.0680
 1451W        W17585   0.778  15.600   3.374  0.0330  0.1629  0.0051
 1452W        W17586  12.364   3.818  13.876  0.2683  0.0732  0.0973
 1453W        W17587   7.771  15.546  15.736  0.2648  0.0651  0.0667
 1454W        W17588   4.842   8.412   0.648  0.0695  0.0894 -0.0150
 1455W        W17589   7.217   8.388  14.287  0.1997 -0.1230 -0.0823
 1456W        W17590  14.047  16.314   4.656 -0.2908  0.1192 -0.2065
 1457W        W17591  13.714   5.774   5.383 -0.0245  0.0434  0.0466
 1458W        W17592  11.601   2.941  13.628 -0.0631  0.4740  0.4847
 1459W        W17593  10.640   5.503  14.858 -0.0131  0.0530 -0.0196
 1460W        W17594  17.060   7.218   3.228 -0.0968  0.1007 -0.0529
 1461W        W17595   1.800  18.452  14.071  0.0186 -0.1968  0.3351
 1462W        W17596   7.711  14.746  13.098 -0.0277 -0.0478  0.1731
 1463W        W17597  12.132   7.502   3.528 -0.0993 -0.2770 -0.2719
 1464W        W17598   3.169   4.811  13.995 -0.2581 -0.0896 -0.3191
 1465W        W17599   9.728   8.926   1.702  0.0347  0.0182 -0.0230
 1466W        W17600   0.953   5.402  10.302 -0.1635  0.0124  0.0154
 1467W        W17601  17.373   1.972   3.319 -0.2956 -0.1814  0.1017
 1468W        W17602  12.300   9.627  15.910 -0.0059  0.4068  0.0461
 1469W        W17603   7.372  16.471  12.583 -0.0306  0.2937  0.0471
 1470W        W17604   9.784  12.706   3.642  0.0755 -0.1172 -0.0137
 1471W        W17605   4.985   7.940  14.859  0.0064 -0.0132 -0.2152
 1472W        W17606   0.651   4.836  13.306 -0.2486 -0.1673  0.2136
 1473W        W17607  11.708  13.469  12.507  0.1265  0.1011 -0.2589
 1474W        W17608  12.581   1.805   4.454  0.1058  0.0846  0.4181
 1475W        W17609  13.478   0.192  15.572 -0.3591 -0.2028  0.2852
 1476W        W17610  16.354  14.811   0.783  0.3249  0.2155  0.2736
 1477W        W17611   6.644  17.943  12.081  0.2709  0.1033  0.2244
 1478W        W17612  11.714  14.297   2.950 -0.1944  0.2153  0.3511
 1479W        W17613   0.784  14.574   1.777  0.0273  0.1440 -0.1786
 1480W        W17614   5.760  11.851   3.269 -0.0934  0.0707 -0.1945
 1481W        W17615  12.558  12.809   1.639  0.0771  0.0498 -0.4445
 1482W        W17616  12.111  15.025   5.343  0.1173 -0.1054 -0.0574
 1483W        W17617  11.867   8.405  14.979 -0.1327  0.1088  0.0254
 1484W        W17618  13.709   9.695   4.446 -0.1155  0.2010  0.0932
 1485W        W17619   9.134  12.496  13.447 -0.3471  0.0008 -0.3332
 1486W        W17620  10.385  13.602  12.765 -0.2470  0.1427  0.0914
 1487W        W17621  17.800  13.424   2.589  0.2454  0.1147 -0.1935
 1488W        W17622  12.863  12.122  15.894 -0.0594 -0.1789  0.0060
 1489W        W17623   3.939   2.622   1.617  0.2802 -0.3024 -0.1202
 1490W        W17624   1.979  10.338  14.006  0.2652 -0.0899  0.0257
 1491W        W17625   1.805  12.742  15.687 -0.3008  0.3105 -0.0398
 1492W        W17626   7.259   8.238   0.335  0.2400  0.1409 -0.1224
 1493W        W17627  17.801   4.157  15.128  0.3280 -0.0025 -0.3348
 1494W        W17628  13.338  16.521   1.378  0.1886  0.3434  0.0979
 1495W        W17629  14.220   8.238   0.831  0.0517  0.2724  0.2367
 1496W        W17630  10.403  15.373   3.820  0.2061 -0.1126  0.0222
 1497W        W17631   1.391  10.551   5.547  0.3626  0.1047 -0.0224
 1498W        W17632  14.871   9.741   2.798 -0.2862 -0.0441 -0.3539
 1499W        W17633   3.288   0.304  13.796 -0.3334 -0.3023  0.0129
 1500W        W17634   9.772   5.949   0.046 -0.1745  0.3227 -0.1979
 1501W        W17635   0.034  17.788  12.302  0.2359 -0.0565 -0.0803
 1502W        W17636   7.995  18.301   1.626 -0.1559 -0.2084  0.1553
 1503W        W17637  10.231  11.174   5.847  0.3623 -0.2838  0.1067
 1504W        W17638   9.470   8.536   0.708 -0.2983 -0.0180 -0.2706
 1505W        W17639  18.046  17.333  13.462  0.0857 -0.0403 -0.1508
 1506W        W17640  18.242  18.357  13.846  0.2398  0.1763  0.0864
 1507W        W17641   1.778   5.558   3.362 -0.3493 -0.1981 -0.2414
 1508W        W17642   2.295  10.906   3.397 -0.2103  0.0774 -0.0500
 1509W        W17643   5.292  10.020  15.405 -0.1022  0.1273  0.2518
 1510W        W17644  17.856   5.464   1.300 -0.1461 -0.2268  0.1109
 1511W        W17645   4.856  16.178   2.084 -0.1132  0.3905 -0.3103
 1512W        W17646  18.269   4.458  14.877 -0.0811 -0.0532 -0.3104
 1513W        W17647  11.460   2.407  11.192  0.0814  0.0848 -0.0419
 1514W        W17648  13.969   6.767   6.222  0.0338 -0.1151  0.1525
 1515W        W17649   5.239  10.659   0.911  0.2817 -0.0345 -0.1429
 1516W        W17650  15.457   8.436   5.739  0.4110 -0.0558 -0.2506
 1517W        W17651   1.971  11.914   2.756  0.1934  0.3361  0.2523
 1518W        W17652  11.718   0.569  10.377  0.0461 -0.1251 -0.0114
 1519W        W17653   2.102  12.937   3.796 -0.0702  0.3167  0.0757
 1520W        W17654  10.605  13.107  14.314 -0.1785  0.0931  0.3096
 1521W        W17655  16.592  16.041  13.157 -0.1556  0.0473  0.0373
 1522W        W17656  16.481   8.279   1.034 -0.1387  0.1602  0.0091
 1523W        W17657   7.638   2.496   5.343 -0.2967 -0.0261 -0.1262
 1524W        W17658   8.136   0.658  11.967 -0.3296 -0.0593 -0.3239
 1525W        W17659   6.142  11.855   3.913 -0.0969 -0.0438 -0.0127
 1526W        W17660  13.716  14.870   4.015 -0.0250  0.1876  0.3109
 1527W        W17661   5.366  14.052   2.527 -0.1200 -0.0493 -0.0453
 1528W        W17662  15.368  10.438   4.696  0.1049  0.1067  0.0848
 1529W        W17663  15.558   8.828  14.187  0.0552  0.3036  0.2770
 1530W        W17664   4.077   5.558  11.563 -0.2687  0.2187 -0.1120
 1531W        W17665  13.562   3.948  12.592 -0.2986  0.1104 -0.2632
 1532W        W17666  11.198  14.659  12.452 -0.2821  0.1323  0.2271
 1533W        W17667  18.333   7.473  13.824 -0.1545 -0.2739  0.0886
 1534W        W17668   7.818  14.844   3.537  0.0151 -0.0448  0.0550
 1535W        W17669   2.780   5.322  12.828  0.0434 -0.2028  0.2622
 1536W        W17670   8.251   1.014   0.249 -0.0256  0.2804 -0.1066
 1537W        W17671  15.027  11.400   0.385  0.0275 -0.3234  0.0244
 1538W        W17672  14.221   4.106  12.413  0.0442 -0.0869 -0.1634
 1539W        W17673   5.403  15.631  15.219 -0.1851 -0.4002 -0.2167
 1540W        W17674   5.986  17.137  13.564  0.0055 -0.0264  0.1667
 1541W        W17675   4.504  16.783  14.792 -0.0316  0.1192  0.0589
 1542W        W17676   0.373  17.236   2.060 -0.0944 -0.1613  0.1225
 1543W        W17677   8.247   7.540  12.868 -0.3848  0.0531 -0.2269
 1544W        W17678   0.955  12.979  10.345  0.1473  0.0162  0.3642
 1545W        W17679  16.534  10.153   1.839 -0.2645 -0.0485  0.3319
 1546W        W17680   0.064   2.457  15.812 -0.0130 -0.0606  0.0661
 1547W        W17681  11.699  16.148   4.920  0.1613  0.0216 -0.2232
 1548W        W17682  14.798   2.224  14.999 -0.1513  0.2161  0.0184
 1549W        W17683   5.470  10.995   3.942 -0.4414  0.0216  0.2431
 1550W        W17684   3.150  17.631  14.350  0.2911  0.3400 -0.1219
 1551W        W17685  17.954   2.865   5.222 -0.2361  0.1090  0.1945
 1552W        W17686  13.523   1.380   3.024  0.3563 -0.0633 -0.2895
 1553W        W17687  17.982   7.632  11.877  0.0110 -0.1322  0.1362
 1554W        W17688  11.044   7.869  11.568  0.0750  0.2619  0.1113
 1555W        W17689   0.053   2.698   3.172 -0.2575  0.2331 -0.0169
 1556W        W17690  12.480  10.355   3.649  0.1078  0.0118 -0.0444
 1557W        W17691  14.322   0.713  12.878 -0.1301  0.4167 -0.0641
 1558W        W17692   7.086   8.886  14.266  0.2270 -0.0384  0.1582
 1559W        W17693  11.594  17.690   4.671  0.0499 -0.2033 -0.1510
 1560W        W17694   0.237  12.601   0.923  0.0772  0.1182  0.2684
 1561W        W17695  12.833   3.465  12.421  0.2047 -0.0853 -0.2615
 1562W        W17696  16.477   4.678   0.854  0.3382  0.0716 -0.0210
 1563W        W17697   1.976  15.126   9.916  0.0267 -0.0147 -0.2244
 1564W        W17698   3.275   2.705   0.129 -0.2037  0.1291  0.0736
 1565W        W17699  13.055  10.942   5.326  0.1798 -0.2839 -0.3143
 1566W        W17700   9.892   3.702   0.009 -0.0568  0.1326  0.1630
 1567W        W17701   8.115   8.528  16.010  0.5038 -0.2770  0.1247
 1568W        W17702   0.612   6.666  14.840  0.0404 -0.2977 -0.0122
 1569W        W17703   6.546  17.264  11.125  0.3500 -0.0121  0.4465
 1570W        W17704   4.378   2.315   2.249  0.2716  0.3444  0.2821
 1571W        W17705   1.958   8.267  13.610  0.5030  0.1586  0.3030
 1572W        W17706  17.787  18.030   1.604  0.0506  0.0824  0.0907
 1573W        W17707   4.809   0.785   5.006  0.0562 -0.1655 -0.2721
 1574W        W17708   3.390   5.411  10.909  0.4298 -0.1706 -0.2252
 1575W        W17709  12.423   8.524  14.778  0.0968  0.2369  0.2128
 1576W        W17710  13.427  13.423   2.404 -0.1796 -0.0779 -0.0282
 1577W        W17711   3.614   1.247  15.369 -0.1446  0.0668 -0.1133
 1578W        W17712   9.029  15.365   3.523  0.0418  0.1252 -0.4303
 1579W        W17713   3.464  13.369  14.712  0.6548 -0.2828 -0.2313
 1580W        W17714  13.624   7.940   2.396 -0.2641 -0.0732  0.1019
 1581W        W17715  15.762   5.302  15.564  0.2364 -0.3354  0.1653
 1582W        W17716   0.063  11.859  11.434 -0.0418 -0.0977 -0.2268
 1583W        W17717  15.707   1.293   1.887 -0.0754  0.0513  0.4018
 1584W        W17718   5.882  15.296  13.266 -0.1563 -0.2628 -0.0393
 1585W        W17719  12.753   6.195   2.547 -0.1347 -0.0743 -0.0877
 1586W        W17720   7.658  13.486  13.474  0.1065 -0.0742 -0.2284
 1587W        W17721  14.789  13.693   5.513  0.0363  0.0914 -0.1831
 1588W        W17722  11.140   1.592  13.533 -0.0393  0.0076  0.1027
 1589W        W17723   1.419  12.487   3.203 -0.3198 -0.0967 -0.0730
 1590W        W17724   3.530   7.364  13.208 -0.2784 -0.0945  0.2306
 1591W        W17725  10.810   5.903   3.304 -0.1078  0.0936 -0.1871
 1592W        W17726  16.783   9.983   1.116 -0.4999  0.2849  0.1069
 1593W        W17727   0.516   7.549   4.098  0.0968  0.0788 -0.1257
 1594W        W17728   5.269  14.750  10.468 -0.0397  0.3121  0.1611
 1595W        W17729   0.263  10.489   4.617  0.1586  0.0337  0.3906
 1596W        W17730   2.780   0.348   3.377  0.1486 -0.0667  0.4025
 1597W        W17731  12.161  17.107  12.296 -0.1524  0.0340 -0.3728
 1598W        W17732  10.728  14.373   1.837  0.0077  0.2896 -0.3151
 1599W        W17733  15.424   3.514   4.150 -0.1272  0.2203  0.0176
 1600W        W17734  13.333   7.109   4.616 -0.1175 -0.2204 -0.2356
 1601W        W17735   6.899  10.769  13.631 -0.0232 -0.2113 -0.1384
 1602W        W17736  16.311  11.482  13.078 -0.2787 -0.0310 -0.1527
 1603W        W17737  17.315  15.974  11.132  0.0092 -0.3725 -0.5382
 1604W        W17738   5.617   8.668  12.751  0.1669 -0.0423  0.2286
 1605W        W17739   6.962   7.651   1.581  0.1848 -0.2889 -0.1252
 1606W        W17740  16.990  11.547   3.619  0.0372 -0.1204 -0.3713
 1607W        W17741   2.823   6.466   0.076 -0.2524  0.0177 -0.0654
 1608W        W17742   6.392  13.224   4.679  0.2433  0.1012 -0.0818
 1609W        W17743   2.584  11.161  14.381  0.1775  0.0322 -0.1428
 1610W        W17744  16.276  16.730   4.541 -0.0299 -0.1286  0.1431
 1611W        W17745   2.332  10.811   4.274  0.0924 -0.1076 -0.0216
 1612W        W17746  17.083   1.547   4.397  0.1732 -0.0636 -0.0340
 1613W        W17747   7.919   4.646   4.208  0.2130 -0.1129 -0.3194
 1614W        W17748  14.471   0.826   1.396 -0.2005 -0.0843 -0.0823
 1615W        W17749   1.147   3.795   2.962 -0.2317 -0.1313  0.3383
 1616W        W17750   2.787   5.616  13.701  0.2106 -0.2926 -0.0909
 1617W        W17751  17.510   5.380   0.001 -0.0720 -0.1816 -0.0534
 1618W        W17752   0.979  15.125  13.405  0.0747  0.0600 -0.1097
 1619W        W17753  13.321  15.537  11.738  0.0418 -0.1290 -0.3046
 1620W        W17754   8.800   0.066   1.095  0.1564 -0.1723  0.1693
 1621W        W17755  11.105  17.681   2.415 -0.0878  0.0486  0.3703
 1622W        W17756   1.161   1.005  14.618  0.1421  0.1760  0.0893
 1623W        W17757  12.065   6.027  11.520 -0.1343 -0.1391  0.0775
 1624W        W17758  10.245  12.525   1.255 -0.1648  0.0535  0.0197
 1625W        W17759  15.367   5.415   2.691 -0.1705  0.1228 -0.0926
 1626W        W17760  13.401   6.642  10.970 -0.2242  0.2838 -0.0722
 1627W        W17761  16.378   4.351   2.898  0.0047  0.0611 -0.0054
 1628W        W17762   5.985   7.292   4.100 -0.0908  0.0760  0.0775
 1629W        W17763  14.686   7.497  15.901 -0.3840  0.0364 -0.0706
 1630W        W17764   2.233  15.117  13.327  0.0266 -0.0670  0.2593
 1631W        W17765  15.960  15.997   1.759 -0.1027 -0.1819 -0.1521
 1632W        W17766   7.254   1.034   0.671 -0.0882  0.1697  0.0354
 1633W        W17767   0.104  11.862   3.962 -0.3761  0.1418  0.0634
 1634W        W17768   1.083   9.156   1.097  0.0345 -0.1483 -0.3487
 1635W        W17769   3.522   7.036   4.425 -0.1149  0.1892 -0.0131
 1636W        W17770   2.752   3.176   1.745  0.3188  0.3475 -0.0727
 1637W        W17771   3.179  14.993   2.263  0.0070  0.3137 -0.0789
 1638W        W17772   0.720   9.319  10.579 -0.0787 -0.0291 -0.2911
 1639W        W17773  12.236   2.590   5.237 -0.1053  0.2829  0.0663
 1640W        W17774   6.887  12.803   1.834  0.1457 -0.0141  0.1144
 1641W        W17775  14.137   8.360   3.120 -0.0949 -0.0784  0.2452
 1642W        W17776  17.565   1.007   3.425  0.4095 -0.0162  0.0992
 1643W        W17777   0.027  18.363  14.744  0.0592 -0.2849  0.2706
 1644W        W17778   0.895   6.612   5.085 -0.1700  0.2947 -0.1084
 1645W        W17779  15.900  12.576   0.952  0.3090 -0.0128  0.0433
 1646W        W17780   3.477  17.176  13.817 -0.0598  0.1354  0.1517
 1647W        W17781   7.409   8.265   3.917 -0.1698  0.0497 -0.2564
 1648W        W17782  17.801   9.702   4.067 -0.1222  0.0660  0.0401
 1649W        W17783   6.887   0.360   5.872 -0.2006 -0.1859  0.0712
 1650W        W17784   3.114   9.563  13.161 -0.2267 -0.0754  0.3574
 1651W        W17785   7.109  12.692  16.066 -0.2910 -0.0113  0.0605
 1652W        W17786  15.793  14.938  15.477  0.0282 -0.0433 -0.2028
 1653W        W17787  11.406  11.409  15.154 -0.1097  0.0794  0.0906
 1654W        W17788   7.798  12.045   3.612  0.0493  0.3629 -0.0943
 1655W        W17789  14.334  13.155  15.890 -0.2259  0.0988 -0.1540
 1656W        W17790  10.605   6.498  12.817 -0.0765 -0.0152 -0.2218
 1657W        W17791   6.017  15.229  11.195  0.4079  0.0403 -0.0445
 1658W        W17792   4.580  13.472   0.178  0.1952  0.2028  0.1015
 1659W        W17793  15.004   1.949  13.973 -0.1275  0.4484 -0.0187
 1660W        W17794  13.423   6.065   2.108 -0.1254 -0.1346  0.1261
 1661W        W17795   5.559   4.561   4.558  0.3330  0.2427 -0.0335
 1662W        W17796  14.652  14.147  11.276  0.0613  0.1062  0.1411
 1663W        W17797   7.644  10.765   2.361  0.3385  0.2402  0.0260
 1664W        W17798   6.052   9.656  14.694  0.1738 -0.1300 -0.2624
 1665W        W17799   0.042   2.982  11.461  0.0940 -0.3159 -0.4083
 1666W        W17800   5.717  18.324  13.155 -0.1062  0.4045 -0.3750
 1667W        W17801   3.999   0.766  10.443  0.1547 -0.1120  0.1548
 1668W        W17802  11.371   7.727   6.036 -0.0902  0.1013 -0.3562
 1669W        W17803   2.302   8.864   4.536  0.0707  0.4119 -0.1129
 1670W        W17804  13.715   5.228   4.008  0.1233  0.1359 -0.3566
 1671W        W17805  11.178   8.591   5.759  0.1317  0.0437  0.0574
 1672W        W17806  10.131  18.410   3.845 -0.2007  0.0431 -0.0507
 1673W        W17807   2.945   5.313  13.336 -0.1880  0.1910  0.1750
 1674W        W17808  14.982  14.557  15.668 -0.0326  0.0907  0.2927
 1675W        W17809   1.145   1.789   3.599  0.0959  0.1382  0.1862
 1676W        W17810  10.510   4.799   3.739 -0.3979  0.1775 -0.1902
 1677W        W17811   8.028  14.917  12.730 -0.4052  0.0133 -0.0375
 1678W        W17812  13.409   3.455   4.064 -0.0740  0.0670 -0.0496
 1679W        W17813  15.693  14.114   1.052 -0.1322 -0.0231  0.3180
 1680W        W17814   1.968   5.405  10.651 -0.0123 -0.1169 -0.1416
 1681W        W17815   9.983  15.581   5.020 -0.1154  0.0235 -0.1836
 1682W        W17816   2.897   7.594  13.382  0.2801  0.0657 -0.0808
 1683W        W17817   8.209  14.909   1.248 -0.0006 -0.1891 -0.1207
 1684W        W17818  14.057  16.726   2.754 -0.1645  0.0145 -0.0863
 1685W        W17819  10.713  10.831  14.919 -0.2768  0.0192  0.2646
 1686W        W17820   1.547   9.390  10.835  0.1737 -0.0158  0.0343
 1687W        W17821   7.858  10.358   2.215  0.0844 -0.1678  0.3698
 1688W        W17822   6.572   8.780   3.762  0.2067 -0.2413 -0.2954
 1689W        W17823   3.731   2.057  15.240 -0.2898  0.0509 -0.0077
 1690W        W17824  12.286   4.795   3.457 -0.1023  0.0735 -0.1360
 1691W        W17825   8.879   7.879   3.253  0.0014  0.1453  0.0778
 1692W        W17826  12.220  14.478   0.163  0.1289 -0.1873  0.1361
 1693W        W17827   1.321   7.743   2.081 -0.0122 -0.1230 -0.4206
 1694W        W17828  12.282  15.312   2.468  0.1281  0.1207  0.1422
 1695W        W17829  14.305  13.416  11.424 -0.0679 -0.2608  0.2463
 1696W        W17830   0.728   3.544  11.776  0.2335  0.0123  0.2745
 1697W        W17831   0.414  11.673   5.456 -0.0773  0.0980  0.2100
 1698W        W17832  15.377  14.860   5.065 -0.0302 -0.3739  0.2759
 1699W        W17833   1.480  17.788  10.392 -0.4568 -0.0512 -0.0369
 1700W        W17834   4.192   5.397  12.608  0.0966 -0.2452 -0.0170
 1701W        W17835   6.439   3.521  11.896  0.2614  0.2740 -0.0475
 1702W        W17836   3.654   3.948   1.788 -0.0298  0.2786  0.4038
 1703W        W17837   8.481   6.687  15.435 -0.0786 -0.0659  0.1341
 1704W        W17838   7.411   7.951  14.287 -0.3055 -0.1026 -0.2924
 1705W        W17839   3.732  11.523   2.369 -0.1962  0.1764  0.4379
 1706W        W17840  17.223  16.061   3.857  0.2136  0.1104  0.0370
 1707W        W17841   4.685  10.983  12.441 -0.1193  0.3248 -0.1902
 1708W        W17842   0.626   0.260   3.479 -0.0821  0.1119  0.0709
 1709W        W17843  18.096   3.177   0.907  0.0603  0.3215 -0.0194
 1710W        W17844  11.947   9.942   1.800 -0.1998  0.2778 -0.3681
 1711W        W17845  10.040   0.038   3.352 -0.2987 -0.3288 -0.2890
 1712W        W17846   3.990   9.486  11.498 -0.2562 -0.3784 -0.4354
 1713W        W17847   6.308  11.401  13.231 -0.0732  0.3122  0.0522
 1714W        W17848  11.704   5.836   4.316 -0.3234 -0.2682 -0.0862
 1715W        W17849   0.807  14.391   5.606  0.1948  0.2351 -0.0910
 1716W        W17850   5.501  11.955  12.304  0.2147  0.0873 -0.1629
 1717W        W17851  15.813   3.170  14.127 -0.2902  0.1983  0.1314
 1718W        W17852  14.142  12.392  13.548 -0.1286 -0.1797 -0.1662
 1719W        W17853  15.340  13.818  13.914 -0.1047 -0.0364 -0.0551
 1720W        W17854   9.430   7.272  11.322 -0.2717 -0.0357  0.0553
 1721W        W17855  13.425   4.851  13.398 -0.1202  0.0903  0.1091
 1722W        W17856   8.851   7.473  15.079 -0.3193  0.0661 -0.1161
 1723W        W17857   3.987   8.575  13.474  0.0347  0.0323  0.0098
 1724W        W17858  18.345  13.216  16.009  0.0797  0.0731  0.2255
 1725W        W17859   2.614   5.580  10.737  0.0236  0.0963 -0.0369
 1726W        W17860   3.181   7.511   5.230 -0.3181  0.0959  0.1370
 1727W        W17861   7.820   9.496  12.388  0.0068 -0.0520  0.1343
 1728W        W17862  10.092  17.112  13.096 -0.2155  0.0972  0.0718
 1729W        W17863   2.437   2.112   2.902 -0.0253 -0.3577 -0.4384
 1730W        W17864   0.650  16.542  13.393 -0.0232 -0.0151 -0.1959
 1731W        W17865   5.259  17.171  14.705 -0.0060 -0.6147  0.0127
 1732W        W17866   6.798  11.774  12.260 -0.0425  0.2099  0.0169
 1733W        W17867   8.099   4.184  15.468 -0.2475 -0.1230  0.2224
 1734W        W17868  12.853   9.660  13.179  0.2038  0.1000 -0.3546
 1735W        W17869   8.984  14.440  14.735 -0.0963 -0.0624 -0.1248
 1736W        W17870   0.336  18.060   0.727  0.2145 -0.0340 -0.0411
 1737W        W17871   9.485   4.591   3.744 -0.3173  0.0997 -0.0548
 1738W        W17872  17.712  14.803  13.859  0.1147  0.3345 -0.1557
 1739W        W17873   4.937   5.115  12.621  0.1669  0.1287  0.3103
 1740W        W17874   7.873  11.645   1.810 -0.4139  0.0707  0.2899
 1741W        W17875  15.004  17.447  11.193  0.0570  0.1227  0.1235
 1742W        W17876   6.008   4.396  14.072 -0.4499 -0.3440 -0.0696
 1743W        W17877   1.166   0.941  12.023  0.0388 -0.0388  0.1849
 1744W        W17878   8.432   8.757  12.790 -0.0035  0.1252 -0.1716
 1745W        W17879   8.829   8.860  11.153  0.1176  0.0771 -0.1848
 1746W        W17880   7.019   8.560   3.534  0.0797 -0.0588  0.1043
 1747W        W17881  18.154  15.580  11.510  0.2693 -0.3598  0.1265
 1748W        W17882   3.732   6.282   0.894  0.1990  0.4705  0.4689
 1749W        W17883   2.273  13.090   2.499 -0.3501 -0.0351  0.2995
 1750W        W17884  13.277   9.295  12.571 -0.1540  0.1270  0.3483
 1751W        W17885  10.053  16.150  14.724  0.1366 -0.3591 -0.1497
 1752W        W17886  16.836   8.703  13.643 -0.0696 -0.0098 -0.0479
 1753W        W17887  13.003   7.806   1.146 -0.1717 -0.1493 -0.0888
 1754W        W17888   0.900  13.782   5.667 -0.2556  0.1038  0.0734
 1755W        W17889   9.039   7.559   0.516 -0.1456 -0.0443  0.3344
 1756W        W17890  12.169  11.233  12.529  0.0967 -0.2151 -0.1863
 1757W        W17891  18.208   5.779  13.687 -0.0264 -0.0045  0.1092
 1758W        W17892  14.521  14.646   5.264  0.1880 -0.0573 -0.1019
 1759W        W17893  10.704  15.020   4.786  0.1635 -0.1651 -0.2917
 1760W        W17894   9.096   2.833   3.116  0.0725  0.0379  0.0161
 1761W        W17895  12.926  11.825  14.379 -0.1244  0.0437  0.0110
 1762W        W17896   4.371  17.959   2.862  0.0631  0.0463 -0.0389
 1763W        W17897  14.958  16.454   3.029 -0.0240 -0.1241 -0.2095
 1764W        W17898  14.222  14.389   1.247 -0.0212  0.0967 -0.2003
 1765W        W17899   8.901   1.624   4.863  0.1000  0.1245 -0.1091
 1766W        W17900  18.122  16.594  12.906 -0.0887 -0.1281  0.1239
 1767W        W17901   4.482  16.199  10.371 -0.1095 -0.0000  0.1185
 1768W        W17902   4.661   5.809  13.203 -0.0377 -0.1296 -0.2140
 1769W        W17903   5.642  12.436  15.816 -0.3217  0.1594 -0.2755
 1770W        W17904  11.283  14.047  15.958  0.0573  0.2216  0.0211
 1771W        W17905   2.712  12.088   3.991 -0.4230 -0.3772  0.1566
 1772W        W17906   3.605   5.566  11.354  0.3307  0.1538  0.2145
 1773W        W17907  11.182  13.058  13.271  0.0533  0.2123  0.0109
 1774W        W17908   6.011   1.038  14.737  0.1837  0.1288  0.0997
 1775W        W17909   1.334   8.708   3.557 -0.0725 -0.0200 -0.0876
 1776W        W17910   6.736  17.342   4.567  0.1825  0.3130 -0.0394
 1777W        W17911  16.136   3.850  15.254  0.1691  0.5109 -0.1629
 1778W        W17912  16.494  11.660  10.882 -0.0487  0.0586  0.2334
 1779W        W17913   5.860   4.207  15.995  0.0055 -0.3642 -0.0533
 1780W        W17914  14.781  12.382   0.531 -0.0996  0.0437 -0.0168
 1781W        W17915   6.492   2.372   1.905  0.1468  0.1394 -0.1215
 1782W        W17916  11.908  15.950   2.389 -0.0335 -0.2855 -0.1355
 1783W        W17917  17.913   3.976  11.390 -0.0622 -0.1172  0.1213
 1784W        W17918   2.882   9.168   1.383  0.0511 -0.3084  0.2212
 1785W        W17919  10.852  15.877  11.748 -0.3403 -0.1748 -0.1196
 1786W        W17920   5.941   9.468   3.744 -0.1300 -0.1349 -0.0352
 1787W        W17921  14.149   9.543   1.366 -0.2093 -0.1412 -0.1167
 1788W        W17922   2.236  10.406   0.539  0.0824 -0.0611  0.2326
 1789W        W17923   8.939   8.117   1.484  0.1160 -0.0417  0.1445
 1790W        W17924   5.856   2.975   5.389 -0.2205  0.1868  0.4567
 1791W        W17925   0.744   2.485   0.868 -0.1447  0.0575 -0.1207
 1792W        W17926   5.145  11.330  15.727  0.1195  0.0950  0.1218
 1793W        W17927   8.290   9.815  14.725  0.1218 -0.1978 -0.1067
 1794W        W17928  17.009   7.272   4.115  0.0439  0.1431 -0.0667
 1795W        W17929   5.157  15.029   3.619 -0.2190  0.0751  0.0379
 1796W        W17930   8.368   6.461   3.070  0.2185  0.1392  0.3359
 1797W        W17931  15.898   0.822   1.806 -0.1014 -0.3105  0.1056
 1798W        W17932   6.853   9.499  13.580  0.1449 -0.1912  0.0562
 1799W        W17933   2.531  16.881   4.886 -0.0169 -0.0172  0.0373
 1800W        W17934  16.197  15.874  10.721 -0.1895 -0.0690 -0.0311
 1801W        W17935  16.560   1.408  15.773 -0.1140 -0.0213  0.2518
 1802W        W17936  13.581  13.932   5.021 -0.3319 -0.0548  0.0585
 1803W        W17937   7.932   7.166   0.697  0.0509 -0.0386  0.1315
 1804W        W17938   9.192   4.575   1.847  0.3058  0.0579 -0.0823
 1805W        W17939  16.484  14.051   2.278 -0.1466 -0.0718 -0.1028
 1806W        W17940  15.420  18.214  12.906 -0.1954  0.0529  0.0477
 1807W        W17941   2.587  13.165  15.128 -0.1071  0.1180 -0.0406
 1808W        W17942  15.187   5.085  12.798  0.2168  0.1906 -0.1954
 1809W        W17943   8.554  14.337   0.491  0.0588 -0.2239  0.3695
 1810W        W17944   3.411  11.155  14.125  0.0400 -0.1004 -0.0863
 1811W        W17945   2.951  15.144   1.059 -0.0953 -0.1936  0.0450
 1812W        W17946   0.360   4.805   2.381 -0.0369 -0.1207  0.0250
 1813W        W17947   2.421   9.156  15.160 -0.0067  0.1787 -0.1455
 1814W        W17948  18.141  11.238   2.152  0.5723 -0.0467  0.0247
 1815W        W17949   5.244   7.775   3.658 -0.0825  0.0853 -0.1761
 1816W        W17950   3.459   8.233  14.243 -0.0887 -0.0142 -0.2083
 1817W        W17951   8.564  11.306   4.257 -0.2070 -0.1278  0.0082
 1818W        W17952  12.022   7.045   6.241 -0.1415 -0.0653 -0.2098
 1819W        W17953  17.880   7.104   0.309  0.3241 -0.3472 -0.0142
 1820W        W17954   3.749  12.376  15.509 -0.1004  0.0414 -0.1416
 1821W        W17955  18.353   8.669   3.083  0.0595 -0.0607 -0.3269
 1822W        W17956   8.895   3.171   2.843 -0.2870  0.4048  0.2926
 1823W        W17957   8.360  10.294   2.291 -0.1166 -0.0827 -0.1154
 1824W        W17958   1.893   9.926  12.659  0.0247  0.0039  0.3995
 1825W        W17959  14.736  10.389  11.837 -0.0328 -0.0431 -0.3545
 1826W        W17960   1.911   0.475  12.618 -0.1092  0.5539  0.0350
 1827W        W17961  11.158  13.366  13.669 -0.2045  0.0321 -0.1340
 1828W        W17962   0.586   5.585   2.666  0.1358  0.0174 -0.0567
 1829W        W17963   1.834   7.471   2.119 -0.0150 -0.2798 -0.1494
 1830W        W17964   5.570   4.140  13.298  0.1791 -0.0744  0.1358
 1831W        W17965   6.590   9.184   4.081 -0.0757 -0.0083 -0.1442
 1832W        W17966  16.763  10.355   5.153 -0.2446 -0.0612  0.1043
 1833W        W17967  16.024  14.540  14.052 -0.1221  0.0074 -0.0614
 1834W        W17968  12.730   4.315  13.334  0.0094 -0.3555 -0.1592
 1835W        W17969   7.392   5.308   3.135 -0.1413  0.1226  0.0708
 1836W        W17970   3.767   6.057  11.355  0.0902 -0.0111  0.0246
 1837W        W17971   1.279  13.661   4.484  0.1318  0.1319  0.0722
 1838W        W17972  15.110  11.679   4.747  0.2647  0.1563 -0.3053
 1839W        W17973   0.232  13.904   3.524  0.0963  0.3803  0.0524
 1840W        W17974  12.021   4.108  12.145 -0.0073 -0.3759  0.2450
 1841W        W17975   2.446   4.149   2.280 -0.2734 -0.1028 -0.0300
 1842W        W17976   9.332  12.499  11.674  0.0017 -0.3205  0.0770
 1843W        W17977  10.345   8.020  12.697  0.0888  0.1304  0.3255
 1844W        W17978   4.799   1.066  11.400 -0.3084 -0.1561 -0.1614
 1845W        W17979   6.637  13.250  11.484 -0.2770 -0.0338  0.0836
 1846W        W17980   6.093   2.033  16.069 -0.0198 -0.2833 -0.0256
 1847W        W17981   7.535   0.043   1.600 -0.0622  0.0729 -0.2259
 1848W        W17982   8.095   2.374  14.266 -0.1779  0.1767 -0.2433
 1849W        W17983   8.673   0.806   5.092 -0.2445  0.0905 -0.3172
 1850W        W17984  15.045   2.554   2.320 -0.1761  0.0890 -0.3584
 1851W        W17985   8.136  11.219   1.008  0.4292  0.0851  0.1844
 1852W        W17986   4.632  13.735   1.096  0.3229 -0.3274 -0.2130
 1853W        W17987   8.991  17.256   4.117  0.2668  0.0650 -0.0459
 1854W        W17988   4.608  10.561   4.322  0.3727 -0.0270  0.2310
 1855W        W17989  14.587   5.922  10.462  0.4347 -0.2499 -0.2533
 1856W        W17990  12.723   2.980   5.284 -0.1650 -0.1063 -0.0627
 1857W        W17991  11.143   3.554  13.458 -0.1147  0.2267  0.0134
 1858W        W17992  14.962  12.783  13.811 -0.1658 -0.1910 -0.1362
 1859W        W17993  14.274  10.381   2.099  0.0989 -0.2992  0.0207
 1860W        W17994  16.588   9.152   0.819  0.1176 -0.0289  0.0399
 1861W        W17995   1.152   7.457   3.033 -0.0983 -0.1241  0.1127
 1862W        W17996  10.962  18.037   0.349 -0.0352  0.1033 -0.2373
 1863W        W17997   3.558   4.565   2.693  0.0060  0.0884 -0.0130
 1864W        W17998  12.336  12.637  14.482 -0.3083 -0.0602 -0.2721
 1865W        W17999   2.094  14.166   1.330  0.1728  0.3442  0.2752
 1866W        W18000  12.649  18.481  15.932  0.0704 -0.2326 -0.1768
 1867W        W18001  17.484   1.718  11.699  0.1678  0.0641  0.0235
 1868W        W18002   6.211   4.866  14.910 -0.1808  0.1058  0.0087
 1869W        W18003  14.959  15.156   0.481 -0.1338 -0.0322  0.2525
 1870W        W18004   5.831  13.830  15.251 -0.2889 -0.3805 -0.1069
 1871W        W18005  15.689  16.745  15.137  0.0667 -0.0869 -0.0769
 1872W        W18006   6.065  12.984   2.276  0.1920 -0.0670  0.0848
 1873W        W18007   1.632   7.717  12.819 -0.2323 -0.2881 -0.1972
 1874W        W18008  16.970  10.146   1.514 -0.0370  0.1079 -0.0704
 1875W        W18009  12.069  11.689   4.793 -0.1033 -0.1901 -0.2088
 1876W        W18010   9.373  17.852  12.009  0.3206 -0.0676  0.0377
 1877W        W18011  17.199  14.083   5.924  0.0889  0.4391 -0.2371
 1878W        W18012   9.568   6.265  13.804  0.1191 -0.1045  0.2202
 1879W        W18013   0.751   4.110   3.912  0.0310 -0.1309 -0.0011
 1880W        W18014   2.335  11.275  11.906 -0.2538 -0.0504  0.0286
 1881W        W18015  13.862   3.893  14.435  0.2500  0.3358  0.0230
 1882W        W18016   8.206  10.379  14.754 -0.0716  0.0937  0.1145
 1883W        W18017   9.781   5.949   5.988  0.0085  0.1138  0.0248
 1884W        W18018  13.395   9.281  14.393 -0.2443 -0.0524 -0.1471
 1885W        W18019  13.075  12.394   2.408 -0.2028 -0.0641  0.3048
 1886W        W18020   1.628   7.112  10.298 -0.5252 -0.0166  0.1256
 1887W        W18021  18.159   8.640  14.116 -0.0330  0.1663  0.0235
 1888W        W18022   8.809   8.942  12.460  0.2633  0.5044  0.1266
 1889W        W18023  17.328  17.458   4.726  0.2100 -0.2247  0.2436
 1890W        W18024   3.269  13.827   0.788 -0.0187 -0.2182 -0.1171
 1891W        W18025   0.335  16.012  14.607  0.0069  0.2236  0.0563
 1892W        W18026  18.214   3.135   0.166 -0.1627  0.2502  0.0981
 1893W        W18027   8.149  11.030   6.052 -0.2247 -0.2032  0.1739
 1894W        W18028  12.179   1.819   1.164 -0.0139  0.0222 -0.1347
 1895W        W18029   4.115   1.054  13.638 -0.1779 -0.1057 -0.0088
 1896W        W18030  17.180  11.228  12.066  0.2117 -0.1211 -0.2085
 1897W        W18031   9.447  17.849   0.579  0.0504  0.1371 -0.0009
 1898W        W18032   3.327   9.689   0.096 -0.0967  0.1965 -0.0412
 1899W        W18033   5.333   7.987   0.524  0.2008 -0.0444 -0.3317
 1900W        W18034  15.879  15.149  14.097 -0.2512  0.0836 -0.1815
 1901W        W18035   3.962   4.977   2.678  0.0141 -0.1664  0.1288
 1902W        W18036  18.364   6.763  12.954 -0.2168  0.2534  0.0266
 1903W        W18037   2.647  14.839   2.403 -0.1055 -0.0359 -0.2213
 1904W        W18038  11.934   0.714  15.444  0.2287 -0.0796  0.1630
 1905W        W18039  14.870   8.552   1.796  0.0969 -0.0020  0.2044
 1906W        W18040  15.285  13.269   0.806 -0.3666  0.1343 -0.0645
 1907W        W18041   9.596  10.408   1.842 -0.2563  0.1831  0.1494
 1908W        W18042  15.178   2.243   4.395 -0.0161 -0.2145 -0.0154
 1909W        W18043  13.648   8.708  12.242  0.0042 -0.0203 -0.2395
 1910W        W18044  14.541  11.746   4.811  0.0601 -0.1673 -0.1967
 1911W        W18045  12.303  11.858   3.379 -0.0671 -0.3194  0.1411
 1912W        W18046   3.000  10.120   4.534 -0.0458 -0.0919  0.1764
 1913W        W18047   7.550  11.588   5.326  0.1250  0.2931  0.1025
 1914W        W18048   2.161  16.287   0.525  0.2933  0.3218  0.0677
 1915W        W18049   0.822  14.524  14.416  0.1192  0.1243 -0.0064
 1916W        W18050   4.986   5.963   2.321 -0.1638 -0.0027 -0.0198
 1917W        W18051  12.806  11.833   1.393 -0.0695 -0.3556 -0.1669
 1918W        W18052   1.128   7.690  12.587 -0.0868 -0.1866 -0.2581
 1919W        W18053   3.714   4.036   3.438  0.3370  0.1878 -0.1480
 1920W        W18054   1.319  15.157   4.169  0.0188  0.1181 -0.1263
 1921W        W18055   7.883  13.353   0.463 -0.3982 -0.0736  0.0629
 1922W        W18056   8.283   0.266   1.988  0.0047 -0.2256  0.1407
 1923W        W18057   3.229  11.105   0.392 -0.1355  0.2822  0.1570
 1924W        W18058   2.798  12.279  11.073  0.0766  0.0361  0.0962
 1925W        W18059  13.625   9.090   3.545  0.1240 -0.1557  0.3624
 1926W        W18060   9.161   3.386  15.685  0.0938 -0.2642 -0.0973
 1927W        W18061   5.599  16.417   1.871 -0.1056  0.2300 -0.1383
 1928W        W18062   9.957  17.887   6.252  0.0817 -0.2164 -0.0098
 1929W        W18063  14.128  13.443  14.915  0.0503  0.2127 -0.1621
 1930W        W18064   7.462   9.931   6.461 -0.0149  0.0237 -0.2426
 1931W        W18065  17.356   0.702   1.610  0.0300  0.0940 -0.1148
 1932W        W18066  12.957   9.596  12.112  0.1474  0.3181 -0.0392
 1933W        W18067   6.785   2.096  15.004  0.0571 -0.3214  0.0379
 1934W        W18068   0.445   0.659   2.326 -0.4557  0.0398  0.1621
 1935W        W18069   0.990   1.864  14.489 -0.1591 -0.0786 -0.1484
 1936W        W18070   6.794   5.164   1.884  0.1974  0.0230 -0.1597
 1937W        W18071  15.112   6.665   1.007 -0.1246 -0.0795  0.3443
 1938W        W18072  12.037   5.695  14.288  0.0440  0.0551 -0.1554
 1939W        W18073   2.991  11.945  14.410  0.2336  0.0302 -0.2216
 1940W        W18074  18.428   9.209  15.147  0.0996  0.2370 -0.0164
 1941W        W18075   2.478   5.650  14.647 -0.4547 -0.1128  0.1048
 1942W        W18076   7.426   8.735  11.974  0.1500  0.0919 -0.0661
 1943W        W18077  12.209   0.174   3.940  0.1225 -0.1521 -0.0023
 1944W        W18078   4.184   9.015   3.622 -0.2152  0.1857 -0.0278
 1945W        W18079  10.390   8.997   4.104  0.0282  0.4795  0.0932
 1946W        W18080  12.190  10.624   3.970  0.1252 -0.2070 -0.0304
 1947W        W18081   2.575   4.470  12.330 -0.4487 -0.1117  0.2056
 1948W        W18082  13.622   8.983  11.348  0.3302 -0.0470 -0.2819
 1949W        W18083   9.169  10.331  12.529  0.0570 -0.2439  0.4036
 1950W        W18084  10.251  12.690   5.925 -0.0251  0.1067 -0.2648
 1951W        W18085   6.558  11.702  13.728 -0.2040  0.0698 -0.0146
 1952W        W18086   5.582   4.576   0.237 -0.1371 -0.3694  0.0002
 1953W        W18087  11.110  12.111   2.076  0.0297 -0.1875 -0.0644
 1954W        W18088  17.096  16.235  12.255 -0.1733  0.2454 -0.0794
 1955W        W18089  15.904   7.345   5.120 -0.0734 -0.0087  0.1629
 1956W        W18090  12.339  16.298   0.550 -0.2684 -0.0780 -0.0006
 1957W        W18091   8.350   8.366  11.990 -0.0166 -0.0246 -0.3485
 1958W        W18092  15.692  10.406   3.358 -0.0811  0.0773 -0.0780
 1959W        W18093  14.148   1.472  12.647  0.2457  0.1971 -0.3461
 1960W        W18094  13.573  18.058  12.062  0.0468 -0.4824 -0.2041
 1961W        W18095  11.850   3.262   0.886  0.0877 -0.0804 -0.0468
 1962W        W18096   2.488  13.608   1.499 -0.0472 -0.2236  0.0422
 1963W        W18097   6.214   0.286   5.212 -0.4251  0.0936  0.2183
 1964W        W18098  15.985   9.694  15.597 -0.1493 -0.1983  0.2509
 1965W        W18099  10.869  15.014  12.654 -0.1599 -0.1077  0.0517
 1966W        W18100  17.095  15.398  15.511  0.0495 -0.2360 -0.0371
 1967W        W18101   9.230   8.009   5.757  0.0586  0.3026 -0.0731
 1968W        W18102   3.297  14.658   1.857 -0.0381 -0.0664 -0.1353
 1969W        W18103   8.844  18.108  11.387  0.2566  0.0679  0.0526
 1970W        W18104   1.655  10.310   4.654 -0.0238  0.0968  0.0493
 1971W        W18105   9.150   6.247  11.685 -0.0439 -0.2797 -0.3018
 1972W        W18106  14.759   5.518   0.832  0.0048 -0.0064  0.1288
 1973W        W18107  12.919   5.496   4.861 -0.0094 -0.2191 -0.4327
 1974W        W18108  17.730   2.046   4.921 -0.0987  0.2907  0.0608
 1975W        W18109  18.263  12.207   3.669  0.1361 -0.1887 -0.3187
 1976W        W18110  14.639   7.847  12.082  0.1251 -0.0051  0.1102
 1977W        W18111   0.732   6.347   4.560  0.1021 -0.1406 -0.2651
 1978W        W18112  16.324   4.740  14.944  0.0883 -0.3274 -0.0249
 1979W        W18113   5.020  18.072  11.865 -0.1334 -0.0190  0.0673
 1980W        W18114  16.236   6.076   4.683 -0.3963 -0.0661 -0.2567
 1981W        W18115   2.026   0.033  11.321  0.0996  0.0453  0.5299
 1982W        W18116   0.702   0.933  13.019  0.0936 -0.0820  0.1305
 1983W        W18117  10.501   3.717   5.947  0.0471  0.2351  0.0365
 1984W        W18118   2.661   4.930   2.804  0.2021 -0.0853 -0.0506
 1985W        W18119   3.885   2.070   0.423 -0.2321  0.0560  0.2927
 1986W        W18120  17.461   5.197   1.563 -0.2491  0.1041 -0.0170
 1987W        W18121  16.574  13.231  10.649 -0.0372  0.0487  0.0355
 1988W        W18122   8.173   3.884  12.728 -0.3460  0.0611  0.2626
 1989W        W18123   2.299   4.310   0.632 -0.0740 -0.1045 -0.0331
 1990W        W18124   9.025   0.885   1.240 -0.0283  0.1350  0.1002
 1991W        W18125  15.752  13.204   4.320  0.1430  0.4029  0.1090
 1992W        W18126   1.748   9.893   1.994 -0.0117 -0.2499 -0.3639
 1993W        W18127   2.569   3.590  15.454 -0.0008 -0.3333  0.0199
 1994W        W18128   4.494  17.850  11.347  0.2644  0.2549 -0.1936
 1995W        W18129  13.995   9.638  13.260  0.0152  0.2847  0.0133
 1996W        W18130   4.589   9.167   1.442  0.0082  0.1198 -0.0192
 1997W        W18131  12.495  16.540   2.969  0.0610 -0.1752 -0.0085
 1998W        W18132  16.353   2.010   1.311 -0.1749  0.0282  0.1274
 1999W        W18133  15.492   6.635   0.467 -0.0239  0.0659 -0.1075
 2000W        W18134   0.405  13.469  14.560 -0.1512 -0.0830 -0.1274
 2001W        W18135   5.610   9.906   5.164  0.1313  0.1319 -0.1111
 2002W        W18136  10.222   1.492  14.430 -0.2132 -0.2213  0.2965
 2003W        W18137   3.121  16.545   1.826 -0.1968  0.0557 -0.4712
 2004W        W18138   8.364  18.274   1.213  0.3620 -0.4155 -0.0274
 2005W        W18139  15.217  12.392   3.545  0.0381  0.2185 -0.1301
 2006W        W18140   1.393   8.033   3.529  0.3101 -0.0068  0.1902
 2007W        W18141  17.392  11.883   1.970  0.1276  0.0172 -0.0160
 2008W        W18142  17.285  11.705   1.041 -0.1208  0.1485  0.2087
 2009W        W18143   2.462   7.288  15.482  0.1004  0.0353 -0.2956
 2010W        W18144  18.231  11.702  11.848  0.0091 -0.3015 -0.3065
 2011W        W18145  10.129  12.283  15.077  0.1639  0.2905 -0.0773
 2012W        W18146   0.003   5.832  15.871  0.3068 -0.3708  0.0654
 2013W        W18147  10.196  17.554  14.999  0.2149  0.1346 -0.2605
 2014W        W18148  13.516   4.793   3.168 -0.6110  0.0942  0.0599
 2015W        W18149  11.620  14.603   2.488 -0.1081  0.0371  0.3054
 2016W        W18150   8.005   2.834   0.879  0.2912  0.1380  0.1040
 2017W        W18151   2.398   9.794  15.789 -0.0978  0.1918  0.0678
 2018W        W18152   2.830   5.996   4.776  0.2119 -0.1010  0.1527
 2019W        W18153  15.850  15.559   4.944 -0.1271  0.1452 -0.1033
 2020W        W18154   4.717   0.284  13.467 -0.2309 -0.0984 -0.0318
 2021W        W18155   9.083  10.533   4.083 -0.1785 -0.0710  0.1088
 2022W        W18156   6.452  13.132  12.598  0.2251  0.1199 -0.4667
 2023W        W18157  18.359   4.316   2.186  0.1068  0.2674 -0.1691
 2024W        W18158   0.368   8.106  13.987  0.2946 -0.1848  0.2919
 2025W        W18159  10.017   5.845  15.469 -0.0763  0.0577  0.3082
 2026W        W18160   8.637  14.817   2.173 -0.2896  0.3224  0.1990
 2027W        W18161  15.488  13.033  14.733 -0.4455  0.1441 -0.0323
 2028W        W18162   8.595   3.086  15.278  0.0446  0.2303 -0.0880
 2029W        W18163  11.817   4.997  15.273  0.0667 -0.2944  0.3316
 2030W        W18164  10.454   4.019   4.685 -0.1014  0.1552  0.5233
 2031W        W18165  13.715   9.283  13.516 -0.0261 -0.1698  0.0573
 2032W        W18166   1.911   8.985  14.758  0.2127 -0.0006  0.1227
 2033W        W18167   6.410  10.780   5.056 -0.1877  0.0486  0.2356
 2034W        W18168  13.865   8.863  12.793  0.2831  0.0134  0.0596
 2035W        W18169   0.470   4.039  12.492 -0.0303  0.1219 -0.0500
 2036W        W18170   8.888   8.763   2.182 -0.0570  0.0117  0.1089
 2037W        W18171  17.853  11.560   3.374  0.0362  0.0309 -0.2968
 2038W        W18172  16.205  12.837  15.647 -0.2332  0.1889  0.1208
 2039W        W18173  13.819   9.475   3.132 -0.1315 -0.0355  0.0963
 2040W        W18174   6.708   6.627  12.497  0.1100 -0.1864 -0.1882
 2041W        W18175  10.798   4.637  13.332  0.0322  0.0764 -0.3583
 2042W        W18176  16.565   5.471  14.623  0.0426  0.0172 -0.0936
 2043W        W18177   5.813   3.128  11.695 -0.1725  0.1444 -0.4541
 2044W        W18178  11.074  16.458   3.039 -0.0538  0.0888  0.1195
 2045W        W18179   4.256  14.291   1.833  0.0011 -0.0552 -0.0830
 2046W        W18180  12.251  14.058  15.012 -0.0781  0.2391  0.1414
 2047W        W18181   5.987   0.831  12.362  0.4320  0.2228  0.1226
 2048W        W18182   9.872  11.868  15.130 -0.2225  0.0734 -0.3439
 2049W        W18183  18.445  10.021   0.191  0.0308  0.1066  0.0595
 2050W        W18184  17.771  11.914  14.914 -0.0224  0.0652  0.3247
 2051W        W18185   6.694   0.976  11.265  0.0594 -0.0046  0.0455
 2052W        W18186   1.731  12.200   1.766  0.3673  0.1113 -0.0945
 2053W        W18187   0.913   5.559   4.390 -0.0510  0.2252  0.2530
 2054W        W18188  15.265  15.719  11.859 -0.2878  0.0474 -0.3329
 2055W        W18189  14.635  13.387  10.712  0.1200 -0.0715 -0.4591
 2056W        W18190   3.969  14.090   4.221 -0.0356  0.0889 -0.3965
 2057W        W18191  13.363   3.604  12.314  0.1359  0.1344  0.2318
 2058W        W18192  12.196   8.596  15.754  0.0675  0.0533 -0.1066
 2059W        W18193   2.256  15.439   2.965 -0.2355  0.2781  0.0253
 2060W        W18194   5.476   4.481  14.188  0.2033 -0.1532 -0.1614
 2061W        W18195   8.855  15.870  11.356 -0.0261 -0.0467  0.0117
 2062W        W18196   9.542  10.664  12.221  0.0714 -0.0293  0.1120
 2063W        W18197   2.592  13.184   2.889 -0.1374 -0.1474  0.1811
 2064W        W18198   4.226   4.061  13.383  0.0402  0.0168 -0.3679
 2065W        W18199   1.299  11.620  14.981 -0.0591  0.3562 -0.1647
 2066W        W18200   6.686  17.815   3.483  0.2430 -0.0995 -0.0215
 2067W        W18201   6.799  17.152   0.727  0.2351 -0.1117  0.1187
 2068W        W18202   4.958   3.528  13.312 -0.0394  0.1338  0.1181
 2069W        W18203  15.277  10.452   0.207  0.0868 -0.0061 -0.1646
 2070W        W18204  15.096   0.172   3.854  0.2667  0.0867  0.0739
 2071W        W18205   0.702  11.414   0.030  0.0142 -0.0229  0.2969
 2072W        W18206   4.209   5.023   3.148 -0.2858 -0.2860 -0.0776
 2073W        W18207   4.874  12.740  14.452 -0.2935  0.1138 -0.2986
 2074W        W18208   5.203   8.100   1.508 -0.1429 -0.0363  0.0997
 2075W        W18209  10.539   5.709   1.915 -0.1579  0.1506 -0.3291
 2076W        W18210   9.022  10.430   5.043 -0.4458 -0.2046  0.1385
 2077W        W18211   5.198   8.372   4.007  0.1631 -0.1125 -0.0848
 2078W        W18212   5.765   9.590  11.269 -0.1195 -0.1077  0.3889
 2079W        W18213   2.073  16.389   4.189  0.0677  0.0278 -0.2414
 2080W        W18214  16.549   9.696   0.660 -0.0164  0.2194 -0.1925
 2081W        W18215  13.093  10.418   0.542  0.0545 -0.1501  0.0604
 2082W        W18216   3.660   3.421   1.911  0.1166 -0.1429 -0.1050
 2083W        W18217  17.200   0.704   3.631 -0.1153  0.3533  0.0443
 2084W        W18218   7.724   3.272  13.455 -0.1104 -0.2351  0.6040
 2085W        W18219  17.273   3.053  12.070 -0.0117  0.1455 -0.2701
 2086W        W18220   2.219   8.656   1.796 -0.1182 -0.2787 -0.0651
 2087W        W18221   6.616   7.867  11.726  0.0866  0.1086  0.1033
 2088W        W18222   0.622  17.976  12.193 -0.0309  0.1931 -0.3591
 2089W        W18223  10.488  17.343  12.856 -0.2316 -0.0922 -0.2498
 2090W        W18224  15.222   6.979  13.852  0.0174  0.2079 -0.2219
 2091W        W18225  14.642   6.062   0.646  0.0025 -0.1719 -0.1921
 2092W        W18226  12.102  10.434   4.427 -0.1104  0.0643 -0.1392
 2093W        W18227   8.290   7.775   4.058  0.0064  0.1011  0.0569
 2094W        W18228  15.887   3.338  15.135  0.2101 -0.0907 -0.1139
 2095W        W18229   7.247  17.858  16.050  0.0276  0.0158 -0.0415
 2096W        W18230  14.628   1.104  11.632 -0.5802  0.1857  0.1375
 2097W        W18231   1.193  15.422  15.677 -0.0636  0.2295 -0.0394
 2098W        W18232  14.621   2.591   2.707  0.0151  0.3337  0.0676
 2099W        W18233  16.074   9.328   3.814  0.1376  0.0825  0.1073
 2100W        W18234  15.164  17.397  14.015  0.2163 -0.2432  0.0898
 2101W        W18235   1.701   0.875  12.937  0.0142  0.2047 -0.1456
 2102W        W18236   3.695  17.109   3.033  0.3339  0.0034  0.0193
 2103W        W18237   1.440   6.702   0.202 -0.2848  0.2102 -0.1197
 2104W        W18238  15.295  16.854  11.019  0.1014  0.2178  0.0624
 2105W        W18239   6.003   0.115  14.135 -0.1271  0.3665  0.1995
 2106W        W18240  13.921   3.592  11.690 -0.0220  0.0968  0.2489
 2107W        W18241  13.973  13.956  13.791  0.0212  0.0059  0.1850
 2108W        W18242  16.628   9.935   2.468 -0.0306 -0.0864  0.0173
 2109W        W18243   4.113   3.930   3.184  0.0644 -0.3137  0.0762
 2110W        W18244   1.439  12.944  13.069 -0.1575 -0.0687 -0.1910
 2111W        W18245  13.121   4.115  14.798  0.3001 -0.1349  0.1050
 2112W        W18246  11.428   4.485   6.225 -0.3591  0.0584 -0.1558
 2113W        W18247  17.897   0.815   0.676  0.1090 -0.0261  0.1782
 2114W        W18248  13.710   7.738   0.646  0.1913  0.0812 -0.0722
 2115W        W18249   0.035  14.053  13.931  0.0335  0.4120 -0.1109
 2116W        W18250   0.904   5.972  11.677 -0.1819  0.1490 -0.2576
 2117W        W18251   0.085  12.914  11.524 -0.1604  0.0436 -0.2814
 2118W        W18252  10.259   3.304  13.225 -0.1566 -0.0648 -0.4087
 2119W        W18253   5.860  14.828   4.183  0.1900  0.4013 -0.0089
 2120W        W18254   4.153   9.180   0.288  0.1984 -0.1895 -0.1837
 2121W        W18255   9.055  18.462   4.045  0.2664 -0.0365 -0.1534
 2122W        W18256  11.432  12.488   2.275  0.3343  0.0610  0.0092
 2123W        W18257   3.348  15.694  15.628 -0.2424  0.3029 -0.1310
 2124W        W18258   5.258   9.777  11.315  0.0159 -0.1099 -0.0594
 2125W        W18259   9.470  17.347  14.603  0.1509 -0.3538 -0.1978
 2126W        W18260   4.721   7.152   4.790 -0.0715  0.1383 -0.3560
 2127W        W18261   7.819   1.680   3.243 -0.4560  0.2710 -0.2830
 2128W        W18262   4.559   1.744   0.878 -0.1811 -0.1526 -0.0442
 2129W        W18263   0.477   2.952   1.717 -0.1094  0.1487  0.3058
 2130W        W18264   9.994   1.405   1.427  0.0669  0.2449 -0.2461
 2131W        W18265  17.060  13.218  11.427  0.0901  0.0071  0.0118
 2132W        W18266  10.686  10.668   1.557  0.0834 -0.2065 -0.0189
 2133W        W18267  12.640   6.651   2.316 -0.0748 -0.1398  0.0028
 2134W        W18268   4.675   2.107  12.670  0.0580  0.0763  0.0826
 2135W        W18269   2.828   9.739   0.336 -0.0216  0.0606 -0.0349
 2136W        W18270  15.702   8.189   0.689 -0.0899  0.1788 -0.1877
 2137W        W18271  13.884  14.564  11.660 -0.1651 -0.4760 -0.0454
 2138W        W18272  10.849  13.589   0.739 -0.0536  0.0397  0.1872
 2139W        W18273   5.017   7.646   1.200 -0.2285 -0.0394 -0.0840
 2140W        W18274  16.685  10.742   2.133  0.0797  0.0862  0.1879
 2141W        W18275   4.897   4.387  12.774  0.0640  0.3049  0.0719
 2142W        W18276   9.354  15.106  15.275 -0.0334  0.0227  0.3160
 2143W        W18277   0.320   7.872  15.095  0.2141  0.2284  0.0939
 2144W        W18278  18.146  16.176   0.414 -0.2813  0.2131 -0.0824
 2145W        W18279   3.748   5.560   2.058 -0.0071  0.0139  0.1879
 2146W        W18280  18.492   2.796   2.657  0.0681 -0.0345 -0.2303
 2147W        W18281   1.350  10.023   0.866  0.1195 -0.0295 -0.0584
 2148W        W18282  13.382  15.943  11.369  0.1749 -0.1430 -0.3203
 2149W        W18283   9.967   7.276   0.476 -0.0074  0.4365 -0.0333
 2150W        W18284   8.230  17.215   2.706  0.0194  0.2409  0.3272
 2151W        W18285   5.856   0.953   0.585  0.1434 -0.1715 -0.0767
 2152W        W18286   5.696   5.190  16.058 -0.0752  0.2086  0.0855
 2153W        W18287  16.060  14.351  13.473  0.1948 -0.2184 -0.2061
 2154W        W18288   1.848   1.843  11.056 -0.5214  0.1490  0.0204
 2155W        W18289  15.167   3.938   3.510 -0.1478 -0.0543  0.1068
 2156W        W18290   7.074  15.855   3.849 -0.1359  0.0042  0.0343
 2157W        W18291   2.591   7.961   2.271 -0.0035 -0.2881  0.1084
 2158W        W18292   2.353  13.744   3.727 -0.0978 -0.1753 -0.0640
 2159W        W18293  11.377   8.653   0.952  0.0781  0.1403  0.2167
 2160W        W18294  15.958   5.617   3.291  0.0749  0.1802 -0.0843
 2161W        W18295   1.148   0.712  11.522  0.0632  0.0469 -0.0554
 2162W        W18296   7.879  16.384  15.157  0.0483 -0.3461 -0.1974
 2163W        W18297   8.338  18.042  14.626  0.4864 -0.3102 -0.2383
 2164W        W18298  10.194  16.804   0.631 -0.1703  0.0054 -0.0374
 2165W        W18299  13.746  13.402  15.374  0.0429  0.0423  0.1366
 2166W        W18300  16.025  11.444   5.090 -0.0664  0.0867 -0.1175
 2167W        W18301   0.392   2.861   5.236  0.0196 -0.1757  0.2857
 2168W        W18302   6.712  10.292  13.755  0.3064  0.1971 -0.0195
 2169W        W18303   5.764   1.786   0.274 -0.2562 -0.1612  0.1683
 2170W        W18304   4.715   8.746  13.177  0.1398 -0.0929  0.2626
 2171W        W18305  14.440   0.906  13.379 -0.2696  0.2168  0.1824
 2172W        W18306  16.064  11.390  12.547 -0.0437  0.1976 -0.0322
 2173W        W18307   7.727  13.527   3.877  0.3763 -0.0009 -0.3040
 2174W        W18308  11.326   6.021  15.103  0.1938 -0.0473 -0.0224
 2175W        W18309   6.737   8.542  14.224  0.1160 -0.0978 -0.0274
 2176W        W18310  10.983   3.228  12.125  0.1766  0.0966  0.3342
 2177W        W18311   9.843   5.065  15.747 -0.0908  0.1464  0.0968
 2178W        W18312  17.709   4.627   0.863  0.2299  0.0331 -0.0205
 2179W        W18313   8.292   4.588   1.491 -0.0933  0.1693  0.2124
 2180W        W18314  10.551  13.899   2.036 -0.0842 -0.6379 -0.0106
 2181W        W18315  12.800   8.995  12.054  0.1651  0.0686  0.1720
 2182W        W18316   2.207  14.441   0.026 -0.1849  0.0362 -0.0536
 2183W        W18317  17.891  15.496   1.470  0.0937 -0.2343  0.2509
 2184W        W18318   0.817   8.340   1.035  0.2045 -0.0818  0.2739
 2185W        W18319   3.894  17.411  11.905 -0.0634  0.2604  0.0451
 2186W        W18320   8.957   5.453  13.821  0.1239 -0.2265  0.1996
 2187W        W18321   1.969  17.657  11.384 -0.2506  0.2608  0.4769
 2188W        W18322  18.143  18.089  10.674 -0.1153  0.0041 -0.0895
 2189W        W18323   5.555  16.517   0.965  0.0712 -0.0168 -0.1403
 2190W        W18324   7.016   9.582   2.510 -0.2268 -0.0917 -0.3344
 2191W        W18325  12.240   1.252   0.934 -0.1685 -0.0398 -0.0922
 2192W        W18326   3.295  12.077  13.809  0.0972  0.0837  0.3438
 2193W        W18327   6.528  17.395  14.357  0.0178  0.0073  0.0499
 2194W        W18328   5.584  11.961   4.285  0.1508 -0.0937 -0.0308
 2195W        W18329   1.044   0.136  10.810 -0.0143  0.1624 -0.0271
 2196W        W18330   8.322  14.588  12.391 -0.3311 -0.2515 -0.2899
 2197W        W18331  11.263   7.407  14.657 -0.0055 -0.3620 -0.1285
 2198W        W18332   2.379   7.240  13.917 -0.0556 -0.1436 -0.1170
 2199W        W18333   3.565  16.830  11.494  0.0260 -0.1868  0.2905
 2200W        W18334   5.830   3.598   5.278 -0.0965 -0.1444  0.3050
 2201W        W18335  10.769  10.460   4.758 -0.2378  0.0526 -0.1593
 2202W        W18336   2.179  12.959   4.358  0.1263 -0.0084 -0.0633
 2203W        W18337   8.049   3.885  11.176 -0.0073  0.0591 -0.0121
 2204W        W18338  11.492   2.214   3.711  0.2405 -0.0886 -0.2359
 2205W        W18339  16.586   8.469  10.798 -0.0775  0.0803  0.0495
 2206W        W18340   5.880   6.410   1.348 -0.1192  0.2116  0.1132
 2207W        W18341  17.571  11.670   1.449 -0.0925  0.0987 -0.0456
 2208W        W18342  13.129  16.478  14.264  0.1447 -0.2636  0.0959
 2209W        W18343   1.406   0.477  16.042  0.1661  0.1355 -0.1223
 2210W        W18344  15.935   4.892   2.171  0.0036 -0.3373  0.2590
 2211W        W18345   1.709  14.879   0.696  0.2086  0.3719 -0.1464
 2212W        W18346  14.406   7.808  11.353  0.1587 -0.4196 -0.2294
 2213W        W18347   5.485   2.393   0.770 -0.1444 -0.2319  0.0966
 2214W        W18348  16.230   7.709  12.964  0.0774  0.2069 -0.0784
 2215W        W18349  15.232   0.348  16.037 -0.1046  0.0602 -0.0459
 2216W        W18350  15.011   3.258   1.448 -0.0385  0.0905 -0.2028
 2217W        W18351  12.007   9.438  12.305  0.0380 -0.0198 -0.0165
 2218W        W18352  10.126   5.447  14.162 -0.2979 -0.0728  0.2151
 2219W        W18353  11.942   2.062   0.344  0.0120 -0.1803 -0.1493
 2220W        W18354   0.667   5.570  13.205  0.1104  0.4042 -0.0052
 2221W        W18355   8.281   8.676   2.966 -0.0871  0.3305  0.0650
 2222W        W18356  15.658  16.833   5.907 -0.0077  0.3682  0.0129
 2223W        W18357  14.972   3.270   2.905  0.1338 -0.1342 -0.4453
 2224W        W18358  16.835   1.997   4.528 -0.1849 -0.2298 -0.1750
 2225W        W18359  10.873   0.812   0.476 -0.2148  0.0997 -0.1780
 2226W        W18360   5.543  13.199   4.435 -0.1738 -0.0830  0.1761
 2227W        W18361  13.377   3.718   5.666 -0.3138  0.0666 -0.0105
 2228W        W18362  11.925  14.798   3.718 -0.0330 -0.0847 -0.2156
 2229W        W18363   1.737  11.216   0.178  0.0383 -0.2202 -0.2514
 2230W        W18364  13.055  17.446   3.051  0.0698  0.2762  0.0526
 2231W        W18365  15.320   8.113   4.995  0.0425  0.1223  0.1525
 2232W        W18366   9.409   8.566   4.433 -0.3367 -0.0140 -0.1697
 2233W        W18367  16.442  13.694  12.010  0.0343  0.0825  0.2246
 2234W        W18368  12.649   9.937   4.368  0.1011  0.4901 -0.0634
 2235W        W18369   7.946  17.671   2.736  0.0793  0.0458 -0.0898
 2236W        W18370  14.230   2.728  13.051  0.0557  0.3593  0.0448
 2237W        W18371  10.291   0.630  12.059 -0.1568  0.0568 -0.1940
 2238W        W18372  17.715   0.185  12.187  0.0042 -0.1938  0.1217
 2239W        W18373   6.825   8.058  13.295 -0.0148 -0.0394 -0.1965
 2240W        W18374   9.495  16.127  12.091  0.0631 -0.1719 -0.1684
 2241W        W18375   6.633  10.322   3.932 -0.2338 -0.0358 -0.0953
 2242W        W18376   6.001   2.160   1.006 -0.6353 -0.2058 -0.1449
 2243W        W18377   1.731   4.559   1.875 -0.3892  0.0903 -0.1642
 2244W        W18378  12.165   6.541  15.953 -0.0162 -0.1224  0.1524
 2245W        W18379   4.908   1.816  13.454  0.0193 -0.0738  0.2154
 2246W        W18380   5.176   0.945  14.077  0.1107 -0.3548 -0.0603
 2247W        W18381   4.754   3.066   5.023  0.1538  0.1380 -0.0601
 2248W        W18382  16.141   6.414  12.723  0.1205  0.2376  0.1894
 2249W        W18383  16.398   9.212  14.883  0.2293 -0.1794  0.0520
 2250W        W18384   9.474  11.997  11.917  0.1093  0.0065  0.2045
 2251W        W18385   7.341  13.131  13.592 -0.3373  0.1035  0.1267
 2252W        W18386  15.070   1.449   2.806 -0.1840  0.3518 -0.1108
 2253W        W18387   9.801   0.451  13.658 -0.3135 -0.2883  0.3181
 2254W        W18388  17.915   5.201   1.812 -0.0752 -0.2200 -0.1068
 2255W        W18389   0.957  15.534  15.162  0.0618  0.0539  0.0576
 2256W        W18390  14.574   0.056  14.300 -0.3394 -0.1015  0.1061
 2257W        W18391   0.248   5.409  14.968 -0.2368 -0.0198  0.1238
 2258W        W18392   8.036   6.055   2.975  0.1935  0.0289  0.1188
 2259W        W18393  15.305  15.564  14.832  0.0582  0.0285  0.1162
 2260W        W18394   4.446   8.178  11.179  0.4510 -0.1714 -0.1295
 2261W        W18395   2.658  16.111  14.570  0.0354  0.0430 -0.0636
 2262W        W18396   2.453   3.027   1.056  0.0813 -0.0311  0.1448
 2263W        W18397   1.399  17.511  13.030 -0.1248 -0.0790 -0.2444
 2264W        W18398  11.337  12.270   3.943  0.2182  0.2217 -0.0745
 2265W        W18399  15.694   8.168  11.751 -0.0465  0.1253  0.2697
 2266W        W18400   1.274   8.267  10.790  0.0260  0.0265  0.1350
 2267W        W18401  15.473   3.272   1.216  0.2494  0.1031 -0.0222
 2268W        W18402  12.255  10.975   2.980 -0.1500  0.1212 -0.0163
 2269W        W18403  13.532   2.504  11.729  0.0181 -0.2908  0.1812
 2270W        W18404  14.537  17.477   4.232  0.1664  0.0686  0.2969
 2271W        W18405  12.221   1.381  11.070  0.2713 -0.0209  0.2398
 2272W        W18406   1.684   6.556  11.643  0.1065  0.2183 -0.2661
 2273W        W18407  12.345   2.128  12.387 -0.1355  0.0915  0.1034
 2274W        W18408  13.205   5.034  15.147 -0.1704 -0.1724  0.1918
 2275W        W18409  13.025  11.161   3.780 -0.0778 -0.0911 -0.1116
 2276W        W18410  18.385  12.538  12.122 -0.2028  0.0283 -0.0299
 2277W        W18411  17.297  14.231  12.641  0.3902 -0.2750  0.1699
 2278W        W18412   4.494  14.883  13.997  0.3239  0.1627  0.1827
 2279W        W18413   0.001   9.712   4.632  0.0199  0.0940 -0.0968
 2280W        W18414   1.945  14.641   1.392  0.1305  0.1209 -0.1283
 2281W        W18415   0.371  13.563  15.848 -0.1008  0.0395  0.1602
 2282W        W18416   6.690   2.658   4.431  0.2285 -0.1155  0.0431
 2283W        W18417  10.547  17.644   2.505  0.0877  0.2238  0.2661
 2284W        W18418   4.043   9.138  11.150 -0.1689  0.1248 -0.0162
 2285W        W18419   2.954  16.987   5.177  0.0816 -0.1097 -0.1705
 2286W        W18420   9.274  17.846  15.671  0.0285 -0.2723 -0.3784
 2287W        W18421   3.097  11.803   9.793 -0.2815 -0.0276 -0.0727
 2288W        W18422  15.079   7.731   3.364  0.4181  0.0310 -0.0143
 2289W        W18423   6.870  14.019   2.498 -0.1224 -0.0877  0.0712
 2290W        W18424  10.361   3.554  16.071  0.1099 -0.4128 -0.1042
 2291W        W18425  14.654  14.923   3.785 -0.1641 -0.2337 -0.0773
 2292W        W18426   1.166  10.037  12.261 -0.1941 -0.1044  0.0210
 2293W        W18427  14.144  13.344  14.090  0.0459 -0.1666 -0.1949
 2294W        W18428   0.940  15.841  10.945 -0.2157 -0.0106  0.2102
 2295W        W18429   1.506   3.544  13.894 -0.1425  0.0296  0.0669
 2296W        W18430  18.171   7.468   2.394 -0.0283 -0.0827  0.0864
 2297W        W18431  14.064   0.117  14.530 -0.0748 -0.3052  0.0513
 2298W        W18432   7.940   1.762   4.236 -0.1397 -0.2703  0.1361
 2299W        W18433  13.542  10.363   4.217  0.2340  0.1216  0.0457
 2300W        W18434   1.013  13.977  15.492  0.0338 -0.1702  0.4033
 2301W        W18435  14.670  12.771  13.020 -0.0561  0.1324  0.1570
 2302W        W18436  16.113  17.935   3.998 -0.2080 -0.1018 -0.2971
 2303W        W18437  17.417  13.687   3.478 -0.4177  0.1361 -0.1835
 2304W        W18438   2.887   7.563   2.270  0.3716  0.0258  0.1835
 2305W        W18439   1.731   7.829   1.752 -0.0469 -0.1305 -0.0017
 2306W        W18440   2.994   3.120   4.353 -0.0185 -0.0259 -0.0083
 2307W        W18441   1.278  16.795  15.897 -0.1072 -0.2217 -0.1277
 2308W        W18442  13.104   3.712  12.800  0.0557 -0.1055  0.0445
 2309W        W18443   8.607  13.755   4.933 -0.1080  0.0681  0.0641
 2310W        W18444  15.011   7.291   1.378 -0.0181 -0.0620  0.0546
 2311W        W18445   8.654   7.302   0.294  0.0751  0.0587  0.1612
 2312W        W18446  18.254   7.957  15.017 -0.1380  0.2676 -0.1220
 2313W        W18447  13.548   4.223  14.698 -0.1312  0.0937 -0.0984
 2314W        W18448  14.749   3.235  15.199  0.1695 -0.1221 -0.3790
 2315W        W18449   6.287  15.985  11.909 -0.1189 -0.1796 -0.3442
 2316W        W18450  14.260  14.406   3.961  0.1510 -0.1123  0.0116
 2317W        W18451   6.346   2.849  13.945  0.0339  0.0132 -0.0296
 2318W        W18452  13.396   3.441   1.426  0.2046  0.1324  0.0083
 2319W        W18453  18.126  15.272   5.556 -0.0854 -0.0783 -0.2172
 2320W        W18454  12.526   7.999   3.269 -0.0125  0.0017 -0.0127
 2321W        W18455  10.994   0.633   1.858 -0.3112  0.0459 -0.2039
 2322W        W18456  12.998   8.578   3.628  0.0953  0.0590 -0.1464
 2323W        W18457   9.428   5.775   1.947 -0.2794 -0.2796 -0.0655
 2324W        W18458  12.813   1.764   0.883 -0.3468 -0.1990  0.1618
 2325W        W18459   2.813   3.866   0.225  0.0559  0.1403 -0.5706
 2326W        W18460  15.137   7.617  15.587 -0.0522  0.3650  0.2744
 2327W        W18461  12.846  12.927  13.362  0.0412 -0.1846 -0.1680
 2328W        W18462  13.204   7.992  14.252  0.0625 -0.1070  0.1492
 2329W        W18463  15.985   1.694  10.819  0.0577  0.3577 -0.1564
 2330W        W18464  13.663  15.187  15.212 -0.2046 -0.0143  0.0632
 2331W        W18465   0.600   0.597  13.620 -0.5589  0.1087  0.0849
 2332W        W18466   0.385  18.213   3.849  0.0771 -0.1334  0.1054
 2333W        W18467  15.789  13.363  10.375 -0.2860  0.3875  0.0291
 2334W        W18468  18.019   8.889   0.032 -0.2228 -0.0709 -0.2007
 2335W        W18469   0.818   3.628  12.328  0.1318  0.0682 -0.0755
 2336W        W18470  16.066   1.516   2.165 -0.0857  0.0334 -0.4088
 2337W        W18471   1.550  13.534   0.537  0.1316 -0.0358  0.0980
 2338W        W18472  17.936  16.538   3.537 -0.0801  0.1584  0.2093
 2339W        W18473  13.883   4.169   4.626  0.0046  0.0811  0.1774
 2340W        W18474  13.597  12.852   1.718 -0.1287 -0.0798  0.2059
 2341W        W18475  10.441   1.763  10.617  0.0533 -0.0553  0.1077
 2342W        W18476   6.523  15.052   2.937  0.0876  0.2106 -0.1222
 2343W        W18477  14.361  17.415  11.893 -0.0033 -0.2050  0.1690
 2344W        W18478  17.334  17.807  13.531 -0.0440  0.0400  0.0117
 2345W        W18479  12.045  16.474  14.006  0.0022 -0.2366 -0.1255
 2346W        W18480   8.005   4.829   0.130 -0.1767 -0.0806 -0.2710
 2347W        W18481   2.770  17.605   4.065  0.1465 -0.0365 -0.0481
 2348W        W18482  16.172   5.558  15.707 -0.2020 -0.0403  0.0647
 2349W        W18483  16.597  10.933  15.074 -0.1157 -0.1720  0.0469
 2350W        W18484  16.612   8.429   1.629 -0.3015  0.2633 -0.0534
 2351W        W18485  12.931   0.463  11.881  0.0140 -0.1544  0.1684
 2352W        W18486  13.748   4.523  13.548  0.1094  0.2664  0.1048
 2353W        W18487   6.954   1.513   0.494 -0.1634  0.2287  0.0978
 2354W        W18488  10.610   8.213  14.895 -0.3582 -0.0125  0.0390
 2355W        W18489  18.149  11.102  15.580  0.2155  0.3727 -0.2691
 2356W        W18490   7.137  11.654   4.207  0.1332 -0.1256  0.0628
 2357W        W18491   5.749  11.313  11.687  0.1261 -0.1349  0.0927
 2358W        W18492  15.546   3.686   1.511  0.1830 -0.0902  0.1911
 2359W        W18493   5.563   2.733   1.675 -0.3122  0.0519 -0.0330
 2360W        W18494   2.558  10.308   5.347 -0.2736  0.0578 -0.1584
 2361W        W18495   1.898   4.360   1.004  0.2010  0.0975 -0.1611
 2362W        W18496   8.833  11.749   5.059  0.2531 -0.1061  0.3353
 2363W        W18497  17.623   2.219   3.658  0.1138 -0.0190 -0.0198
 2364W        W18498  10.577   3.953  12.734 -0.2022 -0.1489 -0.1079
 2365W        W18499  13.455   7.748  14.626  0.2450  0.0700 -0.1260
 2366W        W18500   3.644   9.141  14.123  0.0714 -0.1112 -0.0102
 2367W        W18501   8.677   7.350   1.365  0.2315  0.0903 -0.0886
 2368W        W18502   7.330   2.420  15.072 -0.0630 -0.4103  0.0094
 2369W        W18503   9.119  13.549   5.334  0.0999 -0.0879 -0.2131
 2370W        W18504  17.967   1.965  11.309 -0.3336 -0.2151  0.3791
 2371W        W18505  17.840   4.787  12.065 -0.1022  0.0440 -0.0639
 2372W        W18506  16.612  16.595   3.030  0.2578  0.0536 -0.4343
 2373W        W18507  12.425  14.567  12.153  0.0505  0.3131 -0.1900
 2374W        W18508   2.320  14.368  15.242 -0.0015  0.1497  0.0065
 2375W        W18509   5.396   1.313   1.409 -0.2696  0.0140  0.0682
 2376W        W18510  12.351   7.129   1.274  0.3872  0.1198  0.2125
 2377W        W18511   7.432  10.111  15.217  0.0548 -0.0903  0.1253
 2378W        W18512   4.215   4.568   1.559 -0.2270  0.0987  0.2743
 2379W        W18513  18.204  15.805  12.589  0.2596 -0.1270 -0.1220
 2380W        W18514  17.291   4.831  15.379  0.0461  0.2411  0.1274
 2381W        W18515  11.268   0.812  11.906  0.0722 -0.2054 -0.2452
 2382W        W18516  10.124   2.280   4.429  0.0850 -0.0466 -0.0346
 2383W        W18517  18.383  17.880  14.905 -0.1027  0.1385  0.0024
 2384W        W18518  13.517  16.629  14.629 -0.0187 -0.0254  0.1907
 2385W        W18519  10.896  14.836  15.613 -0.0372 -0.1700  0.0415
 2386W        W18520   6.366  16.191  11.458 -0.1495  0.4571  0.0860
 2387W        W18521   9.104   5.061  16.048 -0.0800 -0.1095  0.0998
 2388W        W18522   6.560   5.349  12.444 -0.2989  0.3557 -0.0097
 2389W        W18523  10.768   6.731  15.793  0.4572 -0.0255  0.2405
 2390W        W18524   9.303   9.976   2.676  0.0336 -0.1921  0.3747
 2391W        W18525  18.443  18.322  15.275  0.0796  0.1557 -0.0566
 2392W        W18526   9.638   8.895   5.695  0.1580 -0.1928  0.2369
 2393W        W18527   4.349  16.905  15.210  0.1085 -0.1206 -0.0388
 2394W        W18528   0.199   2.411   1.149  0.0891 -0.0644  0.1629
 2395W        W18529   3.252   3.251  11.624  0.0732 -0.0317  0.2308
 2396W        W18530  10.011   7.980  11.822  0.0422 -0.0009  0.1465
 2397W        W18531   1.157  14.697  14.805  0.3697  0.3039  0.0719
 2398W        W18532  15.316  12.343  12.059  0.2143 -0.2446  0.1373
 2399W        W18533   8.899   6.948   1.184 -0.1011  0.2601  0.1870
 2400W        W18534  15.581   8.599  12.495 -0.1364 -0.1672 -0.1345
 2401W        W18535  17.553  11.942  12.620  0.1785 -0.0862  0.1140
 2402W        W18536  10.150  11.209  15.655  0.0657  0.1445 -0.3559
 2403W        W18537   3.331  11.381  15.921  0.0545 -0.0506 -0.1403
 2404W        W18538  17.649   4.124  14.040 -0.2259  0.2331  0.2632
 2405W        W18539   2.243  11.911  13.629  0.2472 -0.1401 -0.0542
 2406W        W18540   6.271   7.467  11.707  0.2880 -0.0443  0.1241
 2407W        W18541  12.023   9.962  12.008 -0.0204 -0.0436  0.1357
 2408W        W18542  13.019   2.302   0.531  0.0574 -0.1977 -0.0503
 2409W        W18543  10.656   0.402   1.506  0.1983 -0.0014  0.1887
 2410W        W18544  14.512  14.229  15.160  0.1316  0.1702  0.1688
 2411W        W18545  17.551   6.635   0.677  0.0801 -0.1052  0.1369
 2412W        W18546   2.266   8.704  11.897  0.4417 -0.0827 -0.2339
 2413W        W18547   0.320  11.641  13.878 -0.1405 -0.2256 -0.2058
 2414W        W18548  17.732   6.628  15.552  0.2488  0.2800  0.0179
 2415W        W18549   1.903  13.396   3.852  0.0632 -0.1723  0.1137
 2416W        W18550  16.213  11.003  12.300 -0.2210  0.3305 -0.0521
 2417W        W18551  10.653  14.980  11.486  0.0829 -0.0141  0.0578
 2418W        W18552  11.722   2.946  15.413  0.2259  0.0706  0.0206
 2419W        W18553   3.355   1.289  13.949  0.1231 -0.3658  0.1647
 2420W        W18554   6.564   1.227   5.296 -0.2431 -0.2441  0.3756
 2421W        W18555   5.737   7.247   1.626 -0.0196  0.1010 -0.1705
 2422W        W18556  15.131  14.423   0.956  0.0953 -0.3314 -0.0635
 2423W        W18557   8.270  12.376   5.365 -0.0920  0.1487 -0.3848
 2424W        W18558   9.452   9.267   0.915 -0.2595  0.2189 -0.0657
 2425W        W18559  12.634  11.014   2.567 -0.1081  0.1173 -0.2415
 2426W        W18560  12.473  13.321  16.060 -0.0948  0.1884  0.1465
 2427W        W18561  14.578   0.679   1.881  0.2543  0.2572 -0.3360
 2428W        W18562  15.014   0.312  15.188  0.0590 -0.1087  0.3464
 2429W        W18563   4.740  12.616   3.503 -0.0766  0.0130  0.0886
 2430W        W18564  13.360   6.653   2.923  0.1188 -0.0801  0.0429
 2431W        W18565   5.463   2.160   5.154 -0.1481  0.0299 -0.0446
 2432W        W18566   5.755   5.258   2.385  0.0696 -0.0103 -0.0118
 2433W        W18567  16.554  16.759  15.632  0.0184  0.3788  0.2129
 2434W        W18568  16.794   2.544  13.541 -0.1000  0.1425  0.0977
 2435W        W18569   0.863   8.674  11.346  0.4482  0.1364  0.1229
 2436W        W18570   1.266   2.701  12.819 -0.2947 -0.0936  0.0685
 2437W        W18571   1.070   3.753   4.673 -0.2161  0.1198  0.0849
 2438W        W18572   1.687  16.565  11.946  0.0730  0.0634  0.2050
 2439W        W18573  11.274   7.035  16.024 -0.1854 -0.1355 -0.1277
 2440W        W18574   6.784  14.449   2.310  0.0677  0.0317  0.2895
 2441W        W18575  12.203  14.575   1.784  0.1929 -0.0994 -0.1332
 2442W        W18576  18.320   3.735  13.536  0.1269  0.0495 -0.1858
 2443W        W18577  11.155   9.624  16.061 -0.2178 -0.2974  0.0717
 2444W        W18578  15.842   7.153  15.223 -0.1726  0.3240  0.0653
 2445W        W18579   3.155   7.149   2.253 -0.0760  0.2120  0.2347
 2446W        W18580  14.768  14.162   0.570 -0.0788  0.2079 -0.0962
 2447W        W18581   0.917  11.061  13.934 -0.1772 -0.0997 -0.0756
 2448W        W18582   7.437   5.882   1.347 -0.3268  0.0646  0.2838
 2449W        W18583   4.594   8.721  15.827 -0.0838 -0.2712 -0.0701
 2450W        W18584   9.509  17.873  14.018  0.1449  0.1077  0.0623
 2451W        W18585   8.621   4.108   6.284 -0.1519 -0.1611 -0.2533
 2452W        W18586   8.828  12.648  12.475 -0.2072  0.0206 -0.1630
 2453W        W18587  10.273  17.248   5.346 -0.1120  0.0509 -0.2602
 2454W        W18588  14.496  12.863   3.510 -0.0686  0.5632  0.3020
 2455W        W18589   3.832  15.435   2.803  0.0631 -0.0295  0.0071
 2456W        W18590   4.571   0.219   3.231  0.0729  0.1157  0.2687
 2457W        W18591  14.854  15.364  11.867 -0.0564 -0.0640  0.0166
 2458W        W18592   5.186  15.006  14.778 -0.0143 -0.1005  0.1592
 2459W        W18593  13.337   7.237   2.821  0.1365 -0.1194 -0.0592
 2460W        W18594   8.463   1.824   4.482  0.1745  0.0654 -0.0066
 2461W        W18595  12.125  15.194  15.829 -0.0860 -0.1660 -0.0675
 2462W        W18596  14.165   8.048  12.979 -0.1667  0.1195  0.0651
 2463W        W18597  15.974  18.222   4.490  0.0972  0.0782  0.3100
 2464W        W18598  14.200  14.922   3.871 -0.2642 -0.1673  0.0855
 2465W        W18599   9.977   9.031  14.560 -0.1472  0.0331  0.1758
 2466W        W18600   0.673   1.854   5.178  0.1871 -0.0753 -0.3063
 2467W        W18601   0.227   1.768   4.040 -0.0259 -0.0886 -0.0190
 2468W        W18602   2.737   4.497   1.985 -0.0822 -0.0621 -0.1541
 2469W        W18603  15.068   6.799  15.017 -0.2723 -0.3385 -0.0066
 2470W        W18604  10.043  10.026  14.412 -0.1967  0.1209 -0.1822
 2471W        W18605  10.118   9.280   3.598  0.2901 -0.0213  0.0366
 2472W        W18606  16.768  18.359   5.891 -0.2317  0.0471 -0.0810
 2473W        W18607   5.204  16.939  11.349  0.1782 -0.0558  0.2174
 2474W        W18608   2.750   3.878  11.689 -0.2762 -0.1216 -0.0184
 2475W        W18609  15.778  10.717   1.057 -0.0167 -0.0817 -0.0212
 2476W        W18610   7.884   0.754   4.958  0.2425  0.1270 -0.4548
 2477W        W18611   2.138   1.456  15.074 -0.0403  0.1597  0.4255
 2478W        W18612  15.750   5.293   1.794  0.1379 -0.1362  0.1178
 2479W        W18613   9.368  11.493   3.338 -0.0550 -0.0914 -0.0406
 2480W        W18614  18.144   2.789  13.926  0.1694 -0.0674  0.1292
 2481W        W18615  18.298  14.031  12.975  0.2731 -0.0988 -0.5275
 2482W        W18616   2.187  13.095   5.276 -0.0559 -0.0354 -0.0579
 2483W        W18617  13.338   4.566   5.827 -0.0747  0.0060 -0.1245
 2484W        W18618   6.948   9.431   3.052  0.4536  0.3325  0.0994
 2485W        W18619  16.851   9.675  13.848  0.0325 -0.1507  0.0613
 2486W        W18620  10.476  12.744   2.528 -0.3027 -0.0185  0.0376
 2487W        W18621   0.903   5.679  13.932  0.2930 -0.0592 -0.2047
 2488W        W18622  10.075   0.295  14.734 -0.1674 -0.0712 -0.2460
 2489W        W18623  16.293   2.503   2.565  0.1003 -0.3177 -0.2922
 2490W        W18624   8.091   7.812   3.549 -0.1256 -0.0122 -0.3165
 2491W        W18625   5.271   8.731  14.688 -0.1933 -0.1032  0.0349
 2492W        W18626   7.216   4.897   0.114 -0.2505  0.4949 -0.3727
 2493W        W18627   3.059  15.614   4.858 -0.1240  0.3426 -0.0484
 2494W        W18628   7.451  11.466   1.200  0.2948 -0.2217  0.1670
 2495W        W18629   1.318  10.432  10.921  0.1547  0.2771 -0.1123
 2496W        W18630  10.613   0.563   4.679 -0.2275 -0.0654 -0.1728
 2497W        W18631  12.867   3.737   2.155 -0.1642 -0.0189 -0.2882
 2498W        W18632   1.667   2.065   1.838 -0.0645  0.1595 -0.1511
 2499W        W18633   6.314   6.296   5.002  0.1247  0.0418  0.2262
 2500W        W18634   7.061   3.981   1.623  0.1368 -0.0561 -0.1111
 2501W        W18635   2.162   5.945  13.000 -0.0761 -0.2096  0.2360
 2502W        W18636  17.416   8.069   4.558  0.1056  0.0804 -0.1999
 2503W        W18637   5.085  12.672  10.716 -0.2583  0.1156  0.1349
 2504W        W18638  11.449  14.278  12.832  0.2435  0.0904 -0.1226
 2505W        W18639   9.475   3.436   4.849  0.0261  0.1215  0.0814
 2506W        W18640   3.502   8.918   4.326 -0.1334 -0.1105 -0.1478
 2507W        W18641   7.958   4.006  13.191 -0.2962 -0.1985 -0.0385
 2508W        W18642   7.584  10.285   5.635 -0.0576 -0.0912 -0.0158
 2509W        W18643  14.902  14.197  13.453  0.2174 -0.3106  0.0008
 2510W        W18644  10.834   8.973  12.184 -0.1081 -0.0285 -0.2821
 2511W        W18645   0.782   5.816  12.706  0.1868  0.1390 -0.0515
 2512W        W18646  17.161  14.450   0.446  0.0684 -0.4468  0.0575
 2513W        W18647   1.137   6.183   4.362 -0.1140  0.0176  0.2402
 2514W        W18648  16.403   1.075   3.039 -0.1323 -0.4812  0.1311
 2515W        W18649  11.375  15.968   5.297  0.0921  0.1243 -0.1905
 2516W        W18650   9.088  15.552  16.072  0.0900  0.2790  0.2972
 2517W        W18651   9.110   4.339  12.020 -0.2598 -0.0231 -0.0056
 2518W        W18652  13.682  15.183  11.344 -0.0483  0.2231  0.3915
 2519W        W18653   5.051   3.513   2.497 -0.0371  0.2641 -0.2681
 2520W        W18654  10.221  10.716  15.676 -0.2094  0.0858  0.0014
 2521W        W18655  12.836  16.489   4.458  0.0176 -0.1117  0.1140
 2522W        W18656  10.061   3.841   0.766 -0.3314 -0.1108 -0.1037
 2523W        W18657  13.280   4.152  13.607  0.1335  0.2198  0.0253
 2524W        W18658   8.082   4.231   0.279  0.0108 -0.2757 -0.2303
 2525W        W18659   9.392  15.409  12.473  0.2663  0.0646  0.1330
 2526W        W18660   6.475   1.988  13.630  0.0084  0.3372  0.0572
 2527W        W18661   1.975  12.432   1.343  0.2313 -0.1199 -0.2388
 2528W        W18662   8.618   0.107   2.395  0.0500 -0.3733  0.1420
 2529W        W18663  17.313   7.480  15.086 -0.0749 -0.0541 -0.1039
 2530W        W18664   6.278   8.656  14.094 -0.1036  0.3620 -0.0964
 2531W        W18665  12.480   9.166  14.061 -0.0931 -0.0398  0.0732
 2532W        W18666   0.552   2.940  13.964 -0.1762  0.1720 -0.0520
 2533W        W18667   2.857  17.615   1.910 -0.1961  0.0208  0.0145
 2534W        W18668  13.939   9.134   5.876 -0.2833  0.0700  0.3425
 2535W        W18669   8.727   2.441   2.144 -0.1675  0.1098  0.1051
 2536W        W18670  18.067  10.948   3.024 -0.2112 -0.1274 -0.1775
 2537W        W18671  17.752   2.939  12.234 -0.0765  0.2033  0.0559
 2538W        W18672   3.171  10.379   0.099 -0.0415 -0.1885 -0.1492
 2539W        W18673   2.968   6.642   9.933  0.4579 -0.1898 -0.2794
 2540W        W18674  14.320   6.536  11.239 -0.0946  0.0577  0.1635
 2541W        W18675  17.351   8.937   1.870 -0.2377 -0.1052  0.2384
 2542W        W18676   8.199  12.441  10.870  0.1245 -0.0438  0.1481
 2543W        W18677   2.527   1.177   3.001 -0.0570 -0.3394  0.0672
 2544W        W18678   5.779  17.385  14.939 -0.2130 -0.0729  0.0591
 2545W        W18679  16.910   5.797  14.737  0.1343 -0.2951 -0.1424
 2546W        W18680   9.042  13.976   1.768  0.1338  0.0501  0.0800
 2547W        W18681  16.503  15.843  14.306 -0.1167  0.0121 -0.2502
 2548W        W18682  14.884   6.136   0.168  0.1340 -0.2409  0.2377
 2549W        W18683   7.550   7.997   5.848  0.1074 -0.2012  0.0948
 2550W        W18684  16.989   5.267   5.620 -0.3737  0.0444 -0.0759
 2551W        W18685  14.693   9.482   5.244  0.0970 -0.2723  0.1633
 2552W        W18686  15.628  12.845   0.605 -0.0459 -0.0960  0.0508
 2553W        W18687   2.177   3.119  12.260 -0.0270 -0.1285  0.1087
 2554W        W18688   1.994   1.964   3.207  0.0694 -0.0349 -0.0858
 2555W        W18689  18.426  17.196  15.964  0.0103 -0.0449  0.0372
 2556W        W18690  11.819   2.214   1.528  0.0609 -0.1427 -0.1489
 2557W        W18691   2.584  17.154   0.545  0.2415  0.0449  0.0569
 2558W        W18692  13.977  10.593  14.104 -0.0419  0.1334 -0.0593
 2559W        W18693   6.307   1.518   2.414  0.0078  0.1220 -0.3181
 2560W        W18694   4.306   2.158   1.004 -0.2009 -0.2087  0.0855
 2561W        W18695  12.747   9.155  11.191  0.1387 -0.2037 -0.0269
 2562W        W18696  11.477   8.393  13.808 -0.2823 -0.0562 -0.2040
 2563W        W18697   4.582  16.898  12.462 -0.1882 -0.1341  0.3387
 2564W        W18698  17.605  12.664   0.967 -0.2204 -0.1167  0.1737
 2565W        W18699  11.697  13.788   2.904 -0.4479  0.2311  0.2522
 2566W        W18700   9.677  12.806   3.165 -0.1049  0.2590 -0.3990
 2567W        W18701  12.423   7.360  13.668  0.0366 -0.5248 -0.1563
 2568W        W18702   2.677   9.394  11.511 -0.0072  0.0989 -0.0468
 2569W        W18703  13.711  14.652   2.419  0.0714  0.1355 -0.0980
 2570W        W18704  10.891  15.945   1.128 -0.1977  0.0325  0.3235
 2571W        W18705   9.342   8.728   0.164  0.1865 -0.1525  0.0442
 2572W        W18706   1.539  11.639  11.242 -0.0822 -0.2036  0.3725
 2573W        W18707  16.325  13.217  15.937  0.3111 -0.2811 -0.1356
 2574W        W18708   2.586   8.976   3.374 -0.0953  0.0471  0.1938
 2575W        W18709  10.476   2.100  11.880 -0.1316  0.0560  0.2644
 2576W        W18710   9.527  15.800   5.153  0.3499  0.2903  0.0335
 2577W        W18711   8.270   0.191   2.985  0.0115  0.1701  0.1930
 2578W        W18712  11.781   0.385   2.478 -0.0209  0.1371 -0.0874
 2579W        W18713   2.002  17.270  13.813  0.1132 -0.1003  0.1936
 2580W        W18714   0.993  15.828   4.794  0.1953  0.2379 -0.0816
 2581W        W18715  13.520   6.272   5.489  0.1606 -0.3089  0.2058
 2582W        W18716   7.329  10.600   3.091 -0.0365  0.1692  0.1952
 2583W        W18717  14.114  13.147   1.891  0.1365 -0.0370 -0.1841
 2584W        W18718  16.846   0.075   3.866 -0.1918  0.1645 -0.3005
 2585W        W18719  11.725  10.469  14.843  0.0994 -0.1021  0.0032
 2586W        W18720   9.416  13.393  13.194  0.0549 -0.0551  0.0129
 2587W        W18721   0.546  15.384   5.621 -0.4813 -0.0442 -0.1220
 2588W        W18722   3.079   9.113  11.748 -0.2012  0.2921  0.1833
 2589W        W18723   7.912   1.636  13.669 -0.2853  0.0479 -0.3245
 2590W        W18724   8.079  12.736  14.977  0.0571  0.1605  0.1374
 2591W        W18725   0.383   3.924  15.976 -0.1279  0.1088  0.0012
 2592W        W18726   7.004   0.918  14.691  0.0291 -0.2090 -0.1387
 2593W        W18727   2.227   3.722   2.243 -0.0804 -0.0484 -0.0980
 2594W        W18728   3.599  18.031   3.503 -0.1500 -0.4544  0.2925
 2595W        W18729   9.659   9.044  12.852 -0.0626  0.0844  0.1982
 2596W        W18730   3.149   9.548  12.253  0.1404 -0.0005 -0.3725
 2597W        W18731   6.020   7.939   2.789 -0.2390  0.0641  0.1123
 2598W        W18732   3.828   9.774  13.495 -0.2542 -0.4183 -0.1697
 2599W        W18733  10.378  13.380   3.672 -0.0541  0.1532 -0.0136
 2600W        W18734  15.342   0.973  13.585  0.1258  0.2695 -0.2536
 2601W        W18735  13.775  13.308  11.282 -0.0904 -0.1559  0.1802
 2602W        W18736   7.267  11.610  12.289 -0.0022  0.0317  0.1632
 2603W        W18737  14.465   2.775   4.028 -0.0712 -0.0480  0.0826
 2604W        W18738  13.944  17.226  13.029 -0.1293 -0.2969 -0.4275
 2605W        W18739   9.672   7.817   5.998 -0.0608 -0.0508  0.1536
 2606W        W18740   7.289   6.685   2.821 -0.0511  0.2584 -0.0290
 2607W        W18741   6.057   6.614  12.119  0.2046  0.1852  0.1855
 2608W        W18742  13.899   6.982  10.949 -0.0822 -0.3493 -0.2761
 2609W        W18743  12.734  10.497   1.010  0.2429 -0.1327  0.3836
 2610W        W18744   1.117   8.457  13.105  0.1362  0.0628  0.3248
 2611W        W18745  10.829  16.438   3.459  0.0311 -0.0660  0.0222
 2612W        W18746   7.348   4.750   1.738 -0.0203  0.1111  0.0450
 2613W        W18747   6.228  10.196   0.532 -0.0801  0.0806  0.1802
 2614W        W18748  17.824   1.837  12.268 -0.0258 -0.0719  0.1453
 2615W        W18749   4.146  17.997   1.830 -0.0445 -0.1784  0.0709
 2616W        W18750  10.329   9.805  13.527 -0.2100 -0.1801  0.2894
 2617W        W18751  13.019  11.704   2.108  0.2008  0.0922  0.0988
 2618W        W18752   7.527   0.359  13.889  0.0480 -0.0504  0.1602
 2619W        W18753  16.774   8.197   4.092 -0.0066  0.0581  0.1628
 2620W        W18754   0.081   6.868   1.003 -0.0014 -0.0861 -0.0861
 2621W        W18755   4.563   0.090   1.672  0.0293  0.1922  0.0127
 2622W        W18756   4.931   0.445  11.865  0.1406 -0.2331  0.2197
 2623W        W18757   0.759   9.781  14.389 -0.2705  0.1231  0.0127
 2624W        W18758   4.560  16.845   0.419 -0.1191  0.4387  0.0370
 2625W        W18759   1.221  15.891   4.337  0.1584 -0.2207 -0.0766
 2626W        W18760  17.260  15.955  13.144 -0.0156  0.0931  0.0905
 2627W        W18761   0.340  18.271   2.140 -0.1517  0.3186  0.0951
 2628W        W18762  14.744  13.433  15.232  0.1052  0.2346  0.1378
 2629W        W18763   0.715   1.295  12.065 -0.1822 -0.0108 -0.1790
 2630W        W18764  14.456   3.415  15.635  0.1205 -0.2044 -0.2683
 2631W        W18765   5.850   3.623   4.124 -0.1499 -0.2882 -0.0353
 2632W        W18766   7.584  10.456  11.095 -0.1314 -0.2120 -0.0584
 2633W        W18767  14.839  18.423  16.042 -0.0553 -0.1569  0.1489
 2634W        W18768   7.210   3.674  14.657  0.2162  0.0929  0.0649
 2635W        W18769  11.147  11.148  14.801  0.2516  0.0520 -0.1111
 2636W        W18770  14.698   9.424   1.473  0.3423 -0.3720  0.1382
 2637W        W18771   6.697  15.434  14.139  0.0446  0.4065  0.0648
 2638W        W18772  11.598  15.180   5.368 -0.0484 -0.0502  0.2258
 2639W        W18773   4.547   7.244  15.224 -0.2129  0.2095 -0.3914
 2640W        W18774  13.501  17.591   4.166 -0.2025 -0.2515  0.0638
 2641W        W18775  17.097   8.073   2.754 -0.0554  0.0742 -0.1601
 2642W        W18776  17.636   3.101   1.160  0.0898  0.0032  0.1702
 2643W        W18777   0.690   9.182  12.590  0.2844 -0.2204  0.1916
 2644W        W18778  16.863  14.912  11.125 -0.2759  0.2458 -0.1107
 2645W        W18779  14.282   2.080   0.292  0.1335 -0.0109  0.3392
 2646W        W18780  17.083   4.211   3.119  0.2879  0.2474  0.0739
 2647W        W18781  14.125  11.642  12.694  0.2102 -0.2831  0.0166
 2648W        W18782   4.980   3.891  12.965 -0.2069 -0.1146  0.1587
 2649W        W18783   8.608  15.660  15.811 -0.1103  0.2316 -0.1029
 2650W        W18784   6.008   7.665  16.072  0.3023 -0.0274  0.1800
 2651W        W18785   5.952   4.348  12.267  0.0264  0.1529 -0.1235
 2652W        W18786  15.894  15.322  14.669  0.0790  0.1122 -0.1225
 2653W        W18787  14.721  10.550   3.128  0.4247 -0.3188 -0.0912
 2654W        W18788  15.622  12.287   2.289  0.1621 -0.1824  0.0681
 2655W        W18789  16.902  13.528   1.490 -0.0123  0.1136 -0.2618
 2656W        W18790  14.002   2.295  11.690  0.1939  0.1365 -0.0726
 2657W        W18791  18.045   2.707   2.359 -0.3517  0.2914  0.3292
 2658W        W18792   4.407   5.065  10.365 -0.0844 -0.1957  0.0788
 2659W        W18793  14.973  14.029  12.200 -0.0171 -0.2903 -0.1807
 2660W        W18794  13.819   8.291   2.781 -0.1987 -0.0448 -0.0555
 2661W        W18795  15.420   0.144  12.539  0.2779 -0.2601  0.1524
 2662W        W18796  15.974  12.991  12.084 -0.0655  0.0232  0.3620
 2663W        W18797   8.160   2.700   0.010  0.1425  0.2240 -0.3188
 2664W        W18798  14.679  12.486  15.241  0.1498  0.0149  0.2570
 2665W        W18799  10.125   5.234  11.706  0.0726  0.0957  0.4075
 2666W        W18800  15.018   8.304   2.845 -0.4173 -0.0033  0.4116
 2667W        W18801   7.450   0.784   3.061  0.1997  0.3736  0.1899
 2668W        W18802  16.911  10.306  15.031  0.1258  0.0301 -0.1499
 2669W        W18803   9.604  10.225  11.635  0.0231 -0.0806 -0.0982
 2670W        W18804  12.393  10.395  15.300  0.2443  0.1349  0.1565
 2671W        W18805  10.175   6.750  13.189  0.4276  0.2737 -0.2175
 2672W        W18806   4.757   7.165   2.676  0.1700  0.1879 -0.1704
 2673W        W18807  13.326   4.369  11.679 -0.1083  0.1828  0.2344
 2674W        W18808  16.497   7.282   5.155  0.2252  0.2512 -0.1815
 2675W        W18809   6.758  15.036  12.933  0.4109  0.1711 -0.1233
 2676W        W18810  13.064   9.497   0.500  0.1941  0.2971  0.1993
 2677W        W18811   3.725  13.749  14.972  0.0861  0.2560  0.0864
 2678W        W18812   1.326  11.985  10.880  0.3577 -0.2893  0.1401
 2679W        W18813   8.831   7.719  15.579  0.2192  0.0926  0.0625
 2680W        W18814   1.750   5.122  15.132  0.1405 -0.0810 -0.0899
 2681W        W18815  14.245  16.590   1.245 -0.1425  0.2693 -0.3896
 2682W        W18816   5.059   1.490   3.537  0.1361  0.0826  0.1263
 2683W        W18817  16.466  10.609  16.030  0.1373 -0.1066  0.2500
 2684W        W18818   3.019   6.272  12.529  0.0659 -0.0905  0.0516
 2685W        W18819   0.039   6.944  11.980 -0.0783  0.1215 -0.3085
 2686W        W18820   0.744  12.364  16.055  0.3307 -0.0418 -0.1656
 2687W        W18821   1.744  16.992  16.041  0.3425  0.0049 -0.2166
 2688W        W18822   8.171   9.030  15.961  0.0544 -0.1078  0.0405
 2689W        W18823  11.817   0.452   0.204 -0.2215  0.1806 -0.0913
 2690W        W18824  15.195  13.402  14.543  0.0296 -0.4640  0.1948
 2691W        W18825  14.646   1.469  12.530 -0.4335  0.0570  0.1889
 2692W        W18826  10.341  13.362  15.065  0.0941  0.0943  0.1006
 2693W        W18827  15.136   7.623   3.861 -0.2391  0.0344  0.2580
 2694W        W18828  13.705   7.727  12.084 -0.1028 -0.2045  0.0112
 2695W        W18829  13.747   9.326  14.752  0.1396  0.1336 -0.2184
 2696W        W18830   0.426   3.645   2.782 -0.1510 -0.0586  0.0962
 2697W        W18831   1.816  14.657   1.890  0.1284 -0.0642 -0.0696
 2698W        W18832   0.285  16.653   4.979  0.0012  0.1915  0.1582
 2699W        W18833  10.607   3.824  15.733 -0.0462 -0.1015 -0.2744
 2700W        W18834   5.199   8.370  13.977  0.0028 -0.1343 -0.0261
 2701W        W18835   9.375  12.740  15.964 -0.0686 -0.0488  0.0028
 2702W        W18836  15.567   0.146  11.995  0.2266  0.0998  0.1332
 2703W        W18837   2.046   3.469   4.245 -0.0200 -0.3189  0.0541
 2704W        W18838   4.282  15.102  12.687  0.0285 -0.2473  0.0770
 2705W        W18839  12.968   9.159  15.824  0.2316 -0.0698  0.0592
 2706W        W18840  10.915  18.040   5.035  0.1861  0.3793 -0.0997
 2707W        W18841  16.478   9.493  13.510 -0.0353  0.4198  0.1495
 2708W        W18842   0.204   3.610  14.697 -0.0935 -0.1883  0.0428
 2709W        W18843   3.268   0.485  13.331  0.1637  0.1487 -0.1528
 2710W        W18844   9.786  18.222  16.022 -0.2093  0.3135 -0.0594
 2711W        W18845   0.632  11.008  15.844 -0.1790 -0.1287  0.0349
 2712W        W18846  15.130  18.240  12.519  0.3211  0.3553 -0.0601
 2713W        W18847  12.678   0.498   2.564 -0.3671 -0.2863  0.1568
 2714W        W18848   8.902  13.161   2.441  0.0161  0.0357  0.0073
 2715W        W18849   1.154   3.888  11.958  0.2000 -0.0667  0.1038
 2716W        W18850   1.295  16.295  12.455  0.1649  0.2365 -0.0241
 2717W        W18851  18.246  13.475  11.106  0.2533 -0.0934  0.0555
 2718W        W18852   9.222   7.692   1.385 -0.1706  0.1018  0.0354
 2719W        W18853  13.818   3.007  12.958  0.0446  0.1159  0.2170
 2720W        W18854  15.688   6.560   3.307  0.1388  0.0230  0.0886
 2721W        W18855  10.834  15.705   3.997  0.2242 -0.1001 -0.4059
 2722W        W18856   2.122   1.352  11.988  0.0476 -0.2966 -0.2937
 2723W        W18857   4.033  13.076   0.952  0.0828  0.1456  0.1447
 2724W        W18858  13.087  18.320  11.348  0.0349  0.1006  0.6420
 2725W        W18859  16.997  14.524   1.140  0.2262  0.0721 -0.1622
 2726W        W18860   6.155   1.702  11.709  0.2073 -0.0909 -0.0923
 2727W        W18861  12.796   7.994  13.563  0.2354  0.2712  0.0919
 2728W        W18862  17.650   2.341  11.475 -0.0078  0.2769 -0.1798
 2729W        W18863   3.487   0.621  15.403 -0.2758 -0.2423  0.1926
 2730W        W18864   7.758   7.087  15.026  0.1426  0.2218  0.0849
 2731W        W18865   7.606   3.089   3.563  0.0388  0.0850 -0.1265
 2732W        W18866  10.661  15.884   6.257  0.1269 -0.1304  0.0824
 2733W        W18867   1.815   7.241   1.162 -0.1070  0.0122 -0.0718
 2734W        W18868   4.219   9.856  13.948  0.3174 -0.3340 -0.1011
 2735W        W18869   8.862  13.440  13.889 -0.0903  0.0256 -0.2185
 2736W        W18870   3.798   8.613  10.654  0.1967 -0.3074  0.1146
 2737W        W18871  17.677   5.265  14.775  0.0553 -0.1134 -0.0533
 2738W        W18872   7.404   7.664   1.792  0.1405 -0.0244 -0.2686
 2739W        W18873   2.330   0.980  13.882  0.2466 -0.2751  0.0101
 2740W        W18874   3.718   6.718   3.337  0.0176 -0.0934  0.2686
 2741W        W18875   8.136   6.144  16.010 -0.0028  0.2250 -0.0621
 2742W        W18876   9.059   0.640  15.939  0.1221  0.0316  0.2890
 2743W        W18877  10.588  16.317   2.420 -0.1828  0.1433 -0.0129
 2744W        W18878   0.852   3.360  11.218  0.2461  0.0274 -0.1219
 2745W        W18879  15.210   7.082   4.096 -0.0186  0.0208  0.0205
 2746W        W18880  14.236   1.952   2.360  0.4889 -0.2098  0.1144
 2747W        W18881   7.337  14.566   4.704  0.2780  0.2606  0.2985
 2748W        W18882   5.317   5.281  13.557 -0.1372 -0.1587  0.0444
 2749W        W18883   2.650   8.868  11.571 -0.2247  0.0016 -0.1930
 2750W        W18884   4.724  10.382   1.338 -0.1638  0.0988  0.0977
 2751W        W18885   2.172  11.789   0.959  0.1572  0.4115  0.1566
 2752W        W18886  15.673  10.828  11.062 -0.1737 -0.2876  0.0127
 2753W        W18887  12.158   7.984   1.387 -0.1139  0.0377  0.0532
 2754W        W18888   5.051   0.739   2.583  0.0966 -0.0759  0.1737
 2755W        W18889   9.799   5.960   0.816 -0.1224  0.2390 -0.0609
 2756W        W18890   9.261   0.038   2.281  0.0084 -0.1079  0.1520
 2757W        W18891  11.885  18.248  12.301  0.0228  0.1250 -0.0399
 2758W        W18892  14.738   2.879   3.215 -0.0412 -0.1663  0.3806
 2759W        W18893   0.470  17.314  13.773  0.3360 -0.0673  0.1419
 2760W        W18894  13.561  17.044  12.759 -0.3204  0.0482  0.1809
 2761W        W18895  10.517  12.225  13.131 -0.1862 -0.1965  0.2148
 2762W        W18896   7.727   4.271   2.339  0.1044  0.0084 -0.0495
 2763W        W18897   2.231  10.737  14.102 -0.1970  0.3302  0.1986
 2764W        W18898   4.338   6.457  15.581 -0.0669 -0.0878 -0.0813
 2765W        W18899  14.214   4.780  11.021 -0.0743  0.1213  0.2195
 2766W        W18900  15.951  12.025   1.739 -0.1214 -0.0948  0.3262
 2767W        W18901   6.409  14.788   4.793  0.1723 -0.0951  0.1383
 2768W        W18902   9.230  10.873  14.571  0.0683  0.2921  0.0792
 2769W        W18903  13.037  15.071   5.434  0.0699  0.2506  0.2339
 2770W        W18904   3.272  17.058   3.358  0.1836 -0.0552 -0.0316
 2771W        W18905  13.307  10.109  15.148  0.0738 -0.1097 -0.0405
 2772W        W18906   3.447   3.188   2.338 -0.1037  0.0970  0.0818
 2773W        W18907   2.320  17.614  13.977 -0.0559  0.1764  0.2974
 2774W        W18908   8.795  12.129  13.419 -0.0430 -0.2681 -0.0799
 2775W        W18909   4.376   3.249  10.994 -0.3274  0.0542 -0.1466
 2776W        W18910  10.467  10.169  15.907  0.3003  0.0663 -0.2161
 2777W        W18911  17.671   7.640   1.108 -0.1860  0.0787  0.1943
 2778W        W18912  10.051   4.493   0.009 -0.4637  0.1112  0.0280
 2779W        W18913   6.578  18.036  14.705 -0.0361 -0.3560  0.0105
 2780W        W18914  10.759  11.421   0.619 -0.1328  0.0488  0.0337
 2781W        W18915  14.202  13.277   2.942 -0.2347  0.2300  0.1257
 2782W        W18916   7.275   0.039   5.596  0.0680  0.0302  0.0813
 2783W        W18917   3.387  10.248  15.725  0.2804 -0.1084 -0.1136
 2784W        W18918  13.790   1.337   1.869 -0.1393 -0.1360  0.0385
 2785W        W18919  10.861  16.163  13.850  0.0747 -0.0499  0.0138
 2786W        W18920   2.917   7.905   2.701  0.2127 -0.0995  0.1121
 2787W        W18921   1.890  12.762  14.018 -0.5913 -0.0290  0.0010
 2788W        W18922  10.812   5.495  12.945 -0.2686 -0.3809 -0.2804
 2789W        W18923   5.334   6.921  14.809  0.0936  0.0532  0.0147
 2790W        W18924   3.336   3.318  14.464 -0.0515 -0.2387  0.0930
 2791W        W18925   4.314  14.611  13.578 -0.0975 -0.1479  0.0447
 2792W        W18926   8.101  14.988  15.283 -0.2106 -0.1082  0.0604
 2793W        W18927   4.414  13.735  10.770  0.0435  0.2284  0.0437
 2794W        W18928   7.602  14.721   0.514 -0.3246 -0.1394  0.0587
 2795W        W18929   3.808  11.185   4.193 -0.2013 -0.2863 -0.0625
 2796W        W18930  12.415   2.540  12.138 -0.0847  0.1743  0.0518
 2797W        W18931   6.234  14.140  14.536 -0.1649  0.2526 -0.1997
 2798W        W18932   2.585   0.754   5.278 -0.2872 -0.0081  0.0290
 2799W        W18933   5.045   0.872   4.598  0.0429  0.0192 -0.1780
 2800W        W18934  13.451   3.975   2.119  0.1721  0.0282 -0.1017
 2801W        W18935  15.707   9.053   3.214 -0.1252 -0.0078 -0.0132
 2802W        W18936  17.676   4.943  14.416  0.1822 -0.3595  0.2589
 2803W        W18937  17.754  16.998  10.833  0.4013 -0.1660 -0.0264
 2804W        W18938  18.171  15.452   2.410  0.0054 -0.0271  0.0806
 2805W        W18939   5.456   7.867   4.621  0.3304  0.0074 -0.1260
 2806W        W18940   4.335   0.839   5.415  0.1187 -0.5019  0.2617
 2807W        W18941  13.433   7.526   5.068 -0.0221 -0.2946  0.1729
 2808W        W18942   1.380   1.181   5.314 -0.1375  0.1405  0.1986
 2809W        W18943  10.439  12.242   1.707  0.0136 -0.1526  0.2592
 2810W        W18944  14.171   7.373  10.953  0.3208  0.1614 -0.2523
 2811W        W18945  11.410  15.147   2.508  0.0339  0.1953 -0.0049
 2812W        W18946   6.508  15.431  13.093  0.2463  0.0884  0.0911
 2813W        W18947   8.410  11.524   0.651  0.2654 -0.1506 -0.0921
 2814W        W18948  13.562   2.060  15.106 -0.0742 -0.0087  0.1134
 2815W        W18949   5.915  14.056  13.541  0.0472 -0.0764  0.0153
 2816W        W18950   5.831   2.933   2.564  0.0298 -0.2914 -0.1015
 2817W        W18951   9.910   1.203  12.199 -0.6251 -0.1196 -0.2452
 2818W        W18952   6.868  16.082   2.800 -0.1335  0.1929  0.1495
 2819W        W18953  11.476  11.513  13.137 -0.3629  0.1939  0.0155
 2820W        W18954  13.729  12.513   2.652  0.2159 -0.0311 -0.0507
 2821W        W18955   8.651  15.755  15.295  0.0812  0.0156  0.2131
 2822W        W18956  18.070  10.836  12.454  0.3479 -0.3145  0.3891
 2823W        W18957  13.860  16.753   4.463  0.0849 -0.0665  0.2463
 2824W        W18958   7.518  15.014   2.187 -0.1910 -0.0313  0.1213
 2825W        W18959   3.027   6.270   3.859  0.0557  0.1427  0.3134
 2826W        W18960  15.608  10.127   2.840 -0.2921 -0.1340  0.0120
 2827W        W18961   6.485   0.279   3.251  0.3556  0.1238 -0.0739
 2828W        W18962   0.833   8.014   1.902  0.1311  0.1210 -0.3346
 2829W        W18963   7.738  11.892  14.036 -0.0204 -0.1314  0.0597
 2830W        W18964   8.319   3.041   5.459 -0.0616  0.0922  0.1072
 2831W        W18965   2.998   1.183  12.123 -0.1879 -0.0104  0.3104
 2832W        W18966   9.538   8.426  15.894  0.0543 -0.2194  0.1618
 2833W        W18967   7.426  17.704  12.079  0.1508  0.1673  0.3142
 2834W        W18968  13.586  15.134   5.287 -0.1238  0.0115 -0.1657
 2835W        W18969   9.178  12.114   0.801 -0.0907  0.1067  0.0281
 2836W        W18970  18.178  11.533  11.390  0.0691  0.0489 -0.0883
 2837W        W18971   1.462  11.512   4.181 -0.0755 -0.5353  0.3035
 2838W        W18972   8.844  17.523   1.493  0.0550  0.0178  0.3596
 2839W        W18973  18.261  11.862  15.660  0.1908 -0.2824  0.3336
 2840W        W18974  10.359   7.427   0.776  0.2865  0.0979 -0.0136
 2841W        W18975   6.343   3.829   4.190  0.0495  0.1694  0.2166
 2842W        W18976  17.331   6.801   1.621  0.1271 -0.3390  0.0399
 2843W        W18977   5.833   5.892   2.491  0.4889  0.1450 -0.3323
 2844W        W18978   2.637   8.169  11.051  0.0133 -0.1855 -0.0211
 2845W        W18979   8.387   9.654  15.349 -0.0250  0.2403 -0.2856
 2846W        W18980  12.689  11.324   2.984  0.0640 -0.3103  0.1073
 2847W        W18981   1.242  12.916  14.758  0.1046 -0.0226 -0.1852
 2848W        W18982  12.901   6.921   2.709 -0.2036  0.0124 -0.1966
 2849W        W18983  16.353  11.085   1.661  0.0320  0.2114  0.1236
 2850W        W18984  15.290   3.682   6.085  0.1572 -0.1391 -0.1058
 2851W        W18985  12.022   7.987   2.594  0.0752  0.1730 -0.0671
 2852W        W18986   7.931  11.797  11.092  0.1831 -0.1200  0.0162
 2853W        W18987   8.617   6.314  11.733 -0.1914  0.0686 -0.0367
 2854W        W18988   9.375   8.513   1.319  0.3111 -0.1955  0.0043
 2855W        W18989   3.885   2.016   2.910  0.1475 -0.1963 -0.0683
 2856W        W18990   9.695   3.043  14.761 -0.4916  0.1112 -0.3290
 2857W        W18991  14.805   3.764   0.022 -0.0808  0.1196 -0.0360
 2858W        W18992  13.022   8.894   2.475  0.0930 -0.1589  0.1137
 2859W        W18993   7.934  17.018  13.989 -0.0823  0.0025 -0.2850
 2860W        W18994  16.024  16.854  13.760 -0.0282  0.1576 -0.1980
 2861W        W18995   8.783   9.869   4.328 -0.0808  0.1424 -0.0407
 2862W        W18996  14.466  15.216   0.620 -0.4529  0.2014 -0.0766
 2863W        W18997  11.164   9.668  15.115  0.1430  0.1010 -0.0148
 2864W        W18998  16.705  17.683  15.947 -0.0220  0.0486 -0.0966
 2865W        W18999   9.608  12.929   1.866 -0.0548  0.0515 -0.3097
 2866W        W19000   2.730  13.915  12.692  0.1732  0.0603  0.0229
 2867W        W19001   0.559   8.583  10.920  0.3708 -0.0297  0.0816
 2868W        W19002  15.708   1.830   2.379 -0.2809 -0.0740  0.0682
 2869W        W19003  11.502  12.118   4.394 -0.1242  0.0062  0.1922
 2870W        W19004  17.778   1.428  14.345 -0.1592  0.0746  0.0637
 2871W        W19005  14.479   7.290   1.494  0.3965  0.0619 -0.1814
 2872W        W19006  15.167   2.733  13.511 -0.0295  0.2749  0.0154
 2873W        W19007   8.270  15.277   0.524 -0.0461 -0.0484 -0.4466
 2874W        W19008   0.910  17.572  13.091 -0.0883  0.4288  0.1583
 2875W        W19009   5.173   0.046  14.488 -0.4274  0.0972  0.1679
 2876W        W19010   8.748  10.514   3.133  0.2061  0.2098 -0.1472
 2877W        W19011   9.177  13.432  14.712  0.0670  0.0468 -0.2999
 2878W        W19012   2.311   7.805  11.434  0.0150 -0.1114  0.3635
 2879W        W19013  11.740   9.587  13.717 -0.1793 -0.2672 -0.0879
 2880W        W19014  12.634   3.541  15.262 -0.0974 -0.0371 -0.2883
 2881W        W19015  17.349  16.237   0.788 -0.0890  0.0521  0.2623
 2882W        W19016  16.343   0.945   0.420  0.0108  0.0728 -0.3426
 2883W        W19017   4.853  14.437  13.244 -0.0322 -0.0380 -0.2839
 2884W        W19018   3.302   1.756  13.364  0.6173 -0.0855  0.0132
 2885W        W19019   9.767  12.926   4.955 -0.1466  0.0537 -0.0365
 2886W        W19020   5.844  13.965   2.311  0.1730 -0.1253 -0.3431
 2887W        W19021   4.863   5.643  12.562 -0.1109 -0.1348 -0.3011
 2888W        W19022  13.015   0.800  12.287  0.1159  0.0201  0.3581
 2889W        W19023  10.234   1.965  15.508  0.1680 -0.0669  0.1285
 2890W        W19024  12.606  18.101  15.485  0.2393  0.4251  0.2490
 2891W        W19025  12.672   0.999   3.262 -0.0998  0.1513  0.4897
 2892W        W19026   4.331   7.940  14.626 -0.2408 -0.0327 -0.1375
 2893W        W19027  17.292   4.026   0.769 -0.0598 -0.0704  0.0453
 2894W        W19028   2.628   6.331  14.468  0.0092  0.1788  0.3383
 2895W        W19029   0.352  16.975   0.015 -0.2240 -0.4373  0.1040
 2896W        W19030   5.599  13.282   2.431  0.3584  0.1019  0.1369
 2897W        W19031   1.766   5.474   1.002  0.1280 -0.2749  0.2472
 2898W        W19032  18.375   0.017   1.147 -0.1475 -0.1939  0.0883
 2899W        W19033   8.195   2.473  11.505  0.0692 -0.1717  0.0112
 2900W        W19034  17.343  18.139  14.402  0.1061  0.0814  0.0067
 2901W        W19035   6.500   6.969   2.471  0.1125 -0.1629  0.3580
 2902W        W19036   1.533   1.059  15.615  0.0708  0.2278 -0.0516
 2903W        W19037  11.640  16.322  11.898  0.2563 -0.1223  0.2362
 2904W        W19038   9.637  11.121  14.436  0.4204 -0.1480 -0.0093
 2905W        W19039   7.262   0.703  11.973 -0.0186  0.3531  0.0957
 2906W        W19040   0.069   3.416  12.361 -0.0353  0.3989  0.0636
 2907W        W19041   6.072  15.702   2.180 -0.0802  0.2180  0.2871
 2908W        W19042  18.224   8.934  13.282  0.1714 -0.0514  0.2521
 2909W        W19043  15.013   5.943  15.790 -0.0697 -0.0163  0.2686
 2910W        W19044  18.345   9.618  10.516  0.3495  0.1037  0.1530
 2911W        W19045   8.930  14.505   3.032 -0.1447 -0.0444 -0.0755
 2912W        W19046   0.602   4.342  13.093  0.0506 -0.1297 -0.3249
 2913W        W19047  11.699  10.820   2.185  0.1429  0.1097 -0.1793
 2914W        W19048   6.372   3.929  15.151 -0.1723 -0.0048 -0.0919
 2915W        W19049  12.645  12.166   6.663  0.0430 -0.3585  0.0892
 2916W        W19050  15.108  18.240   1.928  0.0057  0.0535 -0.3192
 2917W        W19051  11.206   5.429   5.896  0.3967 -0.0251  0.0973
 2918W        W19052   8.594   5.750   4.142 -0.2088  0.5153  0.2140
 2919W        W19053  17.919   5.498   5.281  0.1239 -0.1230 -0.3192
 2920W        W19054   2.951  15.323  11.765 -0.0085 -0.0908 -0.1256
 2921W        W19055   2.232   6.260   2.267 -0.2212  0.1758  0.1738
 2922W        W19056  14.987  13.676   2.644  0.0239 -0.1562  0.1642
 2923W        W19057  18.170   2.926   3.827  0.0018 -0.0433 -0.1066
 2924W        W19058   9.198   7.221   0.204  0.1092  0.0885  0.0955
 2925W        W19059  17.155  13.293   0.157  0.1835  0.0190  0.1730
 2926W        W19060  17.480  10.935  12.607 -0.2174  0.2309  0.2690
 2927W        W19061   9.011   6.639   1.768  0.2423  0.1481 -0.1793
 2928W        W19062  17.819  16.442   4.013 -0.0518 -0.2815 -0.1625
 2929W        W19063   2.073  10.220   4.324 -0.1111  0.3910  0.1643
 2930W        W19064  17.192  15.563  15.060  0.0400  0.1060 -0.0727
 2931W        W19065  13.597  17.910   4.615  0.2232  0.1169 -0.1725
 2932W        W19066  12.361  17.792   2.841  0.0968 -0.2757 -0.1955
 2933W        W19067  14.705  17.933   5.723  0.0091  0.0577 -0.1374
 2934W        W19068   4.144   7.773  10.050  0.3653  0.0045 -0.2591
 2935W        W19069   0.820   0.337   0.503  0.0964  0.1781  0.2387
 2936W        W19070   5.678  11.394  13.491  0.1840  0.2155 -0.1748
 2937W        W19071   1.402   1.120  13.362  0.0866  0.0100 -0.2298
 2938W        W19072   5.280  17.958   4.451  0.1850 -0.0030 -0.2799
 2939W        W19073  13.248   5.193  14.133 -0.1587  0.1813 -0.1264
 2940W        W19074   2.005   4.153   2.844  0.0014  0.1102 -0.2617
 2941W        W19075   8.491   2.319   2.624 -0.1201 -0.3140 -0.0882
 2942W        W19076  14.302  11.202   4.873 -0.0906  0.0627 -0.4221
 2943W        W19077  13.248  12.639   5.585 -0.3086  0.1818  0.1082
 2944W        W19078  13.371  14.082  14.713  0.0656  0.5993  0.1812
 2945W        W19079   4.331  13.385   1.739  0.0852 -0.4308 -0.0251
 2946W        W19080  13.828   0.113  13.972 -0.2580  0.0983  0.1564
 2947W        W19081   7.259  11.151   5.616  0.2932  0.0899  0.0999
 2948W        W19082   5.538  13.966  12.199  0.0286  0.0474  0.3058
 2949W        W19083   5.132  17.219   2.891 -0.2294  0.1154 -0.3063
 2950W        W19084   9.714  14.261  13.109 -0.1245  0.2408  0.1115
 2951W        W19085   2.031   9.945  10.920 -0.1819 -0.2453 -0.0758
 2952W        W19086   2.555  16.237   3.529  0.1165  0.1652 -0.2069
 2953W        W19087  11.965  11.565  13.456  0.0492  0.0691  0.0734
 2954W        W19088   6.890  16.002   5.347 -0.2135  0.5788 -0.1977
 2955W        W19089   7.208   4.713  13.536 -0.0282 -0.0297  0.0348
 2956W        W19090  13.483   5.336  11.143 -0.0171 -0.1039  0.1275
 2957W        W19091   3.371  11.393   3.250 -0.3074  0.3568  0.0199
 2958W        W19092  16.172   8.134  11.989 -0.0812  0.1322  0.1727
 2959W        W19093   7.165   6.211  14.463 -0.1783  0.0343 -0.0598
 2960W        W19094   9.076  16.099   1.743 -0.1048  0.0122  0.1923
 2961W        W19095  14.754  13.348   3.299 -0.0165 -0.3447  0.0237
 2962W        W19096  17.475   1.484   0.032  0.1396  0.1620 -0.1412
 2963W        W19097  18.441  11.849   3.216 -0.0806 -0.0740  0.2695
 2964W        W19098   6.238   2.754  14.502  0.0598  0.0061  0.0014
 2965W        W19099  12.007   3.101   5.176 -0.0599 -0.0413 -0.0573
 2966W        W19100   3.954  15.971   3.938  0.0544  0.0467 -0.1023
 2967W        W19101   2.965  14.143  11.184  0.0798  0.2966 -0.0059
 2968W        W19102   0.408   6.732  12.299  0.1732 -0.0095  0.1352
 2969W        W19103   0.125  12.297  13.558 -0.0380  0.1087 -0.2860
 2970W        W19104   0.201  14.425  14.989 -0.1962 -0.0989  0.1178
 2971W        W19105  11.003  12.929  14.009 -0.3403 -0.0416  0.0804
 2972W        W19106  11.126  12.314   5.067 -0.0537  0.1780  0.0921
 2973W        W19107   6.526  16.110  14.941 -0.0244  0.1835 -0.0853
 2974W        W19108  10.655   7.514   1.486  0.0142 -0.0680  0.1889
 2975W        W19109   8.691   6.405  14.168  0.1746 -0.4076 -0.2132
 2976W        W19110  15.520  14.336   5.262 -0.1040  0.0961  0.4273
 2977W        W19111  17.333  12.163  14.778 -0.2108  0.1578  0.3973
 2978W        W19112   6.886  14.462   0.912  0.1532  0.1797 -0.0375
 2979W        W19113   6.605   7.102   1.988  0.1030 -0.0710  0.0166
 2980W        W19114  13.589   7.042   5.064  0.2478 -0.4864  0.4410
 2981W        W19115  16.008  11.325   5.621 -0.1139  0.0029 -0.0640
 2982W        W19116  17.279  10.348   4.579  0.0752 -0.0767  0.1903
 2983W        W19117  15.892  15.926  10.283  0.1889  0.0831 -0.0809
 2984W        W19118  12.226  14.852  13.917  0.2064 -0.3571  0.2587
 2985W        W19119  15.745  13.900  13.533  0.0646  0.2250  0.0952
 2986W        W19120   4.071   8.718   1.535  0.1679 -0.0619  0.2016
 2987W        W19121   5.922   0.383  13.452  0.0224 -0.1242  0.2739
 2988W        W19122   2.969  11.265   1.281  0.2811 -0.0010  0.2760
 2989W        W19123  14.309  15.732   1.750 -0.2147 -0.0826  0.1410
 2990W        W19124   7.178  17.557   3.672 -0.0637  0.0477  0.0930
 2991W        W19125  11.548   7.844   1.194 -0.2447 -0.0569 -0.0768
 2992W        W19126   0.492  11.175   5.490 -0.4176 -0.3180 -0.1185
 2993W        W19127   2.048  16.392  14.742 -0.1017 -0.2453 -0.0604
 2994W        W19128   3.790   1.833  11.475 -0.0250  0.3904 -0.0208
 2995W        W19129  11.518   1.113   3.012 -0.0307  0.0330  0.1085
 2996W        W19130   7.768   8.947   4.954  0.0944  0.2179  0.2752
 2997W        W19131  13.985   1.639  13.104  0.0738  0.0060  0.0355
 2998W        W19132  11.483   0.864  13.834 -0.0552  0.1177  0.1979
 2999W        W19133   0.340   0.006  11.145  0.0154  0.0313 -0.1555
 3000W        W19134   9.187   7.567  12.963  0.2984  0.2153 -0.3203
 3001W        W19135   1.733  15.964   5.240  0.1444  0.2426 -0.1633
 3002W        W19136  14.272  16.320   1.672 -0.1420  0.1122  0.0144
 3003W        W19137   9.273   1.286   5.779 -0.2774 -0.0096  0.1573
 3004W        W19138  14.408  16.483   5.562  0.2331 -0.3697  0.4306
 3005W        W19139  17.503   3.005  11.349  0.1477  0.2741 -0.0912
 3006W        W19140   6.669   6.750   0.522  0.1656  0.0796  0.0128
 3007W        W19141  11.980  11.769  14.140  0.0390 -0.0804  0.0108
 3008W        W19142  12.061   5.969  13.065 -0.0777 -0.2826 -0.1471
 3009W        W19143   0.388  16.566   2.334 -0.1158  0.0695 -0.1680
 3010W        W19144  14.745   6.838  12.601 -0.3146  0.0488 -0.0695
 3011W        W19145  10.887   0.235   3.843 -0.0877  0.2543  0.0472
 3012W        W19146   3.795   4.590  12.259 -0.2805  0.2143 -0.0318
 3013W        W19147   1.932  13.709   2.667  0.0543  0.1234 -0.2711
 3014W        W19148   6.194   6.081   5.529 -0.0908  0.1477 -0.2472
 3015W        W19149  15.312   9.912  11.220 -0.0020 -0.0357  0.0677
 3016W        W19150  14.570  10.407   1.698 -0.4465  0.1655  0.2044
 3017W        W19151   1.753   5.875  12.765 -0.0224  0.1499 -0.2631
 3018W        W19152   9.196   3.273   4.324  0.1143 -0.0793 -0.1010
 3019W        W19153  10.995   2.810   1.789  0.1882 -0.0837 -0.0811
 3020W        W19154  13.003  11.166   4.721  0.1991  0.2663 -0.2654
 3021W        W19155   7.536  12.184   2.832  0.0265 -0.3865 -0.0346
 3022W        W19156   3.829   7.850   2.789 -0.0837  0.1979  0.1509
 3023W        W19157   8.288  15.311   4.908 -0.0132 -0.1470  0.2554
 3024W        W19158   3.989   8.475  14.738 -0.2489  0.0147 -0.3069
 3025W        W19159  12.710   1.375   4.715 -0.2309  0.1339 -0.0017
 3026W        W19160   9.121   9.796  16.015 -0.1426  0.1428  0.0403
 3027W        W19161  15.211   4.663  13.706 -0.0789  0.0295  0.0768
 3028W        W19162   4.923  12.608  15.102 -0.6233 -0.1657  0.0250
 3029W        W19163   6.888  18.296  14.370  0.1265  0.0950  0.3812
 3030W        W19164  17.845  10.720  10.404  0.0465 -0.2386  0.0810
 3031W        W19165  10.967   3.154   1.426  0.3158 -0.1693 -0.1606
 3032W        W19166   2.894  17.164  12.047 -0.3642 -0.0623 -0.0045
 3033W        W19167  14.665  10.992  15.799  0.1074 -0.0621  0.1094
 3034W        W19168  10.776   1.702   4.369 -0.2108 -0.4868  0.0093
 3035W        W19169  15.050   7.942  14.320 -0.0016 -0.0726  0.2436
 3036W        W19170   0.100   3.091   4.472  0.2190  0.0664  0.1504
 3037W        W19171  14.092  13.080  12.180 -0.1889  0.0413  0.0472
 3038W        W19172  16.629   7.199   2.778  0.1114  0.0389 -0.2962
 3039W        W19173  11.915  18.462   2.296  0.0724  0.1655  0.2671
 3040W        W19174   1.364   8.251   2.358 -0.0062  0.2313 -0.2559
 3041W        W19175  16.720   6.923   4.384  0.0240 -0.1171  0.1342
 3042W        W19176  15.607   9.360  15.617  0.1262 -0.2058  0.0953
 3043W        W19177   2.166   6.991   4.404 -0.0097 -0.0609 -0.0243
 3044W        W19178  14.363  17.207  15.627 -0.1867  0.0848  0.1240
 3045W        W19179  14.213   1.418   2.794 -0.1826  0.1297  0.1795
 3046W        W19180   8.241   3.486   4.557  0.0409 -0.1713 -0.0313
 3047W        W19181   0.715   6.488  15.880  0.0300  0.1606 -0.0255
 3048W        W19182   7.958   3.813   3.555  0.1608 -0.1626 -0.2261
 3049W        W19183   8.945   8.729   4.129 -0.0623  0.0839 -0.2646
 3050W        W19184  17.593  10.442   2.553 -0.1767 -0.3676  0.1257
 3051W        W19185  17.264  15.487  13.332  0.0904  0.0440 -0.0840
 3052W        W19186   9.278  15.278  14.832  0.1100  0.0115 -0.1782
 3053W        W19187   9.456   5.108  12.622 -0.1358 -0.1887  0.1273
 3054W        W19188  12.130  10.753  13.877  0.1354 -0.2224 -0.0708
 3055W        W19189   4.640   1.006  13.067  0.0075 -0.1473 -0.1400
 3056W        W19190  18.371   5.279  13.584 -0.5134 -0.1713  0.0059
 3057W        W19191  18.416   0.324  10.734  0.0136  0.0047  0.1166
 3058W        W19192   7.466   7.496   3.057 -0.1707  0.0410 -0.1734
 3059W        W19193  15.532   6.829  14.803  0.0737  0.1227  0.2616
 3060W        W19194  18.198  13.382   1.843 -0.0947  0.1286 -0.0596
 3061W        W19195  12.958   6.299  15.668  0.0235  0.2449  0.2279
 3062W        W19196  12.934   1.356   1.167 -0.1407 -0.4399  0.1902
 3063W        W19197  13.878   8.391   1.228  0.3041 -0.2833 -0.2309
 3064W        W19198   9.199  11.236  12.703 -0.3452  0.3081 -0.2442
 3065W        W19199   8.803   5.852   0.373 -0.2978 -0.0213 -0.0049
 3066W        W19200  10.698  14.090  13.600 -0.1501  0.0413 -0.1781
 3067W        W19201   8.944   9.152  14.664  0.0950  0.2645 -0.0177
 3068W        W19202   2.923  12.280  15.911  0.0908  0.3642  0.1481
 3069W        W19203  16.617   3.065   2.532  0.1408 -0.2430  0.0906
 3070W        W19204   8.809   6.006  15.967  0.0586 -0.3096 -0.1041
 3071W        W19205  16.711   1.688   0.546  0.0070  0.2290  0.3533
 3072W        W19206  12.649   3.253   0.837 -0.1267  0.0046  0.1726
 3073W        W19207   8.820  10.662  14.833  0.1704  0.1140  0.2441
 3074W        W19208  18.129   1.856   5.367 -0.0758 -0.2002 -0.0173
 3075W        W19209  15.476  10.053  13.337 -0.3121  0.0952  0.0515
 3076W        W19210  15.885  12.040  15.014  0.0300 -0.1668 -0.0224
 3077W        W19211   9.838   6.612  11.703  0.1684  0.0677  0.0747
 3078W        W19212   9.309   9.093  11.312 -0.3304 -0.1115 -0.3131
 3079W        W19213   2.427  16.733   4.331 -0.3111  0.0705  0.2605
 3080W        W19214   9.604  16.907   1.407  0.1761 -0.1634  0.1616
 3081W        W19215   8.327   0.561   2.706 -0.0694  0.0947 -0.1690
 3082W        W19216   2.313  11.015   0.144  0.1817 -0.1577  0.0483
 3083W        W19217  11.965  11.886  16.025 -0.0340  0.1319  0.2022
 3084W        W19218  12.890   7.513  12.847 -0.2146  0.2559  0.0502
 3085W        W19219  15.548  10.300  13.807 -0.0648  0.0761  0.0862
 3086W        W19220   8.300   7.989  13.206 -0.0949  0.1439  0.1673
 3087W        W19221  17.781   1.450   0.432  0.0539  0.4457  0.0892
 3088W        W19222  10.013  10.661  11.882  0.5084 -0.0156 -0.2136
 3089W        W19223   6.129   3.305   0.795 -0.2229 -0.0131  0.2122
 3090W        W19224  14.624  10.488   3.648  0.0270 -0.1032  0.0483
 3091W        W19225  15.843  14.784   3.267  0.1176  0.4557  0.1650
 3092W        W19226  15.094  13.578   2.151  0.1186 -0.0719  0.0372
 3093W        W19227   9.690   8.850  13.628  0.2525  0.1298 -0.0396
 3094W        W19228   1.440   1.340  11.539  0.0773 -0.0074 -0.1951
 3095W        W19229   0.614   1.534   4.752 -0.0376  0.0345  0.0200
 3096W        W19230  16.907   3.057   4.617  0.2435 -0.0790  0.0118
 3097W        W19231   2.185   8.394   4.735 -0.2229 -0.0587  0.0705
 3098W        W19232  12.931   2.021   3.219 -0.2055  0.1564  0.1146
 3099W        W19233   0.733  16.165  12.705  0.0646 -0.0050 -0.0366
 3100W        W19234  14.801   3.717  12.859  0.2537  0.0446  0.0847
 3101W        W19235  16.904  16.309   3.529  0.1462 -0.0634  0.2489
 3102W        W19236   0.101  18.281  13.073  0.0286  0.3837  0.0445
 3103W        W19237  12.841  15.561   0.752  0.0063  0.0250 -0.1007
 3104W        W19238   1.912   6.967   3.387  0.0350 -0.0619 -0.2709
 3105W        W19239   6.316  10.314   2.156 -0.2001 -0.3908  0.3471
 3106W        W19240   9.838   5.855  12.971 -0.1461  0.1301  0.0659
 3107W        W19241   3.599   9.257   0.264  0.0885 -0.2278  0.2434
 3108W        W19242   4.261  12.249   2.544 -0.0168  0.0959 -0.2459
 3109W        W19243  15.802   8.941  16.030 -0.1181 -0.2296  0.0306
 3110W        W19244  14.837   7.781  11.634  0.1497 -0.4046 -0.4121
 3111W        W19245   3.571   8.105  12.872  0.1563 -0.0488 -0.0790
 3112W        W19246  14.523  14.269  12.139 -0.2488  0.2366 -0.0291
 3113W        W19247   0.532   1.429   1.376 -0.3212  0.0341  0.1296
 3114W        W19248  16.847   0.112  11.371 -0.2084 -0.4175 -0.0126
 3115W        W19249   0.491   6.623   3.760 -0.2620  0.1461  0.0617
 3116W        W19250   2.502   0.151   1.234  0.0065 -0.0131  0.1032
 3117W        W19251   2.038  16.663  13.269 -0.3661 -0.1076  0.2040
 3118W        W19252   6.337   8.046  12.575 -0.0372  0.1240 -0.2803
 3119W        W19253   0.278  15.420   4.287 -0.0588 -0.1469  0.3483
 3120W        W19254   2.965  17.884   2.270 -0.1722 -0.0878 -0.0876
 3121W        W19255  12.208   5.131   5.869  0.1381 -0.2177 -0.0784
 3122W        W19256  11.091   7.356   6.242 -0.1256  0.1572  0.0439
 3123W        W19257  13.925   8.115  14.475 -0.3163  0.0171 -0.1527
 3124W        W19258   6.900   3.555  11.690  0.0545  0.0705 -0.2166
 3125W        W19259   7.234  15.883   4.322 -0.1885  0.1938  0.0579
 3126W        W19260   5.361  15.017   4.975 -0.1212  0.1064 -0.0170
 3127W        W19261   6.155   1.397   4.047 -0.2076 -0.0243 -0.0117
 3128W        W19262   3.678  14.744   4.227  0.0678  0.2649  0.2368
 3129W        W19263   0.961   4.602  14.398 -0.0761  0.1181  0.0237
 3130W        W19264   9.884  16.871   2.863 -0.3642 -0.0994  0.4383
 3131W        W19265   7.669   6.239  14.495 -0.4347 -0.2397 -0.0424
 3132W        W19266  13.431   6.227   0.687  0.1819 -0.0790  0.3590
 3133W        W19267   8.147  16.996  13.570 -0.2146 -0.1142  0.2270
 3134W        W19268   7.672  14.376   4.322  0.1031 -0.0367 -0.2319
 3135W        W19269   7.297   8.522  11.568 -0.0844 -0.2013 -0.0542
 3136W        W19270   7.029  17.644  14.016  0.2395  0.0794 -0.2503
 3137W        W19271   7.843  16.671   5.382  0.2178  0.0049 -0.1880
 3138W        W19272  15.584  14.345   1.928 -0.0022 -0.0962 -0.3764
 3139W        W19273   3.997  17.374   0.890 -0.0945  0.2443 -0.0869
 3140W        W19274   7.855   5.984   4.265 -0.2847 -0.2511 -0.1508
 3141W        W19275  16.405   1.164   2.400  0.2760  0.0328 -0.0531
 3142W        W19276  14.935   1.948   4.054  0.2371  0.2861 -0.0549
 3143W        W19277  14.914   1.107   1.951 -0.4279  0.2212  0.1007
 3144W        W19278   3.017   4.226   3.343 -0.2896 -0.2058  0.0765
 3145W        W19279  12.618  13.289   2.553  0.0720 -0.1981 -0.0561
 3146W        W19280   1.301  18.107   0.012  0.1177 -0.1457  0.1218
 3147W        W19281   9.213  11.287   4.495 -0.3747  0.1325  0.1588
 3148W        W19282  16.805   9.606  11.626 -0.3133 -0.2894 -0.0828
 3149W        W19283   3.821  10.668   1.798 -0.2183 -0.0025  0.0916
 3150W        W19284  16.066   8.962   2.423  0.1747 -0.1630 -0.0705
 3151W        W19285   0.847   3.411  15.749  0.2046 -0.0284 -0.0860
 3152W        W19286   7.266  18.189   0.393  0.0170  0.1004  0.3213
 3153W        W19287  10.270  11.520   3.922 -0.0058  0.1267  0.2331
 3154W        W19288   4.707   8.116   1.837  0.0702  0.1711  0.1530
 3155W        W19289   5.579   1.160  13.827  0.1852  0.2304 -0.2508
 3156W        W19290   5.342  16.623   2.654  0.0855 -0.0831 -0.1918
 3157W        W19291  16.031  13.663   3.449  0.1598 -0.1090  0.0430
 3158W        W19292   5.285   0.093  13.578 -0.0100  0.2020  0.0723
 3159W        W19293   3.383  14.774  13.619  0.3500  0.2004  0.1477
 3160W        W19294  14.995  10.729   2.719  0.1104 -0.0769  0.0511
 3161W        W19295  15.404  17.312   0.295  0.1594 -0.0909 -0.3057
 3162W        W19296  18.268   1.380   4.483  0.1985 -0.0486  0.2494
 3163W        W19297  15.699   1.004   4.896  0.1036 -0.1390  0.0796
 3164W        W19298   0.175  17.192  10.979  0.0495  0.1450 -0.0193
 3165W        W19299  11.209  17.840   2.997 -0.0950  0.2133  0.0161
 3166W        W19300  13.704  11.976   4.436  0.1782  0.2012  0.2092
 3167W        W19301  11.528   6.318   3.759 -0.0138  0.2892 -0.0587
 3168W        W19302   7.409  12.973   3.919  0.1187  0.0264  0.2129
 3169W        W19303   4.580   6.606   2.953  0.0001  0.0064 -0.0470
 3170W        W19304   6.496   0.063   1.659  0.0270 -0.2394  0.0151
 3171W        W19305   2.083   5.714   9.262 -0.0466 -0.1361  0.2265
 3172W        W19306  13.872   1.014   1.012  0.3789 -0.1509  0.2254
 3173W        W19307  14.330   9.233   4.007  0.1732  0.0437  0.2221
 3174W        W19308   1.478  16.586   0.298  0.0487 -0.0675  0.0224
 3175W        W19309  15.633   2.241  11.815  0.0509  0.2066  0.1729
 3176W        W19310  13.658  13.105  13.382 -0.0808  0.1104  0.3063
 3177W        W19311  11.197  11.037  12.478  0.1194 -0.3787 -0.3514
 3178W        W19312  12.792   1.888   3.676  0.1124 -0.2491  0.1875
 3179W        W19313  18.502  10.472   3.660 -0.0336 -0.1652  0.0947
 3180W        W19314  14.837   1.933  12.787  0.0808  0.3235 -0.0734
 3181W        W19315  16.345  16.012  15.174 -0.1124  0.0603  0.1475
 3182W        W19316   9.476  11.197   0.954  0.0575  0.0760 -0.2958
 3183W        W19317  17.437  14.184   4.751 -0.1744  0.0683 -0.1444
 3184W        W19318   5.589  14.163   9.820 -0.0143  0.2591  0.0231
 3185W        W19319   1.473   3.034   4.885  0.2436  0.2567  0.1077
 3186W        W19320   5.800   0.802  15.843  0.0969 -0.0454  0.0091
 3187W        W19321   9.239   6.383   2.154 -0.0530 -0.3677 -0.1074
 3188W        W19322  15.600  15.124   4.212 -0.0346 -0.3755  0.1514
 3189W        W19323   7.076  17.695  12.515  0.0734  0.1824 -0.0638
 3190W        W19324  10.734  17.526  13.699 -0.1008 -0.0088  0.1954
 3191W        W19325   8.370   2.469   3.502 -0.3151  0.1293 -0.1349
 3192W        W19326  12.257   4.667  14.425 -0.2261 -0.0740 -0.0080
 3193W        W19327  18.337   4.623   1.466  0.1861  0.3166  0.0349
 3194W        W19328   1.358  11.928   4.972  0.1628 -0.1000  0.1147
 3195W        W19329   9.659  15.893  14.705  0.0837  0.1362  0.0275
 3196W        W19330  11.127  11.069  12.994 -0.0901 -0.0369 -0.2138
 3197W        W19331   9.841  17.224   3.559  0.1662 -0.1642 -0.0700
 3198W        W19332  12.924  12.167   5.772  0.1091 -0.2031  0.1912
 3199W        W19333  18.050   8.781   1.537 -0.0205 -0.0880  0.2465
 3200W        W19334  16.683  12.723   0.326 -0.1228  0.1203 -0.2550
 3201W        W19335  17.779  12.085   2.765 -0.2411 -0.1957 -0.0699
 3202W        W19336   1.018   8.235  15.741 -0.0792  0.3361 -0.0269
 3203W        W19337  17.323  17.298  14.683 -0.4441 -0.1193  0.0880
 3204W        W19338   6.717  11.761   2.412 -0.2419 -0.1546  0.0774
 3205W        W19339   9.862  17.900   3.862  0.1421 -0.0302 -0.1473
 3206W        W19340   9.985   8.612   4.195 -0.2523 -0.1037  0.2341
 3207W        W19341   7.664  18.503  14.188  0.1773  0.3743  0.3298
 3208W        W19342   3.685  15.068   5.606  0.0372  0.1146 -0.1201
 3209W        W19343   1.596   9.574  12.979  0.0933  0.0880  0.1359
 3210W        W19344  11.625  13.491  13.909  0.0017 -0.0694 -0.0636
 3211W        W19345   5.013  13.316   0.367  0.2339  0.0084  0.3103
 3212W        W19346  10.662   9.014  15.335  0.1473 -0.0086 -0.1744
 3213W        W19347   5.549   6.927  12.984  0.2140  0.2861 -0.3596
 3214W        W19348  18.244   7.218   4.440 -0.0899 -0.4102 -0.0070
 3215W        W19349  11.267  12.490   4.596 -0.2180  0.1416  0.0773
 3216W        W19350   5.729  18.391  11.786 -0.3604  0.0137  0.2942
 3217W        W19351  16.710   7.592  12.417 -0.2671 -0.1987  0.0583
 3218W        W19352   6.734   5.366   4.880  0.2563 -0.0975 -0.0353
 3219W        W19353  11.499   5.431  12.354 -0.2092  0.1872  0.0709
 3220W        W19354  17.182   5.371  12.550  0.0195  0.2786  0.1010
 3221W        W19355  10.781   6.199   1.958 -0.2467  0.3401 -0.0966
 3222W        W19356   8.713  16.513  12.170 -0.2383 -0.0168 -0.2226
 3223W        W19357   4.862   6.435  10.021 -0.0467 -0.0190  0.0617
 3224W        W19358  16.138   9.198   2.861 -0.0515  0.0572  0.1886
 3225W        W19359   4.918   1.070   4.075  0.2646 -0.0557 -0.1344
 3226W        W19360   5.609   5.704  14.109  0.2105 -0.2402 -0.0797
 3227W        W19361   6.920   5.003   1.400 -0.2389  0.0525 -0.0797
 3228W        W19362   5.481   0.755   0.914 -0.1406 -0.1011  0.0248
 3229W        W19363   3.057   5.823  13.117  0.1032 -0.1048 -0.0837
 3230W        W19364  11.178   8.941   1.818 -0.0835  0.0077  0.1615
 3231W        W19365  16.920  17.155  15.780 -0.0473 -0.0699  0.2101
 3232W        W19366   9.190  10.183  11.324 -0.1346  0.0129  0.0399
 3233W        W19367   1.412   9.704   2.689  0.0878 -0.0449  0.5419
 3234W        W19368   7.770  16.191   3.298 -0.2245 -0.0109 -0.2847
 3235W        W19369  15.399  10.416  11.144 -0.3289  0.0097 -0.1106
 3236W        W19370   7.100   1.455  15.411  0.0027 -0.1049  0.0457
 3237W        W19371  11.237  10.995   4.580 -0.0226  0.1411  0.0599
 3238W        W19372  15.271   7.226   5.917 -0.0263  0.0921  0.2297
 3239W        W19373  10.081   6.339   0.722 -0.0755  0.2808 -0.0621
 3240W        W19374  15.168  18.372   2.934  0.0254  0.1740  0.1805
 3241W        W19375  11.141   3.440   4.710  0.1075 -0.0382  0.0893
 3242W        W19376   0.068   5.913  14.979 -0.0257  0.3357 -0.0701
 3243W        W19377  18.217   0.060   3.580  0.2200  0.1506 -0.1438
 3244W        W19378   9.256  12.367   2.686  0.0701  0.3757  0.3541
 3245W        W19379   8.540   0.540   6.195 -0.0872  0.0597 -0.0301
 3246W        W19380  17.637   7.130   5.455  0.4050  0.0746 -0.1591
 3247W        W19381  16.651   2.929  14.906  0.3111 -0.0316  0.3483
 3248W        W19382  15.047  10.406   1.444  0.2691 -0.2363 -0.0468
 3249W        W19383  15.083  16.071  14.402  0.2291 -0.0813 -0.0971
 3250W        W19384   1.535  12.536  11.106 -0.0037 -0.1657  0.1634
 3251W        W19385   8.845   5.725  12.971  0.1359 -0.1437  0.0103
 3252W        W19386   8.241   4.121   0.763  0.3078 -0.0364  0.4431
 3253W        W19387  18.325   0.367   1.517 -0.4437  0.1466  0.0704
 3254W        W19388  14.028  11.288  15.202  0.0432 -0.2741  0.0526
 3255W        W19389   5.701  13.335  14.652 -0.0667 -0.2099  0.0077
 3256W        W19390   0.364  17.597  11.232 -0.3424  0.3859  0.2222
 3257W        W19391  13.298  16.685   1.967 -0.0686 -0.1759 -0.2355
 3258W        W19392   5.788   7.434  12.133 -0.0233 -0.0324  0.3663
 3259W        W19393   9.943   8.764  11.941  0.5307  0.0465  0.2748
 3260W        W19394   5.363   7.354  13.329 -0.0875 -0.1906  0.3321
 3261W        W19395   8.351   3.291   5.045  0.0541  0.1600 -0.0258
 3262W        W19396  10.359  12.094  15.539 -0.1246 -0.0877  0.1514
 3263W        W19397   4.246   6.018  11.342  0.2497  0.1192 -0.0021
 3264W        W19398   4.284   6.782  10.653  0.0019 -0.1258  0.0743
 3265W        W19399  15.511  11.470   2.810 -0.0952 -0.1602 -0.1681
 3266W        W19400   6.034   5.725  13.799 -0.0373  0.3176  0.0954
 3267W        W19401  14.269  13.442   4.708  0.0622  0.1724 -0.1043
 3268W        W19402   2.986  11.696   3.189  0.2818 -0.4005  0.2530
 3269W        W19403   5.719   0.781   2.001 -0.1560  0.0254  0.0524
 3270W        W19404  11.900  11.750  13.009  0.0922 -0.0781  0.0279
 3271W        W19405  18.489   6.240   4.721 -0.1751  0.2764  0.0227
 3272W        W19406   0.670  17.669   2.241 -0.1073  0.0185 -0.0163
 3273W        W19407  15.977  10.785  15.638 -0.4715  0.5505 -0.2901
 3274W        W19408   0.922   4.919   1.015 -0.0228  0.1262 -0.3434
 3275W        W19409  15.214  16.169  15.580  0.0356  0.0444 -0.0341
 3276W        W19410   7.468   8.907   1.077 -0.0535  0.2720 -0.2035
 3277W        W19411  15.423  10.809   3.512  0.1419 -0.0677  0.1388
 3278W        W19412  10.897   5.406   3.327 -0.6237  0.1228  0.1544
 3279W        W19413  14.154  16.463  14.291 -0.1044 -0.1305 -0.1511
 3280W        W19414   0.867   3.109  12.415  0.2335  0.1460 -0.1979
 3281W        W19415   1.371   0.603   1.526 -0.0780 -0.2010 -0.2082
 3282W        W19416  18.141  15.650   0.290  0.0523 -0.1271 -0.0125
 3283W        W19417   1.750  13.417  13.359 -0.3810 -0.0318  0.1467
 3284W        W19418   1.077   3.669   5.746  0.0972  0.0969  0.2184
 3285W        W19419   8.600  13.630  14.828  0.2331  0.1039 -0.0920
 3286W        W19420   9.599   3.277   5.376  0.2043 -0.1009 -0.0189
 3287W        W19421   3.146   4.075   5.152  0.2696  0.1704  0.0441
 3288W        W19422   8.295   0.208  15.899 -0.2265  0.4042 -0.0419
 3289W        W19423  13.790  18.381  12.985 -0.1497 -0.0998 -0.2114
 3290W        W19424  15.672   0.423  14.175 -0.2754 -0.1104 -0.0610
 3291W        W19425  15.827  11.477  10.361 -0.0866  0.4288 -0.2064
 3292W        W19426  17.809   5.451  12.908 -0.1180  0.0576 -0.0553
 3293W        W19427   6.795  17.950   2.926 -0.3608 -0.1431  0.0011
 3294W        W19428  16.397  18.137  15.875  0.0412  0.1236  0.0547
 3295W        W19429   5.572   0.708   0.296  0.1367 -0.1368  0.0988
 3296W        W19430   2.116   6.508   1.882  0.4044  0.1392 -0.0596
 3297W        W19431   2.600   0.813  11.275 -0.1731 -0.3217  0.1101
 3298W        W19432  12.446   6.031  13.466  0.0266 -0.0962 -0.0794
 3299W        W19433   9.822   9.397  14.270 -0.0296  0.1388  0.2257
 3300W        W19434  11.053   5.397   1.219 -0.2483  0.0834 -0.3713
 3301W        W19435   8.048   9.275   4.722 -0.1311  0.1311  0.2100
 3302W        W19436  18.410   3.194   3.504  0.1799  0.1252  0.0029
 3303W        W19437  10.982  14.026   2.307 -0.0045  0.1012  0.1451
 3304W        W19438  13.467  17.185   2.288 -0.0371 -0.1167 -0.0408
 3305W        W19439  14.725  14.279   1.416 -0.1673  0.3018 -0.5099
 3306W        W19440  15.071  16.155  13.209 -0.1260 -0.3248  0.6124
 3307W        W19441   1.110   2.385  16.072 -0.1536  0.2272 -0.0867
 3308W        W19442  17.021  14.136  13.148  0.0963 -0.2332 -0.0902
 3309W        W19443   6.740  14.062  14.387 -0.3013  0.0139 -0.0794
 3310W        W19444  13.484   2.609   0.448  0.0651  0.0210  0.2811
 3311W        W19445  13.465   2.859  15.505  0.1781 -0.0449 -0.3219
 3312W        W19446   8.893  12.265  12.893 -0.0859  0.3249 -0.1577
 3313W        W19447   6.489   1.014   0.372  0.0833  0.1099 -0.1535
 3314W        W19448   4.485   7.306  13.245 -0.1549  0.0553 -0.3435
 3315W        W19449   3.523  12.707  12.886  0.0997  0.1015 -0.1819
 3316W        W19450  18.144   9.950   1.885 -0.0854  0.1042 -0.1016
 3317W        W19451   3.725   9.633  11.104  0.0788 -0.2755  0.4798
 3318W        W19452   8.995  17.934  12.404  0.2530 -0.4384 -0.0796
 3319W        W19453  12.533   9.321  13.008  0.0338  0.1425 -0.1005
 3320W        W19454   1.585   1.522  15.445  0.3728  0.0536  0.2558
 3321W        W19455  14.956  16.650  13.109 -0.1294 -0.1710 -0.2672
 3322W        W19456   5.368  10.415   3.195 -0.2064 -0.1672 -0.1855
 3323W        W19457   4.795  13.840   0.411 -0.1887  0.2613  0.1657
 3324W        W19458   6.432  14.838  13.989  0.0385 -0.0446 -0.0898
 3325W        W19459  16.194  12.969   1.011  0.4172 -0.0718  0.1294
 3326W        W19460   1.763   0.174  15.563  0.2023  0.3259  0.2676
 3327W        W19461  18.379   5.579  14.093  0.2844  0.1478  0.0440
 3328W        W19462   2.812   5.399  15.936  0.1578  0.0600  0.6255
 3329W        W19463  17.266  10.715  12.119 -0.0165  0.2005 -0.1449
 3330W        W19464   0.850   7.768  12.061  0.0575 -0.2646 -0.0679
 3331W        W19465   7.948  18.399   1.024 -0.1498 -0.2124 -0.0291
 3332W        W19466   5.214  15.962   3.827  0.2905 -0.0069 -0.3675
 3333W        W19467   9.479   5.093   5.505  0.0525 -0.0625 -0.0944
 3334W        W19468  10.533   1.481   1.500 -0.0138 -0.0343  0.1666
 3335W        W19469  17.617   4.617  14.058  0.3813 -0.0398  0.0487
 3336W        W19470   3.604  12.387  13.365 -0.0311  0.1723 -0.1781
 3337W        W19471  11.066  17.449   3.416 -0.4467  0.0716  0.1105
 3338W        W19472  12.642  11.730  15.554 -0.2794  0.1214  0.0695
 3339W        W19473  15.810   0.871  15.364 -0.0622  0.2955  0.0522
 3340W        W19474   5.776  11.898  11.182  0.0451 -0.0606 -0.0840
 3341W        W19475   3.048   9.672  11.745 -0.0063  0.2175  0.0135
 3342W        W19476   0.925  11.100   2.560  0.0190 -0.2477  0.3378
 3343W        W19477   7.212   8.973   3.284  0.1439 -0.1606  0.1020
 3344W        W19478   8.632   1.181  14.151  0.4543  0.0946 -0.2371
 3345W        W19479   9.223  12.935  12.345  0.0462  0.2140 -0.0201
 3346W        W19480  11.781   6.752  15.057  0.1521 -0.2401  0.0942
 3347W        W19481   4.844   8.270   4.939 -0.0697 -0.0102  0.1021
 3348W        W19482  17.186   6.025  15.597 -0.2152 -0.0058 -0.2235
 3349W        W19483  13.147   5.651  11.924  0.0276 -0.1911  0.1802
 3350W        W19484   9.064  15.445   5.933  0.1131 -0.0350  0.2417
 3351W        W19485  12.377   0.913   4.682 -0.1388  0.1815 -0.1578
 3352W        W19486   5.690   0.428   2.527 -0.0569 -0.1002  0.0094
 3353W        W19487   1.006   5.425   2.364 -0.1468 -0.1510 -0.1218
 3354W        W19488  16.849  17.191   1.922 -0.1145  0.1102  0.1810
 3355W        W19489   8.055  16.523  13.886 -0.1713  0.2054 -0.2596
 3356W        W19490   2.328   5.712   3.806 -0.0557  0.3431 -0.1409
 3357W        W19491   4.106   4.866  13.942 -0.1741  0.0593  0.2731
 3358W        W19492   3.772  12.436  14.522  0.1980 -0.2090 -0.0012
 3359W        W19493   2.446   1.287  16.063  0.1936 -0.1047 -0.1084
 3360W        W19494  10.946   9.964   5.566  0.2732 -0.0509  0.0374
 3361W        W19495   5.215   2.325   6.194 -0.2749 -0.2960 -0.1699
 3362W        W19496   2.280   5.398  12.864 -0.0807  0.0670 -0.0116
 3363W        W19497   2.822  13.665   1.076 -0.4559 -0.2226  0.0265
 3364W        W19498   5.686   5.308  12.397  0.2135 -0.0204  0.0544
 3365W        W19499   1.274  12.007   3.267  0.1082 -0.2672 -0.1938
 3366W        W19500   4.419  11.539   1.627  0.0865  0.2136  0.0661
 3367W        W19501   3.399   6.809   0.773  0.1444  0.0057  0.0849
 3368W        W19502   6.458   2.013  10.726 -0.0188  0.0050 -0.0886
 3369W        W19503  14.710  15.862  11.870  0.2645  0.0273 -0.1454
 3370W        W19504   0.519   4.259  11.338 -0.0537 -0.3101 -0.2543
 3371W        W19505   7.689  10.009  15.873 -0.0799 -0.1029  0.0441
 3372W        W19506  15.333   8.939  15.397 -0.0810  0.2475  0.1700
 3373W        W19507  10.571   2.922   1.183 -0.1464 -0.0738  0.0543
 3374W        W19508  12.172   8.696  11.760 -0.0017  0.1311 -0.0947
 3375W        W19509   1.745   0.346   1.799 -0.0190  0.2172  0.1541
 3376W        W19510  14.260   7.270  14.522  0.1504  0.0042  0.1534
 3377W        W19511  15.545  18.187  12.215 -0.0356 -0.0749  0.1350
 3378W        W19512   9.321  16.153   2.306 -0.2389 -0.1415  0.1460
 3379W        W19513   9.664   6.587  13.313  0.1934 -0.1751 -0.1150
 3380W        W19514  11.969   8.443   6.264  0.0258  0.5659  0.3054
 3381W        W19515  14.892   4.710  13.320  0.0835  0.0925  0.1572
 3382W        W19516  13.893  17.203  11.937  0.0060  0.0296  0.0704
 3383W        W19517  12.131   1.294  11.939 -0.0117 -0.2407 -0.0978
 3384W        W19518   9.914   7.823   1.858 -0.1207  0.0283 -0.2174
 3385W        W19519  15.365  10.698  12.889  0.1255  0.0159  0.2431
 3386W        W19520   6.314   4.013   3.307  0.0962  0.0804  0.1513
 3387W        W19521  15.911   1.831   4.307  0.0639 -0.1283 -0.2696
 3388W        W19522   7.922   5.344  15.126  0.1642 -0.1382  0.1480
 3389W        W19523  15.334   4.435   1.941 -0.0195  0.2821  0.1229
 3390W        W19524   3.232  12.378   4.683 -0.2441 -0.1285 -0.1135
 3391W        W19525   4.953   5.855  12.107  0.3098 -0.2513 -0.3597
 3392W        W19526   7.271   5.091   4.495  0.3960  0.1685 -0.1716
 3393W        W19527   9.829   8.521  14.462  0.2582  0.0255  0.2465
 3394W        W19528  15.811   2.829  12.399 -0.0628  0.0858 -0.3260
 3395W        W19529   7.195  16.080   1.172  0.0277  0.0191  0.2672
 3396W        W19530  18.426   9.379   2.390 -0.1279 -0.0829  0.0213
 3397W        W19531  12.612  13.766   4.189  0.1727 -0.1055  0.0363
 3398W        W19532   2.829  18.413   0.320 -0.0684 -0.2114  0.4360
 3399W        W19533  15.376   3.627   0.821  0.2590  0.2851  0.1928
 3400W        W19534  18.471  15.655  15.521 -0.0135 -0.1739 -0.0013
 3401W        W19535  12.698   7.529   3.432 -0.1406 -0.1423  0.0467
 3402W        W19536   5.687   9.555   4.298  0.1299  0.0006  0.1237
 3403W        W19537   6.584  11.357  14.867 -0.0433  0.0326 -0.0167
 3404W        W19538   2.381   9.175   1.885  0.1432  0.3248  0.0383
 3405W        W19539  14.305  17.448  14.235 -0.0894  0.0567  0.1029
 3406W        W19540  17.916   9.023   1.004 -0.1706 -0.2261  0.3399
 3407W        W19541   5.639   9.604   1.922  0.2921  0.2131 -0.1388
 3408W        W19542   2.281  17.208  13.346  0.0698  0.1853  0.1496
 3409W        W19543  11.511  18.449  14.266 -0.1970  0.0764 -0.2200
 3410W        W19544  11.658   3.753   1.977  0.4029  0.6088 -0.0049
 3411W        W19545  11.863  11.599   5.662  0.1147  0.0411  0.0315
 3412W        W19546  11.666  13.233   0.131  0.1855 -0.0961 -0.1039
 3413W        W19547  14.057  13.816  13.310  0.1226 -0.1902  0.1354
 3414W        W19548  11.738   3.981   1.542  0.1216  0.1213  0.1833
 3415W        W19549  13.868  13.059   0.132  0.1939 -0.1044 -0.0984
 3416W        W19550   5.213  12.792  12.483  0.2323  0.2882 -0.1134
 3417W        W19551   3.334  15.617  10.676 -0.2164  0.0161  0.2162
 3418W        W19552   3.556   9.316   3.126 -0.0114  0.1841  0.0522
 3419W        W19553  16.939   7.655   1.793  0.0764 -0.1431 -0.2499
 3420W        W19554   4.724   8.829   3.837 -0.0353  0.3753 -0.1105
 3421W        W19555   6.556   8.673  11.268  0.1042  0.0114 -0.3854
 3422W        W19556  15.731  15.734  11.816  0.2608  0.1149  0.3789
 3423W        W19557   0.572   2.733  12.087  0.1601  0.0536  0.2882
 3424W        W19558  10.681  15.241   4.262 -0.0195  0.0756 -0.0531
 3425W        W19559   0.742  16.917   0.647  0.0374 -0.4099  0.0136
 3426W        W19560  10.885  10.207   3.595 -0.3132 -0.0045  0.0432
 3427W        W19561   2.678  15.263   1.584  0.1231 -0.0930  0.0944
 3428W        W19562  17.003   3.820   3.829 -0.1422 -0.1283  0.1816
 3429W        W19563  17.764   7.783  15.050 -0.0166  0.0550  0.1326
 3430W        W19564  10.663   9.679  15.975 -0.4992 -0.0914  0.1989
 3431W        W19565  16.663   2.787   2.096  0.1787  0.2348  0.0935
 3432W        W19566  12.614   8.094   4.240 -0.1163  0.2885  0.0362
 3433W        W19567  11.832   9.955   5.078  0.5341  0.2870 -0.1157
 3434W        W19568  15.969   4.185   3.691  0.1429  0.0391  0.0968
 3435W        W19569  17.930   2.986   3.375  0.0579  0.0115 -0.2319
 3436W        W19570   0.766   2.186   2.874 -0.0263  0.0373  0.3508
 3437W        W19571  13.201   7.722  11.778  0.1539 -0.0625  0.0955
 3438W        W19572   5.933   8.709   4.986  0.0828  0.1452  0.0417
 3439W        W19573   0.290   9.057   0.903  0.0369  0.2387 -0.1618
 3440W        W19574   3.503   8.414   0.900 -0.0653  0.0430  0.0552
 3441W        W19575  13.397  11.652  11.815  0.1066  0.2753 -0.1006
 3442W        W19576   5.926  12.617  13.559  0.3177 -0.3033 -0.0136
 3443W        W19577   7.546   6.939   2.384 -0.2460 -0.0445 -0.2581
 3444W        W19578   5.398   4.523   5.572 -0.2844  0.1269  0.1439
 3445W        W19579  16.023  17.444  15.307 -0.1189  0.1841 -0.1883
 3446W        W19580  15.127  14.402  11.519  0.0303 -0.2229  0.0760
 3447W        W19581   9.730   7.151   2.686  0.2694 -0.0602  0.3348
 3448W        W19582  11.463  18.082  11.513  0.0898  0.1108  0.1298
 3449W        W19583  12.630  15.675  15.924  0.0185  0.0884 -0.3014
 3450W        W19584  13.532   0.845  15.891  0.1531 -0.1022 -0.0139
 3451W        W19585   1.380  12.512   2.682  0.1190 -0.1790 -0.1015
 3452W        W19586  11.257   0.465  13.518 -0.0520 -0.0153 -0.2101
 3453W        W19587   9.947   4.951  13.700  0.0822  0.1570 -0.2759
 3454W        W19588   8.619  11.850  12.997 -0.1275 -0.0253  0.2843
 3455W        W19589  13.014  12.068   5.021  0.1372 -0.0725 -0.2894
 3456W        W19590  13.920  18.340   2.430 -0.1155  0.0735  0.2201
 3457W        W19591   7.444  16.288  14.895  0.0187  0.2814  0.1833
 3458W        W19592   8.494  15.367   3.649 -0.1169  0.2295 -0.0827
 3459W        W19593   8.486  11.904   3.127 -0.0917  0.2388  0.2634
 3460W        W19594  13.858   1.045   3.401 -0.1476 -0.4168  0.1330
 3461W        W19595   5.432  11.759  15.458 -0.3073  0.1917  0.0755
 3462W        W19596  15.116   7.294   4.554 -0.2457  0.0021 -0.1866
 3463W        W19597   1.847  17.258  13.097  0.4146 -0.0772 -0.1397
 3464W        W19598  17.410   6.374  10.612  0.0513 -0.5539 -0.1883
 3465W        W19599  17.211  15.402  14.407 -0.2022 -0.1011  0.2845
 3466W        W19600   2.561  14.478   0.637  0.0270  0.1376  0.0817
 3467W        W19601   3.147  16.881  12.329 -0.0010  0.1183  0.0169
 3468W        W19602   9.621  13.773  13.515 -0.4082 -0.2298  0.0141
 3469W        W19603   3.499   9.239  15.316 -0.1897  0.0355  0.0815
 3470W        W19604   0.838  11.477   1.599  0.0167 -0.0456 -0.1414
 3471W        W19605   6.218  10.218  13.024  0.1389  0.1649 -0.0915
 3472W        W19606   4.924   8.027  11.095  0.2475 -0.3370 -0.3233
 3473W        W19607   5.488  17.153  11.750  0.0802  0.1660 -0.2674
 3474W        W19608   0.543   2.229  12.045 -0.1818 -0.2949 -0.0288
 3475W        W19609   9.995   4.099  15.781 -0.3394  0.0196  0.0836
 3476W        W19610   2.076   7.566  15.298  0.4153 -0.1173 -0.1504
 3477W        W19611   2.434  15.788   1.653  0.0644  0.1763 -0.0455
 3478W        W19612  13.656   7.191   6.412  0.0418 -0.1540  0.1659
 3479W        W19613  16.925   4.430  12.798  0.1097 -0.1612  0.2044
 3480W        W19614  15.739  13.661  13.070  0.1025 -0.1133 -0.0423
 3481W        W19615   8.216  16.799  14.396 -0.1761 -0.3318 -0.0129
 3482W        W19616   6.172  16.303  13.955  0.0379 -0.1803  0.0587
 3483W        W19617  15.447  13.013  12.397  0.1178  0.1553  0.1246
 3484W        W19618   3.112  13.350   3.018  0.0242 -0.0755 -0.0676
 3485W        W19619   9.762   6.721  13.800 -0.0752 -0.1771 -0.0657
 3486W        W19620  13.845   4.215  11.855  0.1553 -0.2616 -0.0528
 3487W        W19621   2.157   0.361  14.167  0.0251  0.0046  0.0338
 3488W        W19622   2.841  18.117  12.239  0.0568 -0.1043  0.0514
 3489W        W19623   4.541   3.222  15.659  0.1299 -0.1390  0.0069
 3490W        W19624   1.135   9.474  13.303 -0.4744 -0.0847  0.1409
 3491W        W19625   9.255   3.921   4.433  0.1460  0.1276 -0.0784
 3492W        W19626   8.783   7.016  13.454  0.0875  0.0555 -0.2959
 3493W        W19627   7.684   5.113  11.734 -0.1502  0.1961 -0.1531
 3494W        W19628  16.289   0.141  13.759 -0.0678 -0.1669  0.1757
 3495W        W19629  12.513   0.967   2.775 -0.0951  0.0995  0.0752
 3496W        W19630  14.654   8.805   0.826 -0.1378  0.1807 -0.0830
 3497W        W19631   4.837  16.458   1.197  0.1364 -0.0056 -0.0441
 3498W        W19632   6.660   9.689   0.002 -0.3568  0.3173 -0.0139
 3499W        W19633   4.584   1.500   4.101  0.0036  0.3238 -0.0210
 3500W        W19634   2.982   1.848  14.950 -0.3263  0.0703 -0.0769
 3501W        W19635   2.979  11.616  12.562  0.0604 -0.1266 -0.0940
 3502W        W19636   6.417   4.460   2.329 -0.1553 -0.0696 -0.0325
 3503W        W19637   4.058  11.666   0.079  0.3171  0.2492  0.3605
 3504W        W19638  17.332   3.369   3.142 -0.0435  0.5245  0.4332
 3505W        W19639   1.236   7.140  13.370 -0.1463 -0.0495 -0.2288
 3506W        W19640  15.575   6.735  15.308 -0.0721 -0.5256 -0.3088
 3507W        W19641   1.352   6.356   2.446  0.2429 -0.1733  0.1209
 3508W        W19642  13.303  11.647   4.179 -0.1813  0.0298 -0.0556
 3509W        W19643  15.864   8.775   2.808  0.2077  0.2200  0.1261
 3510W        W19644  16.354   3.208  13.204  0.3422  0.2036 -0.2921
 3511W        W19645   3.543   5.197   1.780  0.0254 -0.1735  0.1019
 3512W        W19646   2.598   2.811  11.119 -0.0617 -0.0358 -0.1440
 3513W        W19647  13.145  15.106  13.065  0.1378 -0.0677 -0.1025
 3514W        W19648  12.707  18.289  12.204  0.0146  0.1133  0.0528
 3515W        W19649  11.478  12.484  15.064  0.1423 -0.2196  0.1092
 3516W        W19650  10.231   3.261   0.977 -0.2002  0.0888  0.2456
 3517W        W19651   3.415  17.058   4.328  0.0167  0.0608 -0.0014
 3518W        W19652   7.062  13.519   0.194  0.1590 -0.1118  0.2225
 3519W        W19653  14.858  17.599  15.607 -0.1100 -0.2977 -0.3152
 3520W        W19654  16.070   1.970  16.071  0.1150  0.0428  0.1492
 3521W        W19655   8.027  11.266   0.482  0.0451 -0.0469  0.1435
 3522W        W19656   7.794  11.157   3.852  0.0549 -0.0837 -0.0236
 3523W        W19657   4.944   7.958   4.351 -0.2161  0.2069 -0.1745
 3524W        W19658  10.251   5.128   6.110 -0.0665 -0.1107 -0.0410
 3525W        W19659   5.655   7.504   2.405  0.0315 -0.0533  0.0806
 3526W        W19660   4.372   6.893  12.810  0.3623  0.0790 -0.0973
 3527W        W19661   2.995   5.325  15.430 -0.1076  0.1243  0.1620
 3528W        W19662  12.315   0.814  11.984  0.0013 -0.0463  0.0550
 3529W        W19663   2.734   7.107  12.450 -0.1018  0.1186 -0.2107
 3530W        W19664   1.475   3.349   0.189 -0.2411  0.0782  0.1900
 3531W        W19665   3.541   4.295   2.169  0.2942  0.0559  0.0988
 3532W        W19666  17.399   8.262  10.302  0.1266 -0.0469 -0.1001
 3533W        W19667   5.516  14.399   0.138 -0.1630  0.4008  0.0816
 3534W        W19668   4.300   7.573   1.859  0.0034  0.1992  0.1696
 3535W        W19669  15.117  15.603  15.405 -0.0107 -0.0799  0.0445
 3536W        W19670   1.321   4.494   4.626  0.2233  0.0802  0.1752
 3537W        W19671   3.018   1.270  15.235  0.0654  0.0058 -0.3008
 3538W        W19672  17.875   7.250   3.795  0.1253 -0.1231 -0.0789
 3539W        W19673  16.201  16.304   2.068 -0.0294  0.0581  0.1598
 3540W        W19674  13.492  11.847   3.230 -0.0431  0.1072  0.1653
 3541W        W19675   6.755   9.580   2.080 -0.1397  0.0722  0.2627
 3542W        W19676   0.566   8.680  10.356 -0.2097  0.0581 -0.6339
 3543W        W19677   6.758  16.162  11.710  0.0362 -0.2576  0.0572
 3544W        W19678   6.060  14.387  13.156 -0.2363 -0.0319 -0.0171
 3545W        W19679  10.873   3.430  15.963 -0.2526 -0.0172  0.3271
 3546W        W19680  17.369   6.172   2.392  0.0071 -0.1254 -0.0163
 3547W        W19681  18.200   2.310   1.974 -0.0810 -0.1021 -0.0103
 3548W        W19682   6.535   3.596   2.973  0.3326  0.0803 -0.0290
 3549W        W19683   8.396   4.348  11.553 -0.0907 -0.0387  0.0937
 3550W        W19684   1.509   8.614  12.648  0.2205 -0.1311  0.1319
 3551W        W19685   2.011  17.479  11.977 -0.0909  0.3157  0.1110
 3552W        W19686   3.232  17.821   0.368  0.0317  0.1841  0.0210
 3553W        W19687   9.903  13.724  15.201 -0.2333 -0.0622 -0.4186
 3554W        W19688   6.649  10.858  11.437  0.0230  0.1745  0.0957
 3555W        W19689  15.589   7.508  15.937 -0.2046  0.1019 -0.1251
 3556W        W19690   1.877   1.729  11.554  0.1209  0.0187  0.2550
 3557W        W19691   8.538  11.751  14.470 -0.2175 -0.0058 -0.0990
 3558W        W19692  15.333   7.822   1.561  0.0042  0.2145 -0.0866
 3559W        W19693   5.811  12.359   3.281 -0.2452 -0.1098 -0.2145
 3560W        W19694   7.164  16.867   0.567  0.4791  0.0849 -0.0171
 3561W        W19695   2.448   6.461   0.375 -0.0541 -0.1872 -0.1385
 3562W        W19696  17.777  15.673  10.922  0.3704  0.2881 -0.0161
 3563W        W19697   7.160   5.468   1.335 -0.0414  0.1687  0.0746
 3564W        W19698   6.211  11.992  13.969 -0.0123 -0.1658 -0.1361
 3565W        W19699  14.223   2.848   2.358 -0.0583  0.0536  0.1118
 3566W        W19700   6.021   4.636  12.768 -0.0476  0.0274 -0.2030
 3567W        W19701  17.765  12.002   3.679  0.2147 -0.0773 -0.2413
 3568W        W19702  12.603  10.674  13.890 -0.1707  0.1081  0.2639
 3569W        W19703  10.237   5.332   2.010 -0.0025  0.0265  0.1149
 3570W        W19704  18.005   3.254   1.900  0.2267  0.2606 -0.0004
 3571W        W19705   6.644  14.595  11.466 -0.0333 -0.2671  0.1268
 3572W        W19706  13.736   9.364   5.496 -0.0360  0.0890 -0.0830
 3573W        W19707  10.934   1.429  11.379  0.6882 -0.1094  0.2153
 3574W        W19708  15.643   4.203   2.792  0.2110  0.1883 -0.1283
 3575W        W19709   8.401   2.716   1.153 -0.1953 -0.1211  0.1016
 3576W        W19710  12.344   4.914   0.575  0.0352 -0.1931 -0.3511
 3577W        W19711   3.626   9.675  10.554 -0.0222  0.0029 -0.0765
 3578W        W19712  15.337  13.994  15.809 -0.0182 -0.2256  0.1943
 3579W        W19713   9.983   4.406   3.046 -0.1772  0.1498 -0.0519
 3580W        W19714  17.814  10.803  14.995 -0.1391  0.0255  0.0685
 3581W        W19715  15.450  15.197  13.763  0.0907 -0.0286 -0.2457
 3582W        W19716  11.430  18.268   5.411  0.0930  0.2542 -0.3013
 3583W        W19717   0.413   6.196   0.573  0.3040  0.1582  0.0344
 3584W        W19718  10.938   8.509  12.314 -0.3206  0.3756  0.0353
 3585W        W19719  16.018   6.255   1.717 -0.2156 -0.2251 -0.0987
 3586W        W19720   7.858   9.795   0.623  0.1226  0.4583  0.5150
 3587W        W19721  17.077  10.082   2.825 -0.0722  0.0839  0.0371
 3588W        W19722  14.200  16.164   0.453 -0.4908  0.0681 -0.2695
 3589W        W19723   5.978   9.431   2.763 -0.0152 -0.1062  0.1002
 3590W        W19724  18.351   7.263   2.812 -0.4641  0.3039  0.1602
 3591W        W19725  17.436  17.278   5.162  0.0684  0.1725 -0.1778
 3592W        W19726  12.439   6.826  11.864 -0.1809 -0.1678 -0.2103
 3593W        W19727  16.041  12.952  14.700  0.1209 -0.0699  0.0745
 3594W        W19728   0.199  10.914  13.628  0.0169  0.0955  0.1206
 3595W        W19729   9.909   7.816  14.513 -0.1007  0.2332  0.0940
 3596W        W19730  14.473   4.870   1.177  0.0989  0.0945  0.1229
 3597W        W19731  16.771  15.789   0.387 -0.1246  0.2380 -0.0281
 3598W        W19732  14.065  13.987   0.858  0.2027  0.2560  0.1933
 3599W        W19733   9.841  14.949   2.670  0.1975  0.0186 -0.0955
 3600W        W19734  16.508   5.836   0.021 -0.1489 -0.5061 -0.0526
 3601W        W19735   6.315  14.668   0.027 -0.3610 -0.3901 -0.1974
 3602W        W19736  18.413   6.854  12.457  0.1380  0.2548  0.0951
 3603W        W19737  16.002  12.347  14.263 -0.0814 -0.0709 -0.3893
 3604W        W19738   1.744   6.657  15.857 -0.0664  0.2339 -0.1623
 3605W        W19739   5.659  11.009  13.115  0.0505  0.1926 -0.2950
 3606W        W19740  15.836  11.814  15.797  0.1868  0.1810  0.2352
 3607W        W19741   6.393   9.329   3.068 -0.4382  0.1766 -0.1853
 3608W        W19742  17.719  15.046   5.802 -0.2890  0.1496  0.2138
 3609W        W19743   4.526   9.656   3.195  0.2704  0.3878  0.0195
 3610W        W19744   4.393   8.683   4.674  0.2511 -0.2050 -0.1280
 3611W        W19745  16.348   4.453  12.158  0.1343 -0.2576 -0.0284
 3612W        W19746  15.076  10.597   1.890  0.0174  0.2730  0.1562
 3613W        W19747   8.864   8.528  14.397  0.1437 -0.2991  0.1205
 3614W        W19748   5.415   0.470  11.719  0.0475  0.0010  0.3716
 3615W        W19749   7.833  16.628   4.402 -0.1838  0.0361  0.1172
 3616W        W19750   3.078   2.295  14.707 -0.3593 -0.0188  0.0266
 3617W        W19751  16.208   0.833   3.989  0.3882 -0.0463  0.0600
 3618W        W19752  16.014  16.083   0.464  0.4612  0.0217 -0.0713
 3619W        W19753  14.145  14.847  14.480  0.0969  0.1595 -0.0226
 3620W        W19754  16.937  16.399  13.162  0.0385 -0.2495  0.3274
 3621W        W19755   5.964  15.389  16.073  0.3992  0.0183 -0.1207
 3622W        W19756   4.629   9.916   1.336  0.3452 -0.0264 -0.2126
 3623W        W19757   0.498  14.943   2.876 -0.1251  0.1714  0.0020
 3624W        W19758   1.192  14.699  11.430  0.0730 -0.1751  0.0584
 3625W        W19759   7.985  13.117   2.812  0.0941 -0.0807  0.0874
 3626W        W19760   3.491   1.722   4.866 -0.0223 -0.1977  0.1616
 3627W        W19761   0.490   2.436   3.230 -0.0007 -0.1634 -0.0403
 3628W        W19762   9.838  10.882   1.826  0.0896  0.0696  0.0387
 3629W        W19763   1.621   0.234  15.011 -0.1523 -0.1460  0.1893
 3630W        W19764  12.035   3.267  11.799 -0.0122  0.0025 -0.1419
 3631W        W19765   3.926  17.394   3.376 -0.0556 -0.1179  0.2452
 3632W        W19766   8.137  16.223   0.384  0.0555 -0.1840  0.1541
 3633W        W19767  11.305  16.911   5.239 -0.1592 -0.2243 -0.2462
 3634W        W19768   8.805   3.630   2.555 -0.0521 -0.1073  0.1043
 3635W        W19769   3.487  16.565   2.182  0.3262  0.1735  0.1855
 3636W        W19770  10.844  10.193  12.708  0.0386 -0.3131 -0.2904
 3637W        W19771  16.608   8.047   1.914 -0.1925 -0.0649 -0.2461
 3638W        W19772  12.316   3.309   4.861  0.2552  0.2010 -0.1813
 3639W        W19773  14.152   9.680   0.712  0.0768 -0.2441 -0.0954
 3640W        W19774  18.061  14.403  11.241 -0.4401 -0.3657 -0.0410
 3641W        W19775   5.824  17.909   5.386 -0.1593  0.1287 -0.1154
 3642W        W19776  18.034   0.732  15.848  0.0624  0.0852 -0.0367
 3643W        W19777  11.202  13.238  12.516 -0.0440 -0.0971 -0.0966
 3644W        W19778  13.206  16.145   3.314 -0.0484  0.3780  0.1797
 3645W        W19779   1.544  15.089   5.363  0.0420  0.1881  0.0654
 3646W        W19780  12.531  11.174   1.152 -0.1306 -0.1310 -0.3303
 3647W        W19781  18.226  10.456   4.224 -0.2194  0.0749 -0.2098
 3648W        W19782   7.582  18.228  16.020 -0.4837 -0.2179 -0.1004
 3649W        W19783   0.067   7.576   5.042  0.0463 -0.0864  0.1273
 3650W        W19784   1.473  16.325  15.829  0.1288 -0.0646  0.1727
 3651W        W19785   7.963   8.471  14.794 -0.0715 -0.3320  0.2069
 3652W        W19786  10.150  18.306   6.059  0.3014 -0.1894 -0.1822
 3653W        W19787  11.831  12.292  13.229 -0.0671 -0.1275  0.0729
 3654W        W19788  14.466  17.102   2.394  0.1102 -0.0733 -0.2043
 3655W        W19789   8.692  14.282  14.155  0.0721 -0.1891  0.2108
 3656W        W19790  10.734  16.164   1.514 -0.0765  0.3112  0.0898
 3657W        W19791   3.482   6.974  14.427  0.1756  0.0601  0.1464
 3658W        W19792  14.105   0.004   1.995  0.3046 -0.0569  0.0530
 3659W        W19793   8.551  12.989  12.736  0.1877  0.4616 -0.2224
 3660W        W19794   8.760  10.865   3.826  0.0270  0.2481 -0.1851
 3661W        W19795   5.278   2.510   2.002  0.0929  0.1578 -0.1828
 3662W        W19796  11.524  10.010  15.006  0.0492  0.2380 -0.1332
 3663W        W19797  13.368   5.433  16.069 -0.1350  0.1127  0.3604
 3664W        W19798   1.558   9.822   3.725  0.0908  0.3179  0.2576
 3665W        W19799  17.933   0.930   2.331 -0.0077  0.1357  0.0961
 3666W        W19800  13.949   4.443  14.386  0.0749  0.1977  0.5010
 3667W        W19801   5.792   5.326  13.775  0.1268 -0.1282  0.2332
 3668W        W19802  12.065   9.215   2.382  0.0820  0.3180  0.2620
 3669W        W19803   6.503  13.250   2.583 -0.3535  0.1573  0.1941
 3670W        W19804  10.831   7.052  13.737  0.1515 -0.0649  0.1897
 3671W        W19805  15.642   7.562  15.484 -0.2853 -0.0005 -0.1234
 3672W        W19806   1.879   2.802   2.421  0.1449 -0.2903 -0.2863
 3673W        W19807  15.669   2.210   0.118 -0.0247 -0.0859  0.2663
 3674W        W19808  18.245  12.716   4.335 -0.1712  0.0300  0.2998
 3675W        W19809   1.604   3.864  12.175 -0.1742  0.1527  0.3493
 3676W        W19810  17.230  13.789  14.992 -0.0951  0.2824  0.1832
 3677W        W19811  12.979   4.624   5.510 -0.0859  0.1027  0.0101
 3678W        W19812   4.873   2.008  11.635  0.2464 -0.0808  0.1631
 3679W        W19813   0.798   9.184  13.510 -0.2344  0.0632 -0.1096
 3680W        W19814  13.806  15.890  12.441  0.0683 -0.2693 -0.0986
 3681W        W19815  11.683   0.297  13.318 -0.1988 -0.1380  0.0351
 3682W        W19816   6.442   1.766   1.333  0.0354  0.1742 -0.1098
 3683W        W19817   6.292  13.719   0.596  0.1346 -0.0051 -0.2893
 3684W        W19818   2.994   5.994  15.192  0.1622 -0.2332 -0.7109
 3685W        W19819   9.643  12.319   2.394 -0.2201 -0.0196 -0.2501
 3686W        W19820  15.901  12.618  11.655  0.0477  0.1899  0.1543
 3687W        W19821   4.592  18.246  14.337  0.1183 -0.2668  0.3296
 3688W        W19822   7.517  13.092  11.307  0.1988  0.1584 -0.1948
 3689W        W19823  11.318   1.813   0.916 -0.4832 -0.3650  0.0989
 3690W        W19824  18.074   5.750   3.532  0.0618  0.3205  0.1439
 3691W        W19825   4.440   8.403  14.544  0.0838  0.1337 -0.2380
 3692W        W19826  11.119   6.071  14.562  0.1516  0.1059  0.3766
 3693W        W19827  18.428  12.743   5.530  0.0755  0.0440  0.0911
 3694W        W19828  13.755  11.964   3.963  0.2283  0.0637 -0.0501
 3695W        W19829  14.164  10.041   0.158 -0.0006  0.2132  0.2208
 3696W        W19830  13.537  14.653   1.908 -0.1991  0.1690  0.0774
 3697W        W19831   0.802   4.353   2.228  0.0463  0.0591 -0.1281
 3698W        W19832   5.638   2.228   4.690  0.2368 -0.0396  0.0745
 3699W        W19833   9.104  16.018   0.944 -0.1668  0.0522  0.0340
 3700W        W19834   6.419  17.164   1.047 -0.1044 -0.2558 -0.0760
 3701W        W19835   0.690  14.820   1.308 -0.1561  0.3799 -0.0518
 3702W        W19836   4.799   7.968  15.427  0.0371 -0.0221  0.0007
 3703W        W19837   4.859   8.508  14.903 -0.3724  0.0831  0.3792
 3704W        W19838  17.837  17.835   3.639 -0.3932 -0.1290  0.4267
 3705W        W19839   3.005   0.471  11.234 -0.2385  0.1384 -0.0493
 3706W        W19840   9.785  12.341   2.902 -0.2120  0.0466 -0.1910
 3707W        W19841   0.600   9.970  11.415 -0.1898  0.1256  0.1623
 3708W        W19842  14.788   5.646   5.201  0.0413 -0.0525  0.1943
 3709W        W19843   9.113   2.790   3.841  0.0963  0.1826 -0.0689
 3710W        W19844   9.315   1.791  14.925 -0.1161  0.1048  0.0342
 3711W        W19845  17.275   7.202  12.305  0.2219 -0.0413  0.1574
 3712W        W19846  16.130   8.922   4.182  0.0930 -0.2176 -0.1161
 3713W        W19847   1.984  17.176  12.360  0.2337 -0.0055  0.2392
 3714W        W19848   4.379  16.557   2.905 -0.2362  0.1701  0.0517
 3715W        W19849   5.418   1.449  12.741 -0.1556 -0.0028  0.1463
 3716W        W19850   5.980   2.619   4.959  0.2738  0.1053 -0.1980
 3717W        W19851  13.390   2.784  14.283 -0.0302 -0.0748  0.3562
 3718W        W19852   0.408   2.039   4.740 -0.0059  0.0175 -0.2949
 3719W        W19853  10.465   4.227   4.048 -0.1782  0.1673  0.0685
 3720W        W19854   9.807   5.607   2.311 -0.1845 -0.2130  0.1921
 3721W        W19855   6.785  18.269   0.151 -0.0785  0.1875  0.5022
 3722W        W19856   3.284  17.141   1.375 -0.0672 -0.0519 -0.2978
 3723W        W19857  13.069  12.450   0.727  0.1403 -0.0776  0.1800
 3724W        W19858  12.072  10.939  14.966  0.1242 -0.2451  0.0052
 3725W        W19859   1.242   0.816   3.992 -0.0222  0.1632 -0.2402
 3726W        W19860   3.238   2.613   4.582  0.0622 -0.2138  0.2188
 3727W        W19861   1.403   7.046   9.830 -0.2187 -0.1351  0.1344
 3728W        W19862   4.324  11.541  10.839  0.0118  0.1927  0.2638
 3729W        W19863   2.555  12.343  12.020  0.0897 -0.3663 -0.0985
 3730W        W19864  10.524  12.863  12.266 -0.2639  0.0501  0.2061
 3731W        W19865  10.617   3.829   3.547  0.1624  0.0002  0.0099
 3732W        W19866   3.264   8.767  11.385  0.1632  0.2022 -0.1461
 3733W        W19867  16.982  12.644   5.015 -0.1724 -0.0852 -0.2467
 3734W        W19868  13.103  11.259   3.315  0.4045 -0.0544  0.1663
 3735W        W19869   2.559   8.297  13.841 -0.1523  0.3231  0.2419
 3736W        W19870  15.399  17.733  13.722  0.1767 -0.0612  0.1261
 3737W        W19871  14.762  16.148   4.429 -0.2464 -0.0319 -0.1468
 3738W        W19872   6.116  11.251   1.619  0.0017  0.0148  0.2252
 3739W        W19873   9.843   2.913  12.590 -0.3755 -0.0488 -0.0345
 3740W        W19874  15.439   9.719   4.106  0.2506  0.1219 -0.0690
 3741W        W19875   7.835   2.973   5.273 -0.0088 -0.1760  0.2959
 3742W        W19876   5.723  11.498   0.723 -0.1695  0.1099  0.1581
 3743W        W19877   6.689  16.252  12.686 -0.0956  0.0837  0.0558
 3744W        W19878   3.315   3.681   4.076 -0.4517  0.0571  0.3336
 3745W        W19879   9.551   5.584   5.713 -0.4266  0.0176 -0.4153
 3746W        W19880  16.647  14.581   1.974 -0.2132 -0.0113  0.0551
 3747W        W19881  11.637   5.778  11.595 -0.1290 -0.0770  0.1570
 3748W        W19882   1.867   1.904  13.123 -0.1055  0.3432  0.0902
 3749W        W19883  17.733  12.567   1.460  0.3135 -0.1772 -0.1538
 3750W        W19884   5.424   6.372  15.774  0.1738 -0.0428  0.0361
 3751W        W19885  13.105   2.456   3.990  0.0257 -0.2969  0.2487
 3752W        W19886   0.015  11.526  14.246 -0.1942  0.1188  0.1738
 3753W        W19887   8.169   5.448  14.251 -0.2112  0.0941 -0.0240
 3754W        W19888   9.095   1.491  12.058 -0.0916 -0.0041 -0.1678
 3755W        W19889   6.814   7.014  11.729  0.1311  0.2207  0.0510
 3756W        W19890   0.666  12.691   1.140  0.0130 -0.0335  0.1866
 3757W        W19891  17.561  15.884   2.320  0.0806  0.1300  0.1422
 3758W        W19892  16.781   4.875  14.084 -0.1243  0.1411 -0.3242
 3759W        W19893   4.052   9.881  11.748 -0.3896  0.4631  0.0779
 3760W        W19894   6.069   6.177  14.987 -0.2753  0.0152  0.3716
 3761W        W19895   5.883   0.070   3.850  0.2451 -0.0455 -0.1626
 3762W        W19896   9.597  13.412   2.025  0.2197 -0.3114 -0.1027
 3763W        W19897  14.336   6.073   0.261 -0.2381 -0.0604 -0.2195
 3764W        W19898  16.005   5.910  13.438 -0.0814  0.2733  0.0153
 3765W        W19899   2.987   0.959   3.179  0.0353  0.1957 -0.1698
 3766W        W19900   4.135  15.846  13.665 -0.2441 -0.2559 -0.1082
 3767W        W19901  12.943  15.418   2.015 -0.0878  0.2321  0.2410
 3768W        W19902   1.772  11.392   5.602 -0.0672  0.3560  0.1602
 3769W        W19903  10.986  10.157   1.021 -0.0296 -0.3342 -0.2051
 3770W        W19904  18.483  13.402  12.853  0.4267  0.0297  0.0510
 3771W        W19905   7.085  13.134  15.895 -0.0883 -0.0753 -0.0897
 3772W        W19906   2.241   7.786   1.509  0.4454  0.0164 -0.0788
 3773W        W19907  17.789  10.293   0.827  0.1154  0.2614  0.1889
 3774W        W19908  17.680  18.259  11.677 -0.2632  0.4535 -0.0032
 3775W        W19909   2.308   3.508   4.687  0.3024 -0.0327  0.0413
 3776W        W19910  16.418   0.253   5.938  0.2041  0.3062 -0.2354
 3777W        W19911  14.642   6.532  12.104  0.4449  0.1085  0.1138
 3778W        W19912   5.821   4.964   4.873  0.1364  0.2980 -0.0876
 3779W        W19913   1.489   0.076   3.131 -0.0159 -0.1120 -0.2070
 3780W        W19914   6.711   7.275  15.781  0.2225  0.2939 -0.1296
 3781W        W19915  16.994  18.303   3.494  0.2796  0.2158  0.1261
 3782W        W19916  16.463  18.171   4.484 -0.4450 -0.1548 -0.1617
 3783W        W19917  17.920  18.431   3.178 -0.2739  0.0040  0.1260
 3784W        W19918  12.379   0.544  14.069  0.0978 -0.1321 -0.0724
 3785W        W19919   5.458   3.943  14.124  0.4705 -0.0981  0.3201
 3786W        W19920   1.468   0.681  15.263  0.2330 -0.1169  0.0742
 3787W        W19921   3.173  11.400  12.109 -0.1112  0.2037  0.0475
 3788W        W19922  13.383  10.221   1.744  0.0703 -0.2270  0.0290
 3789W        W19923   7.126  10.572   2.605 -0.2651  0.0127 -0.3230
 3790W        W19924  16.650   6.272  14.683  0.4025  0.2490  0.5174
 3791W        W19925  11.715  13.240   2.517 -0.1433 -0.0149 -0.0868
 3792W        W19926  13.679   6.493  14.909 -0.1082 -0.1321 -0.4315
 3793W        W19927   2.270   6.758   2.409  0.1130  0.3061  0.1310
 3794W        W19928  13.816  11.195  15.784 -0.1192 -0.1786  0.0671
 3795W        W19929   6.636  13.684   2.790 -0.1281  0.2035 -0.2221
 3796W        W19930   7.966  11.656   5.126  0.3456  0.3638  0.2792
 3797W        W19931  18.248  17.439   2.442  0.2891 -0.0760  0.1756
 3798W        W19932   5.436  15.616  16.070  0.1392  0.1813 -0.4363
 3799W        W19933   8.243   0.749  11.469  0.0555 -0.1137  0.1629
 3800W        W19934  16.017   6.023   0.679  0.0404  0.0583 -0.1831
 3801W        W19935   8.459  14.219  13.573 -0.2362  0.1491 -0.0345
 3802W        W19936   8.878   8.299  15.323 -0.2485 -0.0288 -0.4977
 3803W        W19937  13.025   9.052   0.269 -0.4103  0.0672 -0.3047
 3804W        W19938  18.385  16.300   4.121  0.0374 -0.1422 -0.0114
 3805W        W19939  17.173  12.039   2.962 -0.0812 -0.6098  0.0229
 3806W        W19940  11.137  10.559  13.082  0.3150 -0.0627  0.1005
 3807W        W19941  17.997  12.640  13.322 -0.0395  0.1351 -0.1626
 3808W        W19942  11.519  17.878  12.297 -0.1723  0.4650  0.1942
 3809W        W19943  12.475  17.019  11.475  0.1836 -0.1607  0.0294
 3810W        W19944   1.096   6.754  14.856 -0.2753  0.2303  0.1320
 3811W        W19945   0.421   8.869   3.903  0.0846 -0.1336 -0.1638
 3812W        W19946  15.021  12.557  16.035 -0.1466 -0.1522 -0.0373
 3813W        W19947  12.254  12.714  15.667 -0.0167 -0.0531 -0.0859
 3814W        W19948   7.764   8.486   4.687  0.4382  0.0447 -0.2763
 3815W        W19949   2.389   4.179   3.180  0.2448  0.0146 -0.1451
 3816W        W19950   3.316   8.858   0.031  0.2921  0.1154  0.3468
 3817W        W19951   0.792  16.267   1.479  0.1073  0.0281 -0.0250
 3818W        W19952   8.206   2.540   4.064 -0.3306  0.0204  0.2765
 3819W        W19953   1.471  17.781   2.061  0.2595 -0.2065  0.0070
 3820W        W19954   1.453  11.647  11.724 -0.0949  0.1619 -0.4464
 3821W        W19955   0.212  16.861   1.875  0.1441 -0.2612 -0.1765
 3822W        W19956  13.050   2.032   4.213  0.0852 -0.0332 -0.0506
 3823W        W19957  12.475  11.806  15.999 -0.2236 -0.1971  0.0651
 3824W        W19958   3.499  18.285   2.381  0.2189 -0.0982  0.0055
 3825W        W19959   1.272   3.995   1.501 -0.0136  0.1364 -0.0037
 3826W        W19960   9.393   3.390  14.873 -0.3093  0.1358  0.0029
 3827W        W19961  16.767   4.526  13.581 -0.1854 -0.0622  0.4550
 3828W        W19962   3.734  10.194   3.626 -0.2474  0.2877 -0.0093
 3829W        W19963   2.671  12.216   2.125 -0.0178 -0.2089  0.0246
 3830W        W19964  14.790  15.675   1.662 -0.0777  0.0535 -0.0845
 3831W        W19965   6.053   3.557   2.546  0.2020  0.0530  0.0099
 3832W        W19966   9.217   0.124   2.728  0.1687 -0.0657 -0.0092
 3833W        W19967  10.886  17.941   1.484 -0.2938 -0.3337  0.1286
 3834W        W19968  16.824   9.580   2.809 -0.2601 -0.0020  0.0663
 3835W        W19969   6.367  12.793  13.320  0.0169  0.4329 -0.2549
 3836W        W19970   1.641  16.235   2.151 -0.0682 -0.2641  0.1301
 3837W        W19971  12.942  13.971   4.674 -0.1155 -0.1409 -0.1294
 3838W        W19972  11.108  16.843   2.648  0.1962  0.0774 -0.1425
 3839W        W19973   0.251   5.405  12.004  0.0197 -0.0331 -0.1240
 3840W        W19974   6.308   7.661  12.182  0.2459 -0.3718 -0.0516
 3841W        W19975   0.517  10.807  12.414 -0.1775 -0.0494 -0.1134
 3842W        W19976  12.854   2.811  14.587  0.1981  0.0974 -0.4338
 3843W        W19977   2.151   0.310  16.012 -0.1359  0.0994 -0.0927
 3844W        W19978  13.495  14.538  12.005 -0.0132 -0.1631  0.0322
 3845W        W19979   7.188  17.786   1.163 -0.0413 -0.1568 -0.1251
 3846W        W19980  17.839   9.018   5.757  0.2104 -0.0286  0.1157
 3847W        W19981   9.915  12.651   2.204 -0.1490 -0.0597 -0.1368
 3848W        W19982  15.955  12.289  12.630  0.2391 -0.0952  0.2505
 3849W        W19983  18.322   9.113   0.642  0.0985  0.1096  0.4082
 3850W        W19984  11.063   5.183   0.790  0.2258  0.2925 -0.2299
 3851W        W19985   9.528  14.425  11.772  0.1703 -0.0471 -0.0437
 3852W        W19986  11.627  15.218  13.214 -0.2140  0.1293 -0.0320
 3853W        W19987  17.202  18.365  10.903  0.3580 -0.1211 -0.2057
 3854W        W19988  18.289  14.649   0.108 -0.0809  0.0184  0.1083
 3855W        W19989  12.087  15.205   3.938 -0.2571  0.0856 -0.0331
 3856W        W19990   2.881  12.361  13.877 -0.1058  0.2264 -0.0211
 3857W        W19991  17.067   9.819   1.938  0.2495 -0.0476  0.2279
 3858W        W19992  12.370  14.522  13.057 -0.0202 -0.0613 -0.1294
 3859W        W19993  14.793  15.430   3.530 -0.0800  0.1044 -0.1725
 3860W        W19994  15.304  11.413   4.411  0.0799  0.1809 -0.1293
 3861W        W19995   6.034   3.517  15.339 -0.2334  0.1970  0.0151
 3862W        W19996  10.250   3.946   5.545 -0.0228 -0.4216  0.0891
 3863W        W19997  18.167  10.884   1.732 -0.2023 -0.2404 -0.1096
 3864W        W19998  18.337   0.658  13.394 -0.2572  0.0618  0.1103
 3865W        W19999   0.101   8.618  13.244  0.2963 -0.1412  0.1394
 3866W        W20000   2.997  10.488   4.852  0.0020 -0.0019 -0.0026
 3867W        W20001   2.130   1.712  15.501  0.2574  0.0505  0.1492
 3868W        W20002   0.603  13.931   3.902  0.0001  0.0459  0.2523
 3869W        W20003  15.352  17.829   2.755  0.1778 -0.0960 -0.2241
 3870W        W20004  15.145  13.303  13.847 -0.1577  0.0560  0.1429
 3871W        W20005  11.912   9.489   3.656 -0.1280 -0.0114  0.2196
 3872W        W20006  15.052   2.547   0.550 -0.0102  0.0324  0.1513
 3873W        W20007   8.753  18.135  13.199 -0.2942  0.0570  0.2234
 3874W        W20008  16.300  10.371  13.281 -0.2335 -0.0893 -0.0215
 3875W        W20009  16.723  15.296  10.768 -0.1011 -0.1582 -0.2138
 3876W        W20010  12.604   8.094   1.247  0.2942 -0.1873 -0.1348
 3877W        W20011   0.550   1.753   2.208 -0.3449  0.1892  0.0546
 3878W        W20012   1.867  10.061   3.367 -0.1656 -0.3337 -0.2216
 3879W        W20013  14.185   1.010   2.454  0.1468  0.1367  0.1079
 3880W        W20014   1.842   4.947  11.315  0.2131  0.4005  0.1866
 3881W        W20015  11.135   6.740  14.023  0.1344 -0.0516 -0.1138
 3882W        W20016  12.770  11.745   0.427  0.1559 -0.0351 -0.1362
 3883W        W20017   1.018   8.513   1.941  0.2120  0.0856 -0.0922
 3884W        W20018   1.599   2.296  10.261 -0.1495  0.0755  0.1969
 3885W        W20019  15.802   6.091   3.143 -0.0583  0.2780 -0.1133
 3886W        W20020  14.327   5.606   0.406  0.1406 -0.0814 -0.2969
 3887W        W20021   9.233   0.859  12.847  0.0785  0.1242 -0.0027
 3888W        W20022   3.347  17.840   2.625 -0.0046 -0.1105  0.2381
 3889W        W20023   5.101  15.281  11.668  0.0323  0.0899  0.0143
 3890W        W20024   4.862   3.022  11.110 -0.2399  0.0153  0.1080
 3891W        W20025   2.959  16.377  10.963 -0.1019  0.0426 -0.4089
 3892W        W20026   5.871  10.685  12.151 -0.0437  0.1168 -0.0837
 3893W        W20027  15.456  15.560  11.200 -0.0082  0.2981 -0.0753
 3894W        W20028   8.201   2.501   2.237 -0.1066 -0.1962 -0.3115
 3895W        W20029   3.779  10.090   0.712 -0.0506  0.1026 -0.2057
 3896W        W20030  10.489   9.324   3.245  0.1028 -0.0132 -0.1740
 3897W        W20031   8.760   9.470   1.352 -0.0309 -0.0577  0.4079
 3898W        W20032   3.611   5.269  13.433 -0.0464  0.2160 -0.1678
 3899W        W20033  11.600   1.829  16.015 -0.0069 -0.3123 -0.1897
 3900W        W20034   2.041  14.746  11.250 -0.2319  0.2315  0.0846
 3901W        W20035   3.649   2.757  13.223 -0.0522  0.1009  0.1623
 3902W        W20036  14.184  14.865   0.875 -0.1105  0.4441 -0.3790
 3903W        W20037   5.700  10.226   0.283  0.3257 -0.0921  0.0722
 3904W        W20038  17.964   9.785  15.842 -0.1794 -0.1910  0.4299
 3905W        W20039  14.805   1.796  13.510  0.0104  0.0387 -0.0859
 3906W        W20040  12.916  12.141   1.776 -0.0916 -0.1456  0.1136
 3907W        W20041  13.047  16.844   5.191 -0.0596 -0.1722 -0.1933
 3908W        W20042  17.445   5.876  11.067  0.3641  0.2623 -0.3000
 3909W        W20043  13.990   2.611  15.623  0.2556  0.0728  0.0098
 3910W        W20044  10.811  16.457  14.266  0.1308  0.2534 -0.3603
 3911W        W20045   5.721  10.345  14.224 -0.1599  0.1200 -0.1508
 3912W        W20046  13.518  18.348   4.361  0.2141  0.1423 -0.1379
 3913W        W20047  15.739  13.898  11.332 -0.0876 -0.0661  0.1608
 3914W        W20048   1.226  17.455   4.289 -0.1397 -0.1997  0.1145
 3915W        W20049  15.249   2.661  14.463 -0.0382 -0.0364 -0.2414
 3916W        W20050  12.731   3.641  11.205 -0.1673 -0.1604 -0.1838
 3917W        W20051  10.599   3.200   1.787  0.1121  0.6024 -0.1027
 3918W        W20052   9.236   9.484   4.569 -0.1039 -0.0314 -0.0126
 3919W        W20053   7.146  13.720   1.581  0.4705  0.0856 -0.2318
 3920W        W20054  11.944   8.438   5.600  0.1804 -0.1761  0.0450
 3921W        W20055   6.472   1.768  12.589  0.5035 -0.2999  0.0415
 3922W        W20056  12.199  15.081   1.187  0.4590  0.1812  0.1526
 3923W        W20057  16.883   0.310  15.122  0.0171  0.3575  0.3798
 3924W        W20058  10.793  10.818  12.044  0.0487 -0.0203 -0.1656
 3925W        W20059  14.783  15.749  14.855 -0.1210 -0.0764  0.2471
 3926W        W20060   0.991   8.326   3.680  0.4628  0.2093 -0.0595
 3927W        W20061  14.560   8.023   0.510  0.0362  0.3638  0.1823
 3928W        W20062   5.920   2.886  12.365 -0.1198 -0.0957  0.1840
 3929W        W20063   0.463  11.403   2.287 -0.2145  0.3309  0.0705
 3930W        W20064   3.132  12.333   3.844 -0.2980 -0.1978 -0.0383
 3931W        W20065   8.589  16.011  13.309  0.0035  0.1954  0.0411
 3932W        W20066   8.777  11.075   0.782 -0.0722  0.0462  0.0520
 3933W        W20067   9.818   2.351   0.872  0.0831  0.1249  0.2080
 3934W        W20068   1.869  15.528   0.995  0.1488 -0.1256  0.1724
 3935W        W20069  16.704   8.625   0.668 -0.1007 -0.1506  0.0076
 3936W        W20070  18.192  13.817   2.648  0.1475  0.2646  0.2447
 3937W        W20071  10.539  13.750   5.987 -0.2768 -0.3189 -0.2558
 3938W        W20072   2.584  11.363   3.140  0.3369 -0.3003 -0.1492
 3939W        W20073   2.888   9.222  10.651  0.2517  0.2907  0.1007
 3940W        W20074   8.007   7.393  13.811 -0.2135  0.1231 -0.0737
 3941W        W20075   3.510   9.033   2.361 -0.0597  0.1025 -0.1194
 3942W        W20076   5.460   1.568   2.576  0.0929  0.2499  0.3394
 3943W        W20077  12.490   8.135  12.337  0.0031  0.1404 -0.3466
 3944W        W20078   5.195   5.543  13.959  0.0831 -0.2649 -0.2601
 3945W        W20079  15.271  12.284   0.330  0.3840 -0.1987 -0.2457
 3946W        W20080   1.197   8.896  13.551  0.0836  0.1634  0.0466
 3947W        W20081  14.245   6.593  16.074  0.0840 -0.0056 -0.0793
 3948W        W20082   8.353  14.117  12.607 -0.2345  0.2090 -0.2598
 3949W        W20083   2.064   1.953   0.671 -0.0674  0.0275 -0.2165
 3950W        W20084   6.612   8.842   1.440  0.0365 -0.1704 -0.1694
 3951W        W20085   7.664  12.033   5.134 -0.2926  0.1765  0.2012
 3952W        W20086   6.902   4.562   3.678  0.1096 -0.2020  0.1804
 3953W        W20087  11.970  11.365  11.481  0.0257  0.1504  0.1568
 3954W        W20088  13.046   0.604   3.566  0.2172 -0.1196  0.1839
 3955W        W20089   4.197  12.313  15.788 -0.1815  0.3361 -0.2348
 3956W        W20090  13.147   3.152   1.734 -0.0477 -0.4062 -0.2853
 3957W        W20091  12.303   1.012  14.230 -0.0225 -0.4173  0.0264
 3958W        W20092   6.845   1.985  12.714 -0.1655 -0.3235 -0.2897
 3959W        W20093   3.198  16.763  11.152 -0.0268  0.3308 -0.2675
 3960W        W20094   1.289   4.468  12.520  0.3532 -0.0882 -0.1549
 3961W        W20095   0.558   3.038  16.047  0.1849 -0.1459  0.2951
 3962W        W20096   6.986  16.817   5.247  0.0384  0.2791  0.0240
 3963W        W20097   8.336   9.300  12.358  0.1905  0.0799 -0.2043
 3964W        W20098   5.543  10.907  15.610  0.0847 -0.0715  0.1613
 3965W        W20099   5.981  15.306   2.978 -0.1147  0.3045 -0.4137
 3966W        W20100   3.542  13.313   3.341  0.0354 -0.1919  0.0873
 3967W        W20101   2.255  11.485   0.099  0.0146 -0.3932 -0.3877
 3968W        W20102   5.599  11.492   2.988  0.1231 -0.0643  0.4946
 3969W        W20103   9.895   7.083  13.371  0.0792  0.2729 -0.0236
 3970W        W20104   1.385   8.497   0.155 -0.0283  0.0780 -0.1529
 3971W        W20105  11.170  13.757   3.235 -0.2206 -0.2670 -0.2183
 3972W        W20106  18.243  15.095  10.665 -0.0771  0.1852 -0.2067
 3973W        W20107   4.606   1.018   0.232  0.2752 -0.2654  0.2733
 3974W        W20108   1.425  13.623   3.573 -0.1475  0.1645 -0.2390
 3975W        W20109  17.276   7.899  12.473  0.1185  0.1466 -0.0444
 3976W        W20110   8.795   9.813  15.073 -0.0832 -0.0272  0.1789
 3977W        W20111  15.808   5.935  12.610 -0.0776  0.3463  0.0418
 3978W        W20112   5.877  13.994  12.957  0.0466 -0.0489 -0.1725
 3979W        W20113  14.896  12.353   1.574  0.0477  0.2746  0.2262
 3980W        W20114   9.345   1.159   3.503  0.0811  0.1305  0.0571
 3981W        W20115   2.680   1.250  12.885  0.2554  0.1166  0.3810
 3982W        W20116   9.894   9.426   4.872  0.1484  0.0185 -0.0012
 3983W        W20117   9.806  14.502   3.048  0.1910 -0.0068 -0.2327
 3984W        W20118  16.958   9.081  15.125 -0.2005  0.2813  0.2273
 3985W        W20119   4.585   3.717   4.202  0.2480 -0.1358 -0.0022
 3986W        W20120  14.676  14.301   4.293  0.0760  0.5058 -0.1662
 3987W        W20121  17.599  16.812   0.121  0.0753 -0.0525  0.1064
 3988W        W20122  18.412  16.798  15.623 -0.1575 -0.0623  0.2299
 3989W        W20123   5.742  16.695  11.765 -0.4049  0.3337  0.0736
 3990W        W20124   7.420  12.228  12.791  0.3188 -0.1278 -0.1850
 3991W        W20125  15.182   9.745   3.627 -0.1422 -0.2912  0.1329
 3992W        W20126  13.128   0.435  14.641 -0.1342 -0.4162  0.3304
 3993W        W20127   7.972   2.004   5.027 -0.0218  0.0351 -0.0424
 3994W        W20128   4.021  11.250  10.529 -0.1186  0.1116 -0.0677
 3995W        W20129   3.396   1.750   0.872  0.0484 -0.0242  0.1749
 3996W        W20130   2.272   6.473   3.355 -0.1326 -0.1405  0.1682
 3997W        W20131  17.705  17.419   3.329  0.4116 -0.0065 -0.1171
 3998W        W20132   5.922   4.420  15.500 -0.0504 -0.0731 -0.0794
 3999W        W20133   5.768  12.595   1.972 -0.1862  0.1383  0.1635
 4000W        W20134  14.826  13.634  14.792  0.0578 -0.0058  0.0048
 4001W        W20135  12.712   8.698   2.847  0.4397 -0.0589  0.1444
 4002W        W20136   5.544   5.057  11.849  0.1431  0.0241  0.0284
 4003W        W20137  18.477   0.960  16.085  0.0798 -0.0034 -0.2522
 4004W        W20138   7.571  17.038  13.083 -0.2098  0.0073  0.4392
 4005W        W20139   7.424  14.341   0.908  0.0189 -0.1335  0.2548
 4006W        W20140  12.588  12.632   4.226  0.0642  0.1486  0.0235
 4007W        W20141  17.714  14.538  14.282 -0.0701 -0.2932 -0.1374
 4008W        W20142  16.391  17.339  14.036  0.0307 -0.1416  0.0003
 4009W        W20143  13.667   4.860   2.683 -0.1021 -0.0802 -0.2188
 4010W        W20144   1.248   1.053   0.646  0.0059 -0.0252  0.0471
 4011W        W20145   9.075   7.035   3.672  0.0141 -0.0626 -0.0477
 4012W        W20146   3.936   0.606  10.942 -0.2284 -0.1122  0.2685
 4013W        W20147  14.588  10.044  15.909  0.0243 -0.0646  0.1134
 4014W        W20148   4.145  16.773   1.670  0.4197  0.2480  0.2774
 4015W        W20149  12.064  16.391   1.492  0.1693 -0.1549  0.2214
 4016W        W20150  12.821   0.593   4.569 -0.1416 -0.1557 -0.2895
 4017W        W20151   6.940   3.859   4.718  0.4336 -0.1249 -0.1230
 4018W        W20152   9.060   5.099  11.824  0.0095 -0.4753  0.3041
 4019W        W20153   2.875   2.300  12.104 -0.0638 -0.3234  0.1124
 4020W        W20154  13.168   0.537  13.365 -0.3228 -0.1616  0.1761
 4021W        W20155  17.786   2.380  14.663 -0.0493 -0.2575  0.1032
 4022W        W20156   4.190   5.918   5.236 -0.1144  0.0637  0.0155
 4023W        W20157  13.801  18.132   4.043 -0.0461  0.0107  0.0264
 4024W        W20158   7.347  16.916   2.617  0.3147  0.2188  0.0517
 4025W        W20159  17.320   0.287  11.654 -0.1526  0.3989  0.0843
 4026W        W20160  17.294   0.549  13.431  0.1929  0.0415  0.3818
 4027W        W20161  13.341  18.234  12.831 -0.1194  0.4907  0.0578
 4028W        W20162   1.435   0.103   1.444  0.0913  0.1085  0.0798
 4029W        W20163  16.600  11.002  15.708  0.0063 -0.0544 -0.0078
 4030W        W20164  13.474   8.467   2.452  0.0556  0.0940 -0.3836
 4031W        W20165   5.604  17.137   0.224 -0.0249  0.0137  0.0463
 4032W        W20166   0.356   7.597  13.903  0.3568  0.1066  0.0619
 4033W        W20167  14.037   8.204  15.012  0.1446  0.2881  0.1020
 4034W        W20168  16.570   1.720  12.178 -0.0782 -0.0312  0.1468
 4035W        W20169   6.782   7.139   1.463 -0.1465 -0.0078 -0.1431
 4036W        W20170   0.908   1.148   4.909  0.1380  0.1735  0.1906
 4037W        W20171  12.192   3.339  15.919  0.0281 -0.6019  0.0800
 4038W        W20172   3.721   0.202   1.942  0.2829 -0.2081  0.1357
 4039W        W20173   1.282  14.480   0.735 -0.1465  0.2932  0.1400
 4040W        W20174  17.896  15.263   2.806 -0.0735 -0.0839 -0.0683
 4041W        W20175   3.667   4.626  15.220  0.1602  0.1439  0.2944
 4042W        W20176   0.744   2.992  15.477  0.1602  0.2258  0.0213
 4043W        W20177  12.305   1.771   3.431 -0.0911  0.2761  0.2110
 4044W        W20178   7.730   9.939   3.176  0.1031  0.2650 -0.0189
 4045W        W20179  16.901  12.933  15.851 -0.0036  0.0652  0.0636
 4046W        W20180  15.601   9.901   3.369 -0.1314 -0.0447  0.0615
 4047W        W20181  10.445   9.496  15.114  0.0704  0.1206 -0.1226
 4048W        W20182   5.143   0.449  14.135  0.0254 -0.0022 -0.1720
 4049W        W20183  13.215  15.197  15.495 -0.0235 -0.1314 -0.0371
 4050W        W20184   2.951   1.986   2.944  0.4271 -0.0898  0.2641
 4051W        W20185   6.123   7.721   3.841  0.2343  0.0573  0.1589
 4052W        W20186  15.804   5.794  10.863  0.1978  0.0223 -0.0582
 4053W        W20187  16.507   0.108   1.667  0.0689  0.0820 -0.0417
 4054W        W20188  15.887  14.328  14.489 -0.0532  0.1578 -0.1223
 4055W        W20189  17.677  17.808   2.447  0.0588 -0.2779  0.1007
 4056W        W20190  11.361  14.811  13.978  0.2425  0.3204  0.0107
 4057W        W20191  13.341   5.029   6.022  0.2515  0.3254 -0.2467
 4058W        W20192  11.800   1.514   0.903 -0.3444  0.1649  0.1298
 4059W        W20193  15.313  11.532  13.116  0.0414  0.0198 -0.2486
 4060W        W20194  15.390  11.240  13.531  0.1149  0.0056  0.3998
 4061W        W20195   7.131  14.454   3.661 -0.2905  0.2104  0.0684
 4062W        W20196   1.306   3.529  15.845 -0.1629  0.0212  0.3179
 4063W        W20197   6.833  11.854   0.477  0.1576 -0.2450 -0.0363
 4064W        W20198  16.278   4.514   3.352 -0.0722  0.0191  0.1235
 4065W        W20199   9.472  11.608  15.330 -0.1549 -0.0753  0.1766
 4066W        W20200   0.901   6.833  12.306 -0.4954  0.0590 -0.1516
 4067W        W20201   7.875   7.743   4.956  0.1737  0.1263  0.2213
 4068W        W20202   7.209  13.414  13.228 -0.3063 -0.0018  0.1920
 4069W        W20203  10.782   4.098   1.331  0.2999 -0.0180 -0.0222
 4070W        W20204  17.318   0.084  13.607 -0.0802  0.0459  0.1241
 4071W        W20205   5.957   2.048  15.140 -0.2959 -0.0070 -0.1871
 4072W        W20206   4.761  11.057   4.228 -0.0536 -0.2286 -0.0316
 4073W        W20207   8.177   1.971  15.282 -0.2271  0.0275  0.0432
 4074W        W20208  16.329   3.911  14.387 -0.1110 -0.1345 -0.3329
 4075W        W20209  12.470  12.353  13.458  0.0087 -0.0950 -0.2271
 4076W        W20210  17.232   6.118   5.217 -0.2025 -0.4418 -0.0224
 4077W        W20211   4.309   2.908   0.155  0.0346  0.0647  0.1505
 4078W        W20212   3.665   8.023   4.589 -0.1090  0.0905 -0.0534
 4079W        W20213   9.538   0.672  15.672  0.1016  0.3542  0.0783
 4080W        W20214   6.443  10.083   0.019 -0.0862  0.0907 -0.2788
 4081W        W20215  18.060  13.407   0.383 -0.1922  0.1653  0.0060
 4082W        W20216   5.250   1.961  13.923 -0.0858 -0.3743 -0.0357
 4083W        W20217   7.102   8.868  12.689  0.0064  0.1660  0.3412
 4084W        W20218   6.963  16.694   3.430  0.0391  0.0060  0.0075
 4085W        W20219   3.831   9.038   2.855 -0.1732 -0.0972 -0.1291
 4086W        W20220   8.588   3.525   2.112 -0.1986  0.0438  0.2565
 4087W        W20221   9.826   6.885   5.235  0.1225 -0.1876 -0.0678
 4088W        W20222  17.980   5.437   2.760 -0.3585 -0.1568  0.0321
 4089W        W20223   5.611   1.523   3.894  0.2611 -0.2319  0.0384
 4090W        W20224  17.082   6.552   0.753 -0.0655  0.2053 -0.0977
 4091W        W20225   8.888   3.038   1.793 -0.0010 -0.4656  0.0930
 4092W        W20226  13.297  17.806   5.639  0.0482  0.1316  0.0112
 4093W        W20227  16.359   2.646  11.266 -0.0877  0.0270  0.4377
 4094W        W20228   1.336   3.781   0.494  0.1370  0.2033  0.0876
 4095W        W20229   8.010  10.484   2.709 -0.1679  0.0319  0.1078
 4096W        W20230  12.053   6.671  14.621 -0.0283 -0.2530 -0.4234
 4097W        W20231  15.249   7.824  11.317  0.2345  0.2328 -0.1456
 4098W        W20232   9.642   7.769  15.960 -0.0860  0.1216 -0.0969
 4099W        W20233   0.631  12.940  12.562  0.0236  0.0041  0.1705
 4100W        W20234  17.841   6.326   2.530 -0.1331 -0.1151  0.2194
 4101W        W20235  11.385   4.375  11.719 -0.2981 -0.0870  0.0054
 4102W        W20236   0.612   2.488  14.103  0.0666  0.0254 -0.0646
 4103W        W20237  12.535   4.656   5.225  0.2753 -0.1536  0.1615
 4104W        W20238  10.810   3.825  11.399  0.0913 -0.0006  0.2434
 4105W        W20239  10.568  11.086   0.981 -0.2200  0.0114 -0.0683
 4106W        W20240   7.161  17.397   2.281  0.0284 -0.0909  0.0878
 4107W        W20241   7.595  15.597  12.145  0.3713  0.2017  0.0420
 4108W        W20242   2.166   1.071  14.787  0.1748  0.2898 -0.1242
 4109W        W20243   6.960  10.522   0.694  0.0167 -0.1140 -0.2831
 4110W        W20244  11.533  12.233   5.356 -0.2829 -0.0839 -0.0552
 4111W        W20245  17.687   4.742  15.026  0.0803 -0.1230 -0.0070
 4112W        W20246  13.809   5.285   4.711 -0.1072 -0.1235 -0.1841
 4113W        W20247  11.336   8.414  15.303 -0.0665 -0.0554  0.0751
 4114W        W20248  11.970  13.181  15.706 -0.0061 -0.3359  0.3338
 4115W        W20249  11.766   5.297   1.739  0.1599  0.1914 -0.1336
 4116W        W20250   4.075   4.413   0.341 -0.1822  0.3220  0.2344
 4117W        W20251  16.235   1.399   4.078 -0.3834 -0.1219 -0.0439
 4118W        W20252   8.872  17.149  15.405  0.0037  0.4350 -0.2201
 4119W        W20253  11.036   6.631   0.702  0.0161  0.2517  0.0881
 4120W        W20254   1.322  11.728   0.854  0.2492  0.0651 -0.1536
 4121W        W20255  11.747   5.768  15.298  0.2405 -0.2723 -0.0753
 4122W        W20256  11.067  14.106   5.208  0.1134  0.2509  0.2989
 4123W        W20257  16.801   0.125   2.138  0.1308 -0.1407 -0.0480
 4124W        W20258   1.325   6.204  12.055  0.0120 -0.1657  0.0911
 4125W        W20259  14.425   3.133   2.749  0.0823 -0.0362 -0.2441
 4126W        W20260   6.610  17.380   1.592 -0.0152 -0.0345  0.1317
 4127W        W20261  11.744   8.321   1.391 -0.5055  0.0149  0.2368
 4128W        W20262   0.391  11.556  12.637 -0.3253  0.0960 -0.1787
 4129W        W20263   6.319  11.985  10.144  0.2705  0.0741  0.2758
 4130W        W20264   6.613  12.067  11.563  0.0645  0.0719  0.3626
 4131W        W20265   5.043   9.356   3.909 -0.0041 -0.1924 -0.1366
 4132W        W20266   0.721  12.368   3.874  0.0751 -0.0999 -0.2069
 4133W        W20267  10.070   7.937  15.720  0.0267  0.1409  0.4667
 4134W        W20268  17.820  15.638  14.427  0.0031 -0.0135 -0.1507
 4135W        W20269  15.096   2.880  15.399 -0.1130 -0.0868  0.1504
 4136W        W20270   9.904  13.719  14.328  0.0068 -0.3833  0.1492
 4137W        W20271  15.976   7.393   4.154  0.1775  0.4012 -0.1449
 4138W        W20272   6.752  12.681  14.256  0.1720 -0.3097  0.0148
 4139W        W20273   7.013   5.845  13.741 -0.2714  0.0435 -0.0781
 4140W        W20274   0.999   1.941  10.867  0.0981 -0.2817 -0.1576
 4141W        W20275   1.923  12.162  13.207 -0.2062 -0.1399 -0.1310
 4142W        W20276  11.235   6.640   1.627 -0.0447 -0.1186  0.1524
 4143W        W20277  12.883   5.925   3.849 -0.1282 -0.0477 -0.0056
 4144W        W20278  18.252  16.956  11.210 -0.0841  0.0453  0.2501
 4145W        W20279   9.570   9.863   5.652  0.0497  0.1338 -0.0967
 4146W        W20280  18.119   2.356  11.086  0.3082  0.1285  0.3681
 4147W        W20281   7.586   5.592   2.604  0.1133 -0.2162  0.1135
 4148W        W20282   2.458  15.105  11.276 -0.0823  0.0652  0.3475
 4149W        W20283  18.018   0.898   4.234  0.0763 -0.1500  0.1403
 4150W        W20284   3.068   3.131  12.316 -0.1570  0.0524  0.4897
 4151W        W20285   9.704   1.975   0.458  0.2585 -0.1083  0.2030
 4152W        W20286  13.741   2.680   5.472  0.1573  0.0308  0.1050
 4153W        W20287  17.971   6.477  12.594 -0.2223  0.1263  0.1743
 4154W        W20288   6.814   2.283  11.824  0.1358 -0.0935 -0.2117
 4155W        W20289  11.049  12.833  12.220  0.1131 -0.0198  0.0516
 4156W        W20290   6.083   9.914   3.460 -0.0553  0.3516  0.2127
 4157W        W20291   8.123   1.100   3.843 -0.0139 -0.1473  0.2776
 4158W        W20292  14.612   8.730   4.516 -0.0046  0.0952  0.2182
 4159W        W20293   2.574  16.584   2.111 -0.1266 -0.0011 -0.0109
 4160W        W20294   0.442  16.295  10.819  0.1415 -0.1460  0.1977
 4161W        W20295  12.273  13.298   0.415  0.0903  0.2623  0.0451
 4162W        W20296   4.034   8.331  14.227 -0.1681 -0.1670 -0.2845
 4163W        W20297   6.177  12.513  14.722  0.1497 -0.2928 -0.0767
 4164W        W20298  13.452   1.529  14.472  0.0270  0.1605 -0.0680
 4165W        W20299   3.076   3.539   4.961  0.0048  0.0642 -0.1108
 4166W        W20300   9.438   1.365  12.893 -0.0224  0.2232 -0.0959
 4167W        W20301   3.028  17.078   2.597 -0.0035  0.3057  0.2788
 4168W        W20302   7.756  14.685  12.339  0.0254 -0.0132  0.1862
 4169W        W20303  15.342  13.645   4.639 -0.1584  0.0247  0.0227
 4170W        W20304   9.218   8.197   5.236  0.4009 -0.0496  0.0341
 4171W        W20305  10.008   6.534  12.237 -0.2710 -0.0434 -0.1578
 4172W        W20306   7.814  12.996   4.352 -0.1214  0.2090  0.2513
 4173W        W20307   9.392  17.513   5.217  0.3691  0.1293 -0.0876
 4174W        W20308   8.870  10.439  12.159 -0.0087 -0.0363 -0.2660
 4175W        W20309  13.488   9.310   0.309 -0.0550  0.0706  0.1213
 4176W        W20310   4.044   0.720   0.034 -0.0006  0.3898  0.3809
 4177W        W20311   9.163   5.440   0.279 -0.2445  0.1005 -0.1891
 4178W        W20312   3.525  17.489   1.154  0.2142  0.1692 -0.0437
 4179W        W20313  14.538  12.237  14.363 -0.1070  0.0169 -0.2603
 4180W        W20314   5.085  10.308   0.082 -0.2132  0.0784  0.1035
 4181W        W20315  12.874   7.543  13.387  0.0358  0.0265  0.1815
 4182W        W20316   2.256   9.162  11.658 -0.4712 -0.0357  0.0341
 4183W        W20317   8.345   3.063  10.579  0.0541 -0.1028 -0.0082
 4184W        W20318   1.211   7.552  13.044 -0.1291 -0.2934  0.0458
 4185W        W20319  18.304   5.597  12.692 -0.1860 -0.3948  0.1582
 4186W        W20320  15.057  15.278  11.126 -0.3628 -0.2541  0.1669
 4187W        W20321   7.163   4.674  12.180 -0.0133  0.1261  0.2795
 4188W        W20322   8.755   8.383   3.451  0.1825  0.0620  0.0316
 4189W        W20323  17.705   6.436   1.607  0.0193  0.1474  0.2231
 4190W        W20324   4.821  17.004   1.400  0.1624 -0.2074  0.0194
 4191W        W20325   3.566   2.662   3.061 -0.0698 -0.0356  0.0354
 4192W        W20326  15.581  15.851   3.538  0.2450  0.1370 -0.1305
 4193W        W20327   6.342   4.204   2.809  0.0426  0.0737  0.0138
 4194W        W20328  17.792   3.311   5.108  0.1345  0.1523 -0.3126
 4195W        W20329   4.598  16.318  14.852  0.0627  0.3259  0.0867
 4196W        W20330  13.340   2.936   3.994 -0.0530 -0.3726  0.0131
 4197W        W20331  15.323   7.134   0.791  0.0645 -0.3667  0.2895
 4198W        W20332   5.248   1.849  16.066  0.2790  0.0804 -0.2911
 4199W        W20333  16.670  18.128   3.946  0.1664 -0.0752 -0.0574
 4200W        W20334   5.783  12.446   0.857  0.1123  0.0825 -0.5350
 4201W        W20335  12.722   0.509   5.477 -0.1167  0.5214 -0.0198
 4202W        W20336   4.851  10.574   1.809  0.2142 -0.2526 -0.0631
 4203W        W20337   0.555  13.567   3.067 -0.2315 -0.2140  0.1268
 4204W        W20338   3.604   8.102  11.956  0.0753 -0.1013 -0.3542
 4205W        W20339  11.777   9.684  15.335 -0.0863 -0.2235 -0.1355
 4206W        W20340  10.380   2.037   2.820 -0.2786  0.1993 -0.1125
 4207W        W20341  12.097   9.571  13.059 -0.4228 -0.0921  0.2148
 4208W        W20342   5.973  14.610   2.979 -0.3428  0.2033  0.0871
 4209W        W20343  11.822   0.352   1.957  0.0462  0.1778 -0.0221
 4210W        W20344  13.268  12.501   1.528 -0.1963  0.0505 -0.0581
 4211W        W20345   7.434  14.924  15.929 -0.1624  0.1535 -0.3752
 4212W        W20346   0.515  12.295   3.124  0.1227 -0.0227  0.2812
 4213W        W20347   4.011   4.365  13.872 -0.0775  0.0478 -0.1363
 4214W        W20348  16.579  12.681  14.617  0.4164 -0.0809 -0.2153
 4215W        W20349   1.656  11.097   3.942  0.1152  0.1299  0.0520
 4216W        W20350   4.089  17.508   2.904 -0.2374  0.1149  0.1786
 4217W        W20351   7.739   6.446  15.210 -0.0749  0.0580  0.0083
 4218W        W20352  18.395   5.155   1.992  0.0465 -0.1154 -0.3563
 4219W        W20353   8.999   9.323   1.763 -0.1669  0.0752 -0.1726
 4220W        W20354   9.117  15.429  11.442 -0.0861  0.1047 -0.3780
 4221W        W20355   2.588   6.249  12.143 -0.1592  0.3370 -0.1007
 4222W        W20356  17.910   9.656  13.044 -0.2495  0.0834  0.0457
 4223W        W20357   5.770   2.124  13.921  0.0440 -0.2170 -0.0436
 4224W        W20358   4.668   5.539   0.045 -0.0195 -0.0396 -0.2329
 4225W        W20359  10.516   6.525   2.842 -0.0742  0.2059 -0.0692
 4226W        W20360   3.291  16.060  12.420  0.2759 -0.0402 -0.2405
 4227W        W20361   9.995   9.708   5.495 -0.0742  0.1747  0.1369
 4228W        W20362  12.487  17.279  15.259  0.0779  0.0465  0.4935
 4229W        W20363   5.956   0.504   0.819  0.1197  0.0025 -0.0471
 4230W        W20364  11.644   2.366   0.579  0.1036 -0.0690 -0.1608
 4231W        W20365   4.903  10.579  13.267 -0.3950 -0.1431  0.0077
 4232W        W20366   9.626   7.718  12.129  0.2551 -0.1536 -0.1184
 4233W        W20367  14.103   0.401  14.949 -0.1153 -0.5062  0.0531
 4234W        W20368  13.615   8.832   0.427 -0.0675  0.1864 -0.2593
 4235W        W20369   0.409  17.570  15.933 -0.0872  0.0598  0.0836
 4236W        W20370  12.731   0.838  14.449 -0.0674  0.0408 -0.1127
 4237W        W20371  17.317   9.946   0.701  0.0436 -0.0922  0.1758
 4238W        W20372   7.345  18.436  11.111 -0.1033  0.0738 -0.0309
 4239W        W20373   8.218  16.694  14.950 -0.1109  0.0165 -0.0395
 4240W        W20374  13.888   6.726   3.408  0.0334 -0.2658 -0.1869
 4241W        W20375  13.509  14.960   1.402 -0.0226  0.0799 -0.3813
 4242W        W20376  14.614  13.754   2.292 -0.2496  0.1209 -0.0458
 4243W        W20377  16.108   1.523   0.467  0.2321 -0.0118 -0.0059
 4244W        W20378   3.716  15.884   2.178 -0.1859  0.1067 -0.4439
 4245W        W20379   4.521   6.718  15.217 -0.2179  0.1717 -0.0638
 4246W        W20380  12.712  13.643   5.638 -0.1859  0.0932  0.1148
 4247W        W20381   6.358  16.420  13.192 -0.2132  0.0794  0.0421
 4248W        W20382  11.142  16.811  14.492  0.1101  0.4715  0.0538
 4249W        W20383   3.075  15.166  13.544 -0.4780 -0.3190  0.1400
 4250W        W20384   7.253  14.213   2.223  0.0072 -0.0265  0.0267
 4251W        W20385   9.872  10.001   3.606  0.1464  0.0117  0.1683
 4252W        W20386   9.045   6.255  13.777 -0.0459 -0.2772  0.0559
 4253W        W20387  17.557  13.565  15.329  0.0247 -0.0398  0.0532
 4254W        W20388   4.119   8.001  12.796  0.2637  0.2230 -0.1299
 4255W        W20389   1.970  15.725   0.481  0.1573 -0.2685  0.0160
 4256W        W20390   5.147   6.665  10.826 -0.0813  0.1445 -0.0704
 4257W        W20391  14.612   5.497  12.194  0.0497 -0.1257 -0.1183
 4258W        W20392   1.504   3.510   4.836  0.2311  0.0864 -0.4300
 4259W        W20393   1.239   9.447   3.544 -0.1358  0.0232 -0.2493
 4260W        W20394   5.824   7.010   0.042 -0.0135 -0.0161 -0.2056
 4261W        W20395   2.762  14.753   3.168  0.0902 -0.4082 -0.1745
 4262W        W20396   7.954  12.371   1.531  0.1522  0.1867  0.0240
 4263W        W20397   9.062  10.979   4.945  0.2069 -0.0183  0.0028
 4264W        W20398   3.527  16.265   1.765  0.0088 -0.2382  0.1223
 4265W        W20399   4.097   2.636   1.179  0.3872  0.3747 -0.0583
 4266W        W20400   7.144   4.424  14.132  0.0615 -0.3963  0.0709
 4267W        W20401  10.930  10.847   5.015 -0.0606 -0.0264  0.1668
 4268W        W20402   0.874  15.966   3.008 -0.4101  0.1786  0.0740
 4269W        W20403   4.266   0.145   1.083  0.0483  0.3370 -0.2245
 4270W        W20404  12.389  16.429   4.254  0.1264  0.0611  0.3143
 4271W        W20405   8.467   4.051   5.199  0.2611  0.2163 -0.1352
 4272W        W20406  17.186  18.033   1.489  0.0313 -0.2256 -0.1071
 4273W        W20407  14.680   4.869  14.574 -0.1294 -0.1357 -0.3574
 4274W        W20408   1.894  15.469   1.519 -0.1973  0.0724 -0.0427
 4275W        W20409   4.471   8.329  11.686 -0.0331  0.1041 -0.0043
 4276W        W20410  10.061   3.240   4.498 -0.0663 -0.2269 -0.1865
 4277W        W20411   0.249  10.621  14.323 -0.2952 -0.0574  0.1046
 4278W        W20412  16.077  17.537  12.756  0.0352 -0.1342 -0.1564
 4279W        W20413  11.202   2.092  13.343  0.5384 -0.0472 -0.2868
 4280W        W20414   4.978   3.916   2.892 -0.0937  0.2382 -0.0696
 4281W        W20415   9.611   3.041   4.504  0.0049  0.1611 -0.0069
 4282W        W20416  11.769   3.922  11.338 -0.1584  0.2833  0.1002
 4283W        W20417   7.890   8.878  12.967  0.0421 -0.0427  0.2932
 4284W        W20418  16.837  17.522  11.029  0.1410 -0.0212 -0.0137
 4285W        W20419   1.222  11.184   0.121 -0.1651  0.1097 -0.4175
 4286W        W20420  14.388   7.366  15.471 -0.2097  0.1802 -0.0830
 4287W        W20421  11.770  14.137   3.939  0.2023 -0.1396  0.1859
 4288W        W20422   3.462   8.480   3.241 -0.2604  0.0325  0.1325
 4289W        W20423   6.557  10.589   3.490  0.1751 -0.1218 -0.0927
 4290W        W20424   6.025   9.754   2.384  0.1612 -0.1400  0.1046
 4291W        W20425  17.760   0.434   1.722  0.1599 -0.0454  0.1052
 4292W        W20426   8.326   9.740  11.429 -0.4225 -0.1408 -0.0811
 4293W        W20427  13.139  11.010   1.673  0.0016  0.0972 -0.0144
 4294W        W20428  13.800  15.275   0.619 -0.1591  0.1039  0.4941
 4295W        W20429   9.826  10.252  12.877 -0.1939  0.2403  0.0737
 4296W        W20430   3.480   7.950  10.687  0.3979  0.2299  0.5348
 4297W        W20431   6.791   5.377  11.861 -0.0139  0.2324 -0.4095
 4298W        W20432   2.944  15.721   2.448 -0.0664 -0.2863 -0.0025
 4299W        W20433   3.448   8.751   2.781 -0.1120  0.0665  0.3995
 4300W        W20434   9.613   3.738  12.589 -0.1299 -0.2006  0.0598
 4301W        W20435  18.432  13.607  15.037  0.0209  0.1700 -0.1393
 4302W        W20436   9.706  11.170  11.219  0.1078 -0.1594 -0.1036
 4303W        W20437   0.308  16.419   4.524  0.1035 -0.0532 -0.5009
 4304W        W20438   1.821  17.613  12.573  0.1050 -0.1389  0.4548
 4305W        W20439   8.783   5.657   3.601  0.0039  0.1759 -0.0716
 4306W        W20440   3.219  15.213  10.874  0.1337 -0.3891 -0.1163
 4307W        W20441   5.411   0.028  12.734  0.2128 -0.0368 -0.0597
 4308W        W20442   5.079  11.280   0.176  0.0546 -0.3243 -0.7273
 4309W        W20443   2.107   0.326  11.748  0.3091 -0.0509  0.1651
 4310W        W20444   9.518  13.524   4.137  0.1124 -0.1464  0.2131
 4311W        W20445   6.271  17.639   1.300 -0.0081  0.2281 -0.0874
 4312W        W20446  11.584  16.173  13.842 -0.1591 -0.0799 -0.0597
 4313W        W20447   4.048   0.071  12.834  0.1649 -0.1396 -0.0620
 4314W        W20448   8.090   0.398  14.087  0.4133 -0.2228 -0.3201
 4315W        W20449  10.628   5.222  12.553 -0.0861 -0.0645 -0.0780
 4316W        W20450  13.631   2.084   5.567  0.3104  0.1086 -0.1675
 4317W        W20451   2.835   2.370   5.184 -0.1802  0.1068 -0.0563
 4318W        W20452  16.908   5.519   0.112  0.0489 -0.0783  0.0024
 4319W        W20453  18.454  16.562   1.597  0.2218 -0.2472 -0.1219
 4320W        W20454  10.279  17.303   4.867  0.1275  0.5169 -0.0428
 4321W        W20455  15.691  13.522   5.766 -0.1907  0.1810  0.1474
 4322W        W20456  15.540   5.003   2.379 -0.1683  0.3011 -0.1326
 4323W        W20457  17.663  11.060   2.079 -0.2877  0.4755 -0.1499
 4324W        W20458   9.973   6.236  13.373  0.1787  0.3674 -0.2288
 4325W        W20459  16.885  10.030   4.715  0.1764 -0.1913 -0.0940
 4326W        W20460  10.115   9.925   2.277 -0.1622 -0.0156  0.0387
 4327W        W20461   4.774   5.506   2.381 -0.5596 -0.3793  0.1291
 4328W        W20462  13.662  16.657  13.025 -0.0630  0.2934  0.1121
 4329W        W20463   0.440   5.788  11.039 -0.0348 -0.1030 -0.1055
 4330W        W20464  16.217   7.734   2.820 -0.2588 -0.0367 -0.0716
 4331W        W20465   2.321  16.713   0.705 -0.4071 -0.2793  0.0853
 4332W        W20466  15.896   9.391  13.382  0.0175 -0.1576  0.1081
 4333W        W20467  13.304   4.568  14.473  0.2844  0.1419  0.2344
 4334W        W20468   6.132   9.714  15.849 -0.0758 -0.2950 -0.1011
 4335W        W20469  13.222   5.049   4.067  0.0005  0.1297  0.1088
 4336W        W20470   4.115   5.467   0.630 -0.3536  0.0431  0.0934
 4337W        W20471   9.881  14.345   0.081  0.2166 -0.1996 -0.0484
 4338W        W20472  14.610  16.175  14.508  0.0141 -0.1654 -0.3052
 4339W        W20473   7.916  14.387  12.691  0.3533  0.1386 -0.2078
 4340W        W20474   8.196  13.593   3.701 -0.0122 -0.1178 -0.2968
 4341W        W20475   1.803  14.468   2.725 -0.1174 -0.2551 -0.2412
 4342W        W20476   7.725   1.659  14.155  0.2389 -0.1557  0.0709
 4343W        W20477   2.462   1.259  15.580  0.0086 -0.2497 -0.1446
 4344W        W20478  10.754   2.646   0.792 -0.2828 -0.2033 -0.0611
 4345W        W20479  12.946   4.666  12.534  0.0826 -0.2717  0.0371
 4346W        W20480  17.442   6.249  13.514 -0.0628 -0.1637  0.1091
 4347W        W20481   0.104   8.113   5.334  0.0369 -0.3510 -0.0715
 4348W        W20482   6.039   6.987  13.857  0.1515 -0.0869 -0.0004
 4349W        W20483   2.611   9.509   3.261 -0.2587  0.0228 -0.0902
 4350W        W20484   0.786  15.129  12.943 -0.3609  0.2006 -0.2059
 4351W        W20485  10.783   2.416  11.668 -0.3726  0.2349  0.0451
 4352W        W20486   9.811  12.538   0.408 -0.1836 -0.1780 -0.0299
 4353W        W20487  13.140  10.449   3.162  0.2469 -0.3099  0.1003
 4354W        W20488  17.046   7.873   0.337 -0.2104 -0.2238 -0.2906
 4355W        W20489   1.677   4.699   0.207  0.0037 -0.0819 -0.1098
 4356W        W20490   9.462  13.894   2.224  0.2787  0.3196  0.0518
 4357W        W20491   0.387   4.182   0.671 -0.2573 -0.1814  0.0899
 4358W        W20492   2.991  15.345   3.179  0.2455  0.1477 -0.1253
 4359W        W20493  18.213  17.655   0.619 -0.1224 -0.3874 -0.0120
 4360W        W20494  16.207   5.443  12.787 -0.3244  0.0868 -0.2104
 4361W        W20495  10.652  17.564  14.677  0.1933 -0.1375 -0.0431
 4362W        W20496   4.742   4.871   2.981 -0.3236 -0.2268 -0.3522
 4363W        W20497   5.903   1.289   2.626 -0.0691 -0.2080  0.0491
 4364W        W20498  14.902   2.834   0.990  0.2398 -0.0985 -0.0928
 4365W        W20499   1.776  15.738  15.578  0.1967 -0.0085  0.1378
 4366W        W20500  10.950   8.547  13.843 -0.2644 -0.1701 -0.0148
 4367W        W20501   4.923  16.577  15.111  0.0099  0.1969 -0.3498
 4368W        W20502   6.067  17.573   0.296 -0.0704 -0.3259 -0.0427
 4369W        W20503  17.526   0.742   1.125  0.1340  0.2237 -0.2927
 4370W        W20504  16.428   5.288   2.439  0.1797 -0.1394 -0.0026
 4371W        W20505   8.316   8.579  14.188 -0.0891 -0.1902  0.0190
 4372W        W20506   1.699  14.442  10.558  0.3994 -0.3059 -0.1336
 4373W        W20507  16.612   9.633   4.682 -0.1251 -0.3084  0.1066
 4374W        W20508   2.728  10.423   1.967  0.1690  0.1626  0.0861
 4375W        W20509   8.284  11.058  14.245  0.0438  0.1282  0.1731
 4376W        W20510  16.251   7.300  12.470 -0.0249  0.4010 -0.1279
 4377W        W20511  17.325  16.704  13.010  0.1726 -0.0620 -0.3400
 4378W        W20512   4.587  11.851   0.266  0.0442  0.2452  0.1268
 4379W        W20513  11.203  15.551   1.109  0.1796 -0.0089 -0.3508
 4380W        W20514   0.348   0.248   1.980  0.1495  0.2315  0.1034
 4381W        W20515  13.174   8.537   0.627  0.1110 -0.2424  0.0133
 4382W        W20516  17.575   7.721  13.566 -0.0723 -0.1486  0.0827
 4383W        W20517   7.396  16.864  14.352 -0.0819  0.0692 -0.3576
 4384W        W20518   0.571   7.460   5.475 -0.3770 -0.0754  0.1078
 4385W        W20519  12.207  16.682  12.652 -0.0051 -0.0128 -0.0304
 4386W        W20520   8.721   2.999  12.071 -0.1083 -0.2383  0.2209
 4387W        W20521   7.613  17.578   4.159 -0.0796 -0.4626  0.1193
 4388W        W20522   0.481   2.166   2.478 -0.3766  0.0656  0.2311
 4389W        W20523  11.901  10.433   3.640 -0.0761  0.3633 -0.0830
 4390W        W20524   0.515   4.066   1.211  0.1004  0.1040 -0.0081
 4391W        W20525  18.316  13.059  15.095  0.1120  0.0139  0.0105
 4392W        W20526  17.337   8.602  11.550 -0.1979 -0.0999 -0.1659
 4393W        W20527  12.216  16.957   4.975 -0.1254 -0.0319 -0.3159
 4394W        W20528   7.424   3.887  15.467 -0.0707  0.1329 -0.3241
 4395W        W20529  14.682   3.776   4.392  0.3308  0.0830  0.0659
 4396W        W20530  16.426   2.151  13.366 -0.1940  0.0813  0.1882
 4397W        W20531   8.688   1.523   0.094 -0.0361  0.0559  0.2355
 4398W        W20532   4.045  10.919   3.100 -0.0870  0.1749 -0.1816
 4399W        W20533   8.915  18.191   2.424  0.0340 -0.1711 -0.1575
 4400W        W20534   4.708   8.484  10.430 -0.1106 -0.0686 -0.0789
 4401W        W20535   7.625  10.156   3.967  0.0536  0.1434  0.0601
 4402W        W20536  15.951  17.068  14.336  0.0994  0.0153  0.1756
 4403W        W20537   3.775  10.176  13.926  0.0581 -0.2965  0.0026
 4404W        W20538  17.525   4.404   0.424  0.0623 -0.3036  0.3215
 4405W        W20539  16.074   4.130  10.944 -0.0989  0.0532 -0.1556
 4406W        W20540   3.828   0.684  14.417  0.2169 -0.1340 -0.0691
 4407W        W20541  14.135   6.647  12.812  0.2869  0.0215 -0.1518
 4408W        W20542  17.733   4.717   3.207 -0.0445 -0.2431  0.1179
 4409W        W20543  16.793  13.536   1.963 -0.0667 -0.0749 -0.1375
 4410W        W20544  10.970   3.378   0.364 -0.3747 -0.0193  0.1600
 4411W        W20545   1.098   3.359   3.232 -0.3201 -0.0744  0.1709
 4412W        W20546  11.468  17.796   5.334  0.1082  0.0614  0.4183
 4413W        W20547   6.616  17.249  13.086  0.1095 -0.0576 -0.0653
 4414W        W20548   6.581   1.373  14.007 -0.2315  0.3724  0.1122
 4415W        W20549  17.767   8.154   0.814 -0.3678 -0.0643 -0.3439
 4416W        W20550  15.001  14.035   5.135  0.4503  0.0164  0.4193
 4417W        W20551   5.871  15.028  15.369 -0.2159 -0.1320 -0.1700
 4418W        W20552  14.824   2.106   3.583 -0.1486  0.0896  0.0062
 4419W        W20553   3.006   6.204  11.864 -0.0276 -0.0588  0.2044
 4420W        W20554  11.137  10.090   4.181  0.0023  0.0533  0.0163
 4421W        W20555  15.246   0.692  14.960  0.1309  0.5541 -0.4037
 4422W        W20556   7.074  13.354   2.544 -0.1285 -0.0846 -0.0798
 4423W        W20557  12.567   9.587  14.851 -0.1742 -0.0660  0.2301
 4424W        W20558  15.469   9.938  12.071  0.0526  0.3085 -0.0971
 4425W        W20559  13.558  13.824   0.774 -0.2482 -0.0239  0.2704
 4426W        W20560  18.170  17.307  10.889  0.1134  0.2854 -0.2956
 4427W        W20561   7.385   2.271  15.573 -0.0156 -0.0993  0.0458
 4428W        W20562   2.312   4.257  15.910  0.1677  0.0824 -0.0525
 4429W        W20563  15.854   7.289  12.175 -0.2399  0.0622 -0.1477
 4430W        W20564  16.704   9.304  12.468  0.0777  0.0783 -0.0104
 4431W        W20565   1.102  13.748  12.669  0.2194 -0.1897  0.0549
 4432W        W20566   2.220  11.616  12.293  0.1478 -0.2661  0.0299
 4433W        W20567   3.985   3.165  11.977  0.0839 -0.1408 -0.3519
 4434W        W20568  13.127   3.567   0.898  0.0526  0.0220 -0.0454
 4435W        W20569   1.158  14.204  14.611 -0.1996  0.2295 -0.1462
 4436W        W20570   7.156  15.972  13.404  0.1770 -0.0987  0.1576
 4437W        W20571   6.118  10.013   5.964 -0.0133 -0.0963 -0.3450
 4438W        W20572  17.280   9.981  15.100  0.2207 -0.1286 -0.1514
 4439W        W20573  12.673   9.661  11.300 -0.0712 -0.1749 -0.3831
 4440W        W20574   7.470  15.179  15.478 -0.0312 -0.0163 -0.1746
 4441W        W20575   8.594  18.048  15.309 -0.2696  0.0395  0.1754
 4442W        W20576  14.046   2.978   5.052  0.1511  0.2031 -0.1356
 4443W        W20577  14.462   4.954  11.427 -0.2859  0.2423 -0.0420
 4444W        W20578   0.688  18.252  10.755 -0.2647  0.2801  0.0342
 4445W        W20579  17.956   1.455  12.631 -0.0827 -0.1892 -0.1150
 4446W        W20580  16.916   2.715   3.166 -0.0481 -0.4142 -0.1439
 4447W        W20581  15.024   6.066   1.019  0.1441  0.5892  0.2994
 4448W        W20582   1.387  14.641   1.672  0.1120  0.0015  0.1195
 4449W        W20583   4.422  15.271   3.842 -0.1634  0.0647 -0.1259
 4450W        W20584   2.110  14.617   0.898 -0.0506  0.4506 -0.0997
 4451W        W20585  10.251   5.396  15.626 -0.0678  0.0949  0.0375
 4452W        W20586   7.875  12.873  15.443 -0.2815  0.2274 -0.2798
 4453W        W20587   1.871   2.385   2.199  0.2010 -0.2934 -0.2469
 4454W        W20588   2.142   5.643  11.485  0.0905  0.0662 -0.2473
 4455W        W20589  13.442   1.295  15.730 -0.0522  0.1024  0.1562
 4456W        W20590  17.746   8.655  13.339 -0.1589 -0.1245 -0.0937
 4457W        W20591  13.832  11.261  12.682  0.0427  0.0475  0.1150
 4458W        W20592   6.552  18.207  11.711  0.1628 -0.3626  0.0538
 4459W        W20593  11.854   0.443   4.274  0.0077  0.3170  0.1540
 4460W        W20594   6.291   4.912  14.377  0.2075 -0.2410  0.2677
 4461W        W20595  15.106  12.161  14.370  0.2109 -0.1454 -0.2370
 4462W        W20596  15.579  17.813   4.760 -0.1177  0.2459  0.2140
 4463W        W20597   3.572  16.671  15.471 -0.0077  0.2931 -0.0206
 4464W        W20598   2.526   1.961   4.426  0.0320  0.0502 -0.2943
 4465W        W20599  13.437   0.952   1.174  0.1658  0.0071 -0.0032
 4466W        W20600   4.835   8.963   1.895 -0.1224 -0.1100 -0.2226
 4467W        W20601  16.856   6.979   0.929  0.0888  0.0118 -0.2924
 4468W        W20602   4.284   1.734   5.654 -0.1070 -0.1694 -0.0192
 4469W        W20603   9.736  12.407  16.026 -0.0266 -0.3898 -0.0400
 4470W        W20604   5.123  13.150  12.172  0.0060  0.2840 -0.2921
 4471W        W20605  12.241   7.169   2.241 -0.2025  0.1799  0.2774
 4472W        W20606  18.345  16.866   5.137 -0.0322  0.0025  0.1206
 4473W        W20607   5.993  10.690   2.828  0.0213 -0.0191  0.1102
 4474W        W20608   3.195  12.002   4.320 -0.0841  0.2656  0.3117
 4475W        W20609  11.442   5.722  13.772 -0.3084  0.2163  0.3000
 4476W        W20610  18.378  17.793  11.719 -0.1078 -0.3300 -0.0659
 4477W        W20611  13.615  17.480   1.825 -0.0873  0.3014 -0.0638
 4478W        W20612   0.915  15.561   9.626 -0.2968 -0.1560  0.1676
 4479W        W20613  16.048   0.079  14.343 -0.0142 -0.1713  0.0148
 4480W        W20614   5.164   1.081   0.599 -0.2387 -0.0737 -0.0534
 4481W        W20615  17.537  12.360   3.321  0.3963 -0.2495  0.0421
 4482W        W20616   1.878   3.694  10.100  0.1780 -0.2111 -0.0419
 4483W        W20617   5.195  17.706  12.402  0.1228  0.1803  0.0695
 4484W        W20618   6.266   1.257  11.973 -0.1162  0.0589 -0.2794
 4485W        W20619   9.297   7.579  15.617 -0.0020  0.2356 -0.0761
 4486W        W20620   2.329  16.161  11.467 -0.1646 -0.1301 -0.4976
 4487W        W20621   3.021  14.511  15.773 -0.2354  0.1040 -0.0132
 4488W        W20622   6.541  15.598  12.590 -0.0803 -0.1370 -0.2928
 4489W        W20623  15.965  17.706   2.910 -0.1749 -0.0870  0.3227
 4490W        W20624  16.539  12.770   3.166 -0.4424  0.0428 -0.0355
 4491W        W20625   1.267   6.332  13.949 -0.0268 -0.0276  0.3946
 4492W        W20626   4.231  14.984   2.048 -0.1989 -0.0304 -0.1114
 4493W        W20627  16.414  13.393  13.890  0.1792 -0.1764 -0.3329
 4494W        W20628   7.054  16.712   1.017 -0.1627 -0.2004 -0.0483
 4495W        W20629   5.430  15.271   5.859  0.3690  0.1495  0.2474
 4496W        W20630   2.570   0.478  11.699 -0.0205 -0.1991  0.2225
 4497W        W20631   9.919  13.164  15.321 -0.3581 -0.1356  0.1109
 4498W        W20632   1.383   6.940   3.271 -0.1099 -0.0597 -0.4264
 4499W        W20633   7.523   9.651   4.054  0.1025 -0.2863  0.2518
 4500W        W20634   9.412   7.925   3.214 -0.0326 -0.1265  0.0799
 4501W        W20635   2.315   7.554   2.018  0.0971  0.3998  0.1135
 4502W        W20636   2.962  14.236  14.585 -0.0678  0.3959  0.0900
 4503W        W20637   7.099   8.846  11.229  0.2683  0.1571  0.2366
 4504W        W20638  10.226   3.002   3.155 -0.0183  0.0933 -0.1525
 4505W        W20639   6.383  10.681  13.676 -0.2193 -0.0793 -0.0718
 4506W        W20640  11.426   3.524  12.026  0.2767 -0.0743  0.0290
 4507W        W20641   5.482   9.723   3.716  0.1697  0.0241 -0.2791
 4508W        W20642   2.441   0.465   1.638 -0.0451 -0.1250  0.1992
 4509W        W20643   9.988   1.906   5.325  0.2428 -0.1979 -0.2136
 4510W        W20644  14.443  11.503   1.152 -0.1038  0.0773 -0.2222
 4511W        W20645   0.595   6.943  11.913  0.0372 -0.1093 -0.0376
 4512W        W20646   6.923   5.804  14.260  0.0240  0.0876  0.0931
 4513W        W20647  11.036   9.978  13.294 -0.0805  0.2388 -0.0070
 4514W        W20648  12.727  10.140  13.144  0.0082  0.2878  0.0027
 4515W        W20649   6.973  18.399  11.461  0.3731 -0.2293  0.1021
 4516W        W20650   2.001  15.791   4.691  0.3275  0.1670  0.1373
 4517W        W20651  10.495   5.058   2.906 -0.2274 -0.1904 -0.1858
 4518W        W20652   8.288  12.095  11.266  0.0472  0.0077  0.1865
 4519W        W20653  18.497  11.213   0.671 -0.0717  0.0647 -0.2645
 4520W        W20654  14.995   8.195  12.944  0.0402 -0.2301 -0.0694
 4521W        W20655   3.495  14.283   4.189  0.2701  0.0286  0.2568
 4522W        W20656   1.808  12.739   0.383 -0.0892 -0.0720 -0.0254
 4523W        W20657  16.574   9.193   2.574 -0.1577 -0.1138  0.0460
 4524W        W20658   3.346   0.219   2.515  0.0990 -0.1073 -0.2133
 4525W        W20659  17.828   7.724  16.089  0.1766  0.1407 -0.2403
 4526W        W20660   7.099  13.387   3.812 -0.3871  0.2364 -0.0595
 4527W        W20661   2.976   5.033   0.509 -0.0195  0.2421  0.0630
 4528W        W20662   9.876  15.351  15.875  0.1897 -0.0215  0.1049
 4529W        W20663  10.798  14.120   0.238  0.2282  0.0725  0.0290
 4530W        W20664   3.661   4.900   3.059 -0.4676 -0.1444 -0.1091
 4531W        W20665   7.317   8.746   2.047 -0.1685 -0.0713  0.0497
 4532W        W20666   6.531   9.878  14.574 -0.0075  0.0887 -0.0030
 4533W        W20667   8.827   6.877  16.080  0.2641  0.0204 -0.2191
 4534W        W20668  14.391  11.778   1.620  0.0396 -0.2211  0.0656
 4535W        W20669   3.459  15.961  16.053  0.1822  0.1227 -0.2143
 4536W        W20670   5.441   0.222   3.477 -0.1261  0.1923 -0.2346
 4537W        W20671  16.610   1.185   5.116 -0.2477  0.0523 -0.2084
 4538W        W20672   8.257   9.338   2.477 -0.1520 -0.1948  0.1396
 4539W        W20673  14.646  13.381   0.144 -0.1759  0.0504  0.2310
 4540W        W20674  12.246   0.005  15.665 -0.1887  0.3193  0.0479
 4541W        W20675   6.666   4.019  11.769  0.0151 -0.2238 -0.2266
 4542W        W20676   8.861   2.108   5.110  0.0243 -0.1458 -0.2659
 4543W        W20677   0.776   8.034   0.619  0.0381 -0.4437 -0.1334
 4544W        W20678  18.057  17.071   3.305 -0.1927 -0.1949  0.1111
 4545W        W20679   8.348   8.619  15.580 -0.2027  0.1636  0.1248
 4546W        W20680   4.925   9.827  11.723  0.2091 -0.0238  0.0472
 4547W        W20681   3.282  10.274   9.347  0.1232 -0.0135 -0.0182
 4548W        W20682  10.517   3.556   4.008 -0.0487  0.0816 -0.1309
 4549W        W20683   3.539  18.359  13.844  0.1478 -0.1682 -0.0204
 4550W        W20684   1.671  14.866  14.110  0.2384  0.2560  0.0612
 4551W        W20685   3.295   9.337  15.747  0.0266 -0.2881  0.0647
 4552W        W20686  15.598  17.465  11.764 -0.5131  0.1355 -0.2005
 4553W        W20687   0.931  15.053  12.345 -0.1592 -0.0469  0.0686
 4554W        W20688   4.855  13.319   2.988  0.0056 -0.0549  0.1144
 4555W        W20689  10.319   9.223  13.341  0.3381  0.0005  0.1251
 4556W        W20690  16.099  14.787  11.573 -0.0164 -0.0954  0.1083
 4557W        W20691  11.050  12.300  12.850 -0.1880 -0.2691 -0.0441
 4558W        W20692   0.144  13.663   2.348 -0.1046 -0.0360  0.2124
 4559W        W20693  12.388  15.695   2.138 -0.2417 -0.4148 -0.1462
 4560W        W20694   0.642  17.411  14.707 -0.0639  0.1030 -0.0860
 4561W        W20695  11.888  17.843   3.523  0.0143 -0.2280  0.2191
 4562W        W20696  14.147   9.781   2.399 -0.1207 -0.0371 -0.0051
 4563W        W20697   5.372  12.616  14.329 -0.1002 -0.0518 -0.0838
 4564W        W20698  14.418  12.813  14.123 -0.0436 -0.0453 -0.1640
 4565W        W20699   2.959   9.884   2.616  0.0667  0.1103  0.2626
 4566W        W20700  10.483   9.133   1.960  0.0214 -0.2902  0.0119
 4567W        W20701  12.004   9.031  15.841 -0.0453  0.4258 -0.0048
 4568W        W20702  15.524  16.158  11.835 -0.2236  0.1708  0.1992
 4569W        W20703  14.800  13.496   4.611 -0.1070  0.0179  0.1424
 4570W        W20704   2.159  18.344  14.462  0.1477 -0.2486 -0.0208
 4571W        W20705   6.068   1.998   1.564  0.1111  0.0295 -0.4135
 4572W        W20706   0.534  10.666   0.118  0.1939  0.1758  0.2240
 4573W        W20707   7.221   2.618   2.365  0.0998  0.0004 -0.1001
 4574W        W20708  15.255  12.082   1.245  0.0845  0.2083  0.2573
 4575W        W20709  16.902  16.053   0.753  0.1512  0.1345  0.5472
 4576W        W20710   1.349   8.018  15.993  0.1008  0.0543 -0.1650
 4577W        W20711   3.465  14.321   2.305 -0.0240 -0.1893  0.2708
 4578W        W20712   1.387  15.026   2.014  0.1550  0.3137  0.1210
 4579W        W20713  17.309   1.578   3.856 -0.3735  0.0434 -0.0613
 4580W        W20714  18.136   8.297   1.721  0.1683  0.3051  0.1793
 4581W        W20715   7.858  16.420  16.065  0.0282  0.0050  0.2116
 4582W        W20716   9.300   5.838   3.643 -0.1881 -0.0466 -0.1439
 4583W        W20717   6.780  15.236   4.739  0.0371  0.0033 -0.2366
 4584W        W20718  16.606  15.507  11.991 -0.1330 -0.0072  0.0438
 4585W        W20719   5.465   3.468   3.357  0.0330 -0.1997 -0.1725
 4586W        W20720   3.037   1.571  13.720 -0.0857  0.2440  0.4354
 4587W        W20721   0.742  18.043   1.952 -0.1152  0.0030  0.2834
 4588W        W20722   2.178  17.463   2.475  0.0661 -0.2698  0.1276
 4589W        W20723  16.952   7.770  15.381 -0.2919  0.4302 -0.1174
 4590W        W20724  11.566   4.025   2.402 -0.0447  0.0249  0.0960
 4591W        W20725  16.004  17.268   2.063  0.3873  0.0236 -0.0027
 4592W        W20726  16.426  14.408   2.562 -0.0621  0.1869  0.1601
 4593W        W20727   5.149  14.127  13.557 -0.1140 -0.1507 -0.2944
 4594W        W20728   6.090  16.461   3.180  0.1510 -0.2729 -0.0256
 4595W        W20729  12.967  11.507   1.699 -0.0382 -0.0031  0.3573
 4596W        W20730  17.165  17.338  15.132 -0.1655  0.2219 -0.3695
 4597W        W20731  16.367   9.549   1.136 -0.1408  0.0054  0.0075
 4598W        W20732   0.030  14.841  13.277  0.1370  0.3206 -0.0892
 4599W        W20733  14.552  12.234  13.363 -0.0927  0.3043 -0.0633
 4600W        W20734   7.917   2.983  13.118 -0.1871 -0.1924 -0.1293
 4601W        W20735  16.936   2.370   4.211  0.1504  0.0190 -0.0661
 4602W        W20736  12.677  14.729  11.732 -0.2305 -0.1485 -0.0929
 4603W        W20737   2.525  12.777  11.091 -0.4094  0.0529 -0.0848
 4604W        W20738   1.999  17.929   5.230  0.2461  0.3989  0.3892
 4605W        W20739  10.456   7.170  13.352 -0.2390 -0.0341 -0.1176
 4606W        W20740  17.289  15.403  13.889  0.0445  0.0365  0.2139
 4607W        W20741  12.410  15.137  11.558 -0.2483 -0.1778  0.2907
 4608W        W20742  17.252  12.445   1.754 -0.4747 -0.0234 -0.1689
 4609W        W20743  18.496   5.929   4.283 -0.2741 -0.1983 -0.0789
 4610W        W20744   1.796   5.695  10.991 -0.1495 -0.0093 -0.0473
 4611W        W20745   9.535  13.487   6.453 -0.2534  0.0891 -0.0014
 4612W        W20746   3.735  16.246   2.643 -0.2861  0.1391 -0.0380
 4613W        W20747   7.902  17.793  16.047  0.2596  0.0537  0.1856
 4614W        W20748  11.144  12.825  14.959 -0.0369  0.5264 -0.0903
 4615W        W20749  14.728   5.617  13.439 -0.1712  0.0798  0.0251
 4616W        W20750   4.851  14.592  13.801  0.0049  0.3176 -0.2306
 4617W        W20751   9.759   0.404   1.617  0.0378 -0.2718 -0.1444
 4618W        W20752   8.827  17.705   5.500  0.2002  0.1889  0.0118
 4619W        W20753  14.538   5.291  16.078  0.0025  0.3111  0.2155
 4620W        W20754  15.345   2.301   2.611  0.2269 -0.2454 -0.1019
 4621W        W20755  12.894   6.551  11.829 -0.5013  0.2157 -0.1403
 4622W        W20756   0.308   4.723  11.316  0.0218 -0.0582  0.1902
 4623W        W20757  12.748  17.831   0.565  0.0786  0.0340  0.3612
 4624W        W20758  17.355   6.851  15.722  0.1167 -0.0945 -0.2590
 4625W        W20759   7.578  10.908  11.946 -0.2841  0.1010 -0.0959
 4626W        W20760   4.444   0.255   2.322  0.0200  0.2735  0.3389
 4627W        W20761   4.249   4.324  12.592 -0.2414 -0.0225  0.1773
 4628W        W20762  16.736  10.252  12.570 -0.0657  0.0458 -0.0061
 4629W        W20763  16.097  17.799  14.926 -0.0935 -0.1441  0.1901
 4630W        W20764   0.090   4.358  15.780  0.0303 -0.3324 -0.0603
 4631W        W20765  14.717  10.938   5.206  0.4024  0.2667 -0.3410
 4632W        W20766  14.287  12.365   3.240  0.0169  0.1367 -0.0848
 4633W        W20767  11.283   2.190   6.332 -0.0095  0.1058  0.2705
 4634W        W20768  10.464   6.747   4.754  0.1443 -0.0717 -0.1777
 4635W        W20769  13.673   3.068  13.433  0.0381  0.1364  0.1133
 4636W        W20770  13.138   2.680  11.461  0.1057  0.3502 -0.1182
 4637W        W20771   3.143   7.735  11.056 -0.2655  0.0224  0.3973
 4638W        W20772  15.023   6.430   0.574  0.1114 -0.3035  0.2721
 4639W        W20773   7.501   3.586   3.542 -0.3854 -0.2317  0.2405
 4640W        W20774   4.753  11.029  15.078 -0.1056 -0.0612  0.2028
 4641W        W20775  11.592   6.629  12.803 -0.1991 -0.2125 -0.0138
 4642W        W20776  14.364   1.999   0.913  0.2224 -0.2679  0.1279
 4643W        W20777  13.173  12.122   1.217 -0.0209  0.0363  0.1136
 4644W        W20778   0.809  12.680  15.695 -0.1359  0.4592  0.1048
 4645W        W20779  15.820  17.810  12.075 -0.1650 -0.1167 -0.0053
 4646W        W20780  16.466  14.145  11.127 -0.2289  0.0908  0.1347
 4647W        W20781   5.838  15.630   0.388  0.4332 -0.0046  0.1532
 4648W        W20782  13.945   1.454   6.001 -0.1450  0.2243 -0.1212
 4649W        W20783   8.725   1.740  13.395  0.1117 -0.1946  0.1802
 4650W        W20784   6.993   9.427  11.385  0.3138 -0.1108 -0.0513
 4651W        W20785  13.424   2.294   5.129 -0.2399 -0.1104 -0.0008
 4652W        W20786   4.906  14.779   3.175  0.0771 -0.0541  0.0967
 4653W        W20787  11.696  18.054   1.512 -0.1815 -0.5069  0.1372
 4654W        W20788   0.199   9.021  12.833 -0.0399 -0.0906 -0.1391
 4655W        W20789   2.259  12.356   3.359  0.0297 -0.2761  0.1254
 4656W        W20790  17.948   0.841   1.500 -0.0392 -0.0998 -0.1089
 4657W        W20791   5.473  12.669   5.493 -0.2147  0.0604 -0.0090
 4658W        W20792  12.010  17.236  13.930 -0.2599 -0.4776  0.1172
 4659W        W20793   2.166  11.048   3.864 -0.1291 -0.3343 -0.0368
 4660W        W20794  15.344  14.650   3.373  0.0539  0.2076  0.0390
 4661W        W20795  14.967   5.460  15.870 -0.0238  0.0280  0.0002
 4662W        W20796   9.228  17.976  14.420  0.2976 -0.0552 -0.2687
 4663W        W20797   7.996  11.700  12.769  0.0927 -0.0374 -0.1885
 4664W        W20798   6.177  11.356  12.604 -0.0997 -0.0204  0.1685
 4665W        W20799   7.079  14.845   0.505  0.0787 -0.0507  0.1096
 4666W        W20800   4.426  17.315   4.064 -0.3055 -0.1784  0.1764
 4667W        W20801  10.048  12.996   4.577 -0.1429  0.2140  0.1875
 4668W        W20802   7.421  11.749   3.236  0.0671 -0.2113  0.1959
 4669W        W20803  15.143   7.935  12.081  0.1464 -0.1018  0.0052
 4670W        W20804   8.657   0.926   5.623  0.0905  0.2311  0.0115
 4671W        W20805  16.307  14.344  14.871  0.1456 -0.1936  0.0114
 4672W        W20806   2.005   1.458   0.426  0.0619  0.1618 -0.1961
 4673W        W20807  11.264   0.680   3.144  0.3026  0.0471 -0.2030
 4674W        W20808  13.496   2.598  11.008 -0.2064  0.2838  0.3295
 4675W        W20809   4.990  13.931  11.679  0.3867 -0.1135 -0.1404
 4676W        W20810   5.805   6.005  11.076 -0.0190 -0.2237 -0.0448
 4677W        W20811  15.850   8.422  15.910 -0.0779 -0.0016 -0.2908
 4678W        W20812   7.642   1.819   1.585 -0.1945  0.1751 -0.1465
 4679W        W20813  12.949   5.588   3.491  0.0615 -0.3944  0.0847
 4680W        W20814  15.878   5.849   9.811  0.0975  0.4916 -0.1141
 4681W        W20815   5.108  17.720   3.814  0.0605 -0.1090 -0.1786
 4682W        W20816   2.620   7.665   3.299  0.1523  0.2171 -0.2957
 4683W        W20817   0.051   2.164  11.320  0.0044  0.1460 -0.1378
 4684W        W20818   6.020   6.101   3.923  0.0444  0.0387  0.2899
 4685W        W20819   3.124  11.717   3.708  0.1333 -0.0503 -0.2282
 4686W        W20820   7.521  12.038   0.843  0.0960 -0.1757 -0.2307
 4687W        W20821  17.934  16.123  13.617 -0.2697 -0.2237 -0.1574
 4688W        W20822  15.298   2.213   1.072  0.2156 -0.1082 -0.1094
 4689W        W20823   2.190   6.154  14.688 -0.0751  0.0852  0.2245
 4690W        W20824   8.894  17.339   1.006 -0.0140  0.1612  0.1490
 4691W        W20825   2.411  17.854   4.902 -0.2217  0.1125 -0.0555
 4692W        W20826   7.535   0.352   4.874 -0.2747 -0.1954  0.0716
 4693W        W20827  11.141   0.189  15.095 -0.1895  0.0845 -0.2109
 4694W        W20828   7.868  15.195  12.316  0.0010 -0.0141 -0.3121
 4695W        W20829  17.773  11.879  11.717 -0.3339 -0.1217  0.0710
 4696W        W20830   3.567   9.685  13.075  0.1079  0.1685 -0.1783
 4697W        W20831  18.420  11.088   2.673  0.0400  0.2181  0.3059
 4698W        W20832  10.994  10.443  12.309  0.1413 -0.0306  0.0232
 4699W        W20833   0.616   2.814   1.159 -0.1186  0.3209 -0.1182
 4700W        W20834  10.754  17.442  15.758 -0.3479 -0.0373  0.0017
 4701W        W20835   9.806  16.452  12.366  0.0946  0.0764 -0.1311
 4702W        W20836  13.849  17.483  15.894 -0.0236  0.2846 -0.0783
 4703W        W20837  12.186   8.073  15.791  0.0683 -0.0971 -0.0825
 4704W        W20838  11.172   1.408   4.740  0.2812 -0.1046 -0.0354
 4705W        W20839  14.878   4.669   3.542 -0.2388  0.0269  0.1076
 4706W        W20840   0.720  12.929   4.961  0.2835 -0.3500  0.1915
 4707W        W20841  11.301  15.457  15.746  0.1418  0.0868 -0.0564
 4708W        W20842  16.165  18.290  11.267  0.3118  0.1284  0.3231
 4709W        W20843   7.416   1.356  12.856  0.2996 -0.0425  0.1456
 4710W        W20844  11.690  13.993   1.130 -0.1204 -0.2026 -0.0026
 4711W        W20845   1.506   8.966  13.984 -0.0504  0.2653 -0.4035
 4712W        W20846   7.528   1.010  14.733 -0.2103  0.1449 -0.0700
 4713W        W20847   5.481  11.031   5.401 -0.1115 -0.2327 -0.3127
 4714W        W20848   4.575  15.398  10.971  0.2905 -0.0453 -0.1994
 4715W        W20849   6.450  14.097   2.258  0.2217  0.1492 -0.0393
 4716W        W20850  16.424   2.510   1.732  0.0439  0.1501  0.3569
 4717W        W20851  16.458   7.756  15.550 -0.0821 -0.0796  0.2447
 4718W        W20852  14.930   1.652   0.457  0.1978  0.3515  0.2729
 4719W        W20853   9.162   3.408   0.483  0.1723  0.0163 -0.1477
 4720W        W20854  11.407  10.260   1.290  0.1036 -0.0150  0.1360
 4721W        W20855   9.677  15.476  12.835 -0.2470  0.1038  0.1108
 4722W        W20856  10.323   7.701   2.206 -0.2998 -0.1038 -0.0018
 4723W        W20857   8.625   9.694  12.691  0.1303  0.2037  0.2178
 4724W        W20858   9.185  12.913  14.706 -0.1750  0.0267 -0.5117
 4725W        W20859  17.045   5.432   2.443  0.0948 -0.2303  0.2358
 4726W        W20860   2.384  14.908   0.435  0.1963  0.2203  0.0845
 4727W        W20861   5.511  10.333  10.052 -0.0052 -0.0388  0.0349
 4728W        W20862  13.822   0.243  11.394 -0.2294 -0.1172  0.3196
 4729W        W20863  12.518  16.808   2.419  0.1099  0.0319 -0.1434
 4730W        W20864  13.672   5.544  11.690 -0.0843  0.1301 -0.0051
 4731W        W20865   1.503  16.901  13.045  0.1568 -0.1896 -0.2089
 4732W        W20866   6.089   6.443   4.422  0.0457 -0.0583 -0.1986
 4733W        W20867  12.406   6.156   0.697 -0.0808 -0.0295 -0.0468
 4734W        W20868  15.404  11.462   3.412  0.1766  0.3243 -0.0953
 4735W        W20869   6.839   0.939  14.142  0.0642 -0.0480  0.3275
 4736W        W20870   8.855   6.861  13.980 -0.0868  0.1111 -0.1114
 4737W        W20871  12.194   8.483   4.850  0.2754 -0.2463 -0.0680
 4738W        W20872  14.507   0.918  14.086 -0.1183 -0.3002 -0.0797
 4739W        W20873   8.235   6.829   6.083  0.1612 -0.1279  0.1414
 4740W        W20874  15.063  17.028  14.289  0.2336  0.1209 -0.1429
 4741W        W20875  10.549  16.732   2.716 -0.3270  0.1686  0.3105
 4742W        W20876   0.921  10.308   0.003  0.1033  0.2561 -0.0057
 4743W        W20877  17.589   3.488   2.368 -0.2861 -0.2070 -0.3387
 4744W        W20878  15.304   3.071   3.767 -0.1118 -0.1054  0.0827
 4745W        W20879   4.532   2.750   0.687  0.1055 -0.1009 -0.2765
 4746W        W20880  11.314  12.796  15.415 -0.0709  0.2294 -0.1730
 4747W        W20881  16.878  12.128  12.869 -0.1051 -0.2159 -0.3363
 4748W        W20882  17.147   5.867  15.154  0.1277  0.1619 -0.0261
 4749W        W20883  16.273   7.598  12.062  0.0834  0.0174  0.1648
 4750W        W20884  12.438   3.493   4.059 -0.0028 -0.1230  0.2650
 4751W        W20885   5.115   2.257   1.503  0.0399  0.0458  0.2663
 4752W        W20886   4.897   4.122   5.536 -0.1155 -0.1673  0.3170
 4753W        W20887   4.399  13.750   2.119  0.0248 -0.0776  0.0891
 4754W        W20888   8.177   3.213  14.517 -0.0897 -0.0938  0.0662
 4755W        W20889   4.892  18.176  15.454  0.4752 -0.3120  0.1341
 4756W        W20890  18.504   7.850  12.018 -0.1151  0.0430 -0.0868
 4757W        W20891   3.203   2.177  12.556 -0.0811 -0.0428 -0.0451
 4758W        W20892   4.901  16.090  13.837 -0.3683  0.1190 -0.1248
 4759W        W20893   9.892   9.988   1.851  0.0552  0.0232 -0.4832
 4760W        W20894  16.245  15.600  11.590  0.1066  0.0743 -0.1421
 4761W        W20895  15.236  16.154   3.275  0.0524 -0.1758  0.2855
 4762W        W20896   8.956  16.313  15.897  0.0264 -0.3452  0.2842
 4763W        W20897  18.427  11.433  13.460  0.0295 -0.1106  0.2860
 4764W        W20898  17.817  12.525   2.496 -0.3515 -0.2341 -0.0544
 4765W        W20899  16.372   0.117  15.370  0.1368  0.1619 -0.0568
 4766W        W20900  15.879  10.564   2.423 -0.0121  0.0808 -0.0990
 4767W        W20901   6.830  10.511  15.516 -0.3115 -0.1092 -0.2181
 4768W        W20902  10.442  13.852  13.160 -0.3286  0.0627 -0.2920
 4769W        W20903  11.422  12.007   1.132  0.0125  0.2910 -0.1239
 4770W        W20904  16.613  14.841  11.620 -0.0226 -0.4228  0.1394
 4771W        W20905   2.962   4.254   2.404  0.0562  0.1397 -0.0776
 4772W        W20906   0.956   3.318  14.027  0.1799 -0.0426 -0.1540
 4773W        W20907  12.277   7.629   5.570 -0.0224  0.2707  0.1041
 4774W        W20908   3.513   1.913  14.681  0.0254  0.1812 -0.1115
 4775W        W20909   1.539   8.901  10.141 -0.2381 -0.2177 -0.0486
 4776W        W20910   7.610   7.773  13.734  0.1571 -0.0791  0.0591
 4777W        W20911   7.217  12.743  15.141 -0.1535  0.1178  0.3153
 4778W        W20912   3.221  10.056   3.399  0.0331  0.3163 -0.1592
 4779W        W20913  14.973  12.581  14.255  0.0619 -0.0974  0.1944
 4780W        W20914   2.024  10.096  14.898 -0.1316  0.0281  0.3572
 4781W        W20915   3.098   8.641  15.111 -0.2334  0.1375  0.4022
 4782W        W20916   9.974  16.716  14.708  0.1727 -0.0550  0.0420
 4783W        W20917   7.952  11.254   3.054 -0.3128 -0.0533 -0.2405
 4784W        W20918  13.096   3.651  13.934 -0.1517 -0.0861  0.1801
 4785W        W20919   4.001   7.988  15.097 -0.0835 -0.3658 -0.2085
 4786W        W20920  12.634  16.452  14.320  0.0298 -0.2656 -0.2989
 4787W        W20921   6.675   1.390  11.575  0.1050 -0.1341  0.4110
 4788W        W20922  15.945  17.732  11.468 -0.0532  0.2682 -0.1322
 4789W        W20923   2.908  11.273   3.495 -0.1125  0.2055 -0.1721
 4790W        W20924   8.555  17.482   3.042  0.2372  0.0780  0.0839
 4791W        W20925  15.282   1.021   3.739  0.2389  0.0431  0.0028
 4792W        W20926   7.748   9.838   1.289  0.0272  0.3041  0.0832
 4793W        W20927  10.344   5.889  15.062 -0.1524 -0.1304 -0.0773
 4794W        W20928  10.715   5.397   1.563 -0.2156 -0.0483 -0.2162
 4795W        W20929  10.934   4.382   4.855 -0.1794  0.1415  0.2200
 4796W        W20930   9.462  15.255   0.393  0.2162 -0.0876  0.0276
 4797W        W20931   0.369   0.321   1.412  0.2491  0.0394  0.0418
 4798W        W20932   7.572   5.538   4.267 -0.2490 -0.0244  0.1088
 4799W        W20933  18.173  15.302  14.145  0.0719 -0.0303  0.2530
 4800W        W20934   1.203  14.328   2.558  0.3126  0.0899  0.0376
 4801W        W20935   0.207   3.247   6.000  0.0302  0.0858 -0.1337
 4802W        W20936  17.599   6.667   4.480 -0.0411  0.1492 -0.0919
 4803W        W20937   8.477  11.265   3.756  0.0752 -0.4217 -0.1360
 4804W        W20938   3.000  16.384   3.745  0.0074  0.0207 -0.0110
 4805W        W20939  13.730  16.696  11.751 -0.0321 -0.1540 -0.2485
 4806W        W20940   9.064  10.265  15.098  0.1253 -0.0007  0.0373
 4807W        W20941   4.877  12.902  10.308  0.0002 -0.2986  0.2981
 4808W        W20942   8.424  14.516   5.366 -0.1404  0.0864 -0.1070
 4809W        W20943   7.520   8.669  12.517 -0.3040 -0.1577 -0.2361
 4810W        W20944  10.442   9.054  12.456  0.0621  0.0805 -0.0528
 4811W        W20945   5.416   8.313  15.769 -0.1429 -0.1460  0.0870
 4812W        W20946  17.729  15.274  11.307  0.7153 -0.0522 -0.3087
 4813W        W20947   4.311   4.060   3.767  0.1410  0.1787  0.0660
 4814W        W20948  15.318  17.841  11.175 -0.0419  0.2192  0.1003
 4815W        W20949   5.592   6.657   0.614  0.1426 -0.3579 -0.0107
 4816W        W20950   6.099   4.026   3.798  0.1788 -0.0298  0.0354
 4817W        W20951   7.462   9.625  13.204 -0.1149  0.1394  0.3903
 4818W        W20952  16.676   5.248   0.955  0.0226 -0.0688 -0.1557
 4819W        W20953   1.691  16.946   2.031  0.0101 -0.1671  0.1357
 4820W        W20954  10.575  10.165  14.379  0.2554  0.3183  0.0834
 4821W        W20955   5.213   0.125  15.465  0.0256 -0.3172 -0.1455
 4822W        W20956  16.545   2.247   3.809 -0.1897  0.3164 -0.1682
 4823W        W20957   1.525  10.644  11.397  0.0004 -0.0868 -0.1245
 4824W        W20958   3.837  13.644  15.448 -0.0865  0.1499 -0.1326
 4825W        W20959   7.666   8.949   2.283 -0.0668  0.3134 -0.2542
 4826W        W20960   9.421   6.492  12.040  0.0712  0.2640  0.0244
 4827W        W20961  18.013  10.261   5.229  0.0457  0.0293  0.0649
 4828W        W20962   5.859  14.246  14.861  0.1957  0.0658  0.1068
 4829W        W20963  10.163  17.435   3.879  0.1283 -0.0079 -0.1074
 4830W        W20964   6.594   8.327   1.169  0.0929 -0.2031  0.3485
 4831W        W20965   1.693   4.271   3.751 -0.0179 -0.0979  0.2025
 4832W        W20966   7.401   6.082  12.464 -0.0772 -0.1919 -0.1319
 4833W        W20967   0.962   7.737  14.524  0.0054 -0.3042 -0.0181
 4834W        W20968  15.491  15.313  14.364  0.1554 -0.0709 -0.3873
 4835W        W20969  12.916  11.588   4.473 -0.0085 -0.0313 -0.0982
 4836W        W20970   8.659   2.093  13.797  0.0594  0.2582  0.1971
 4837W        W20971   3.486   3.379   1.340  0.1507  0.1025 -0.1711
 4838W        W20972  14.323   6.859   5.750  0.4193 -0.2485  0.1526
 4839W        W20973  10.930   6.521  14.435  0.0095  0.0062  0.3664
 4840W        W20974  14.509   9.065  11.357  0.0615  0.1194 -0.2145
 4841W        W20975   1.332   7.547  11.862  0.2367 -0.1117 -0.0885
 4842W        W20976  11.941  10.077  13.489 -0.0325 -0.0017  0.0946
 4843W        W20977   5.608  15.965  14.385 -0.1923 -0.1465 -0.0826
 4844W        W20978  11.405   3.869   4.049 -0.0491  0.0856 -0.0221
 4845W        W20979   4.807   4.923   2.036 -0.3950 -0.1209  0.2428
 4846W        W20980   4.001  12.110   4.071  0.4781 -0.1581 -0.0227
 4847W        W20981  12.269  17.580   1.984 -0.1097 -0.2148 -0.3383
 4848W        W20982   3.888  17.016  15.644  0.1900  0.2289 -0.3565
 4849W        W20983  13.072   3.677  15.515 -0.0224 -0.2304  0.0843
 4850W        W20984  13.560   5.344  15.057 -0.3041  0.0191 -0.2656
 4851W        W20985   2.709   6.510   2.873  0.2276  0.0528  0.1435
 4852W        W20986  17.279  16.991  11.279  0.0802  0.0374 -0.1436
 4853W        W20987  14.134   7.665  14.322  0.1475  0.1413 -0.1032
 4854W        W20988   9.124  13.403   4.493  0.0613  0.0527 -0.0971
 4855W        W20989   9.167  13.480   0.201  0.1255 -0.0224  0.2032
 4856W        W20990   3.022  14.748  14.671  0.0821 -0.1240 -0.1035
 4857W        W20991  12.935   6.322   0.921  0.5163 -0.4339  0.1275
 4858W        W20992   1.366   5.030  11.259 -0.0356  0.2089  0.0256
 4859W        W20993  11.522  15.033   0.305  0.3555 -0.0427  0.3090
 4860W        W20994  15.351   2.973  12.026 -0.1525 -0.2753 -0.2903
 4861W        W20995   4.635  10.491   0.168  0.0435 -0.1023 -0.1384
 4862W        W20996  17.112   1.942  10.226 -0.1644 -0.1436 -0.0629
 4863W        W20997   2.974  15.969   4.059 -0.3056 -0.4024 -0.0992
 4864W        W20998   3.687   0.510   4.364 -0.0267  0.0912  0.1176
 4865W        W20999  16.122   2.351   2.991 -0.3288  0.2923 -0.0385
 4866W        W21000   6.591   7.831   3.469 -0.0194  0.3241 -0.1244
 4867W        W21001  17.246   6.414   3.368 -0.1865  0.0781 -0.0294
 4868W        W21002   4.035  12.630   0.658  0.0473  0.1373 -0.0375
 4869W        W21003   9.029  11.268   4.046 -0.1443 -0.0248 -0.1506
 4870W        W21004  13.163   7.335  14.705 -0.1838  0.1411 -0.2380
 4871W        W21005   7.513   2.984  11.202 -0.1690  0.0482 -0.0961
 4872W        W21006   9.403   6.219   1.122  0.1705 -0.0918  0.1773
 4873W        W21007   4.223  13.252   2.222  0.0592  0.0496 -0.1586
 4874W        W21008   2.940   0.964   0.861 -0.0125  0.4069 -0.3760
 4875W        W21009  15.609   5.640   0.551 -0.3192  0.0922 -0.3508
 4876W        W21010   7.441   1.544   0.653  0.2499 -0.0770  0.0718
 4877W        W21011  12.449  11.768  13.812  0.1289 -0.0986  0.0416
 4878W        W21012  10.789  17.777  15.358  0.0181  0.1142 -0.1685
 4879W        W21013   6.229   5.271   2.677 -0.0698 -0.2172  0.2972
 4880W        W21014   1.681  12.431   5.005 -0.0679  0.1782  0.2817
 4881W        W21015   6.950  15.373  13.298 -0.1392  0.1925 -0.0374
 4882W        W21016  11.331  16.583   1.745  0.2680  0.0697  0.1045
 4883W        W21017  17.245  15.539   2.116  0.1150 -0.0517 -0.1064
 4884W        W21018  17.844   2.413  10.567 -0.3703 -0.1063  0.1240
 4885W        W21019  14.561   4.827   3.225  0.2678 -0.0037  0.2740
 4886W        W21020  15.792   4.369   4.140  0.2131 -0.2834 -0.4254
 4887W        W21021  13.305  16.636  13.351 -0.0929  0.1150 -0.0157
 4888W        W21022   1.573  15.845   1.286  0.0732  0.3877  0.3271
 4889W        W21023  15.336  10.804  14.179 -0.0917 -0.2681  0.2597
 4890W        W21024  15.227   2.960   3.230  0.3439 -0.0893  0.2537
 4891W        W21025  13.157  17.675  12.093  0.3784  0.0146 -0.3443
 4892W        W21026   9.976   9.732  13.109  0.0075 -0.0804 -0.1142
 4893W        W21027   7.970   9.901   4.205  0.3860 -0.1546 -0.3972
 4894W        W21028  18.362  17.325   1.858  0.0777  0.2340 -0.1634
 4895W        W21029   1.843  13.284   1.091 -0.2076  0.0021 -0.2500
 4896W        W21030   2.008  11.503  12.762 -0.2139 -0.2232 -0.1314
 4897W        W21031   4.874  10.117  13.595 -0.0403  0.0899 -0.0663
 4898W        W21032   6.226  14.189   3.154  0.2275  0.1130  0.0572
 4899W        W21033  14.945   7.927   2.039  0.0197  0.1230 -0.0318
 4900W        W21034  17.481   9.742  13.282 -0.0759 -0.1448 -0.3885
 4901W        W21035   9.300   6.273   1.650  0.3149 -0.1295  0.0570
 4902W        W21036  14.744  13.175   5.024  0.2688 -0.0504 -0.3546
 4903W        W21037  15.800  15.381   3.375 -0.3664 -0.2727 -0.1947
 4904W        W21038   6.921  13.023   0.873 -0.2552 -0.0821  0.2496
 4905W        W21039   5.418   8.034  11.128  0.0444 -0.0617  0.0094
 4906W        W21040  16.648   5.655  12.886 -0.4003 -0.0762  0.0146
 4907W        W21041  10.745   7.281  16.007  0.1138 -0.1265 -0.0386
 4908W        W21042   1.798  12.768   2.219  0.0068  0.0356  0.0577
 4909W        W21043  16.854  16.336   4.106 -0.0199 -0.4230  0.0759
 4910W        W21044   4.931   0.546   4.102 -0.0847  0.2434  0.0955
 4911W        W21045   5.858  15.867  13.878 -0.0522  0.1388  0.1558
 4912W        W21046  17.124  12.108   4.397 -0.2147 -0.0666 -0.1574
 4913W        W21047   3.298   4.014  15.806 -0.1760 -0.0742  0.2803
 4914W        W21048  11.868   6.369   5.549  0.1079  0.0461  0.3281
 4915W        W21049   1.846   4.909  13.516 -0.0493  0.3012 -0.2121
 4916W        W21050   7.933   2.425  15.451  0.0067 -0.1340  0.1005
 4917W        W21051  14.895  10.561  15.943 -0.2250 -0.1725  0.1048
 4918W        W21052  11.186  12.963   4.538 -0.0773  0.0421  0.2147
 4919W        W21053  14.450   0.302  12.426 -0.1049 -0.1119 -0.1433
 4920W        W21054   0.381  11.947  10.517 -0.0671 -0.1431 -0.3731
 4921W        W21055   2.883   1.821  12.800 -0.0567  0.0241  0.1600
 4922W        W21056   6.581   0.241  11.328  0.1029 -0.1165  0.1056
 4923W        W21057   5.237   4.714  12.818 -0.4275  0.1063  0.0957
 4924W        W21058  15.937  15.421   3.884 -0.1650  0.2839  0.0493
 4925W        W21059   7.262  17.260   0.882  0.0282 -0.0911  0.2131
 4926W        W21060  14.672  11.297   2.486 -0.1970  0.1692 -0.0414
 4927W        W21061   3.277   3.115  11.078  0.0953  0.3696 -0.2532
 4928W        W21062   2.689  12.719  13.295  0.1812  0.0122  0.0476
 4929W        W21063   0.130   8.116   0.230  0.0904 -0.1797 -0.2603
 4930W        W21064  16.004   6.479  13.507  0.0084 -0.0054  0.2451
 4931W        W21065   3.497  10.210   4.584 -0.1266  0.2363 -0.0146
 4932W        W21066  10.191   8.724  14.914 -0.0173  0.1428  0.0911
 4933W        W21067  14.375  18.365   3.301  0.2084 -0.0548  0.1114
 4934W        W21068  14.203  18.034   4.475  0.1152  0.2129  0.1811
 4935W        W21069  10.466   3.132   4.239  0.2807 -0.0958 -0.0437
 4936W        W21070   5.356   4.703   2.338 -0.3977  0.0995  0.0884
 4937W        W21071   5.168   9.955   4.389  0.4200  0.0147 -0.2435
 4938W        W21072  13.631   7.360   1.572 -0.0131  0.0765 -0.2185
 4939W        W21073  12.148  12.711  11.179 -0.1725  0.3366 -0.3734
 4940W        W21074  17.959   0.234   4.982 -0.1267  0.3184  0.0103
 4941W        W21075  15.958   3.593  14.598  0.0920  0.1880 -0.0958
 4942W        W21076   1.837   2.347   6.315 -0.1902 -0.0974 -0.0715
 4943W        W21077   1.148   0.959   1.907 -0.4472  0.1095 -0.2351
 4944W        W21078  11.086   1.965  14.424  0.2591  0.3190 -0.0618
 4945W        W21079  18.119  16.398   5.423 -0.1067 -0.2639 -0.1315
 4946W        W21080   4.702   6.890   1.411 -0.2861  0.0188 -0.1304
 4947W        W21081   4.140  11.984  11.067  0.0428  0.2379 -0.1402
 4948W        W21082  17.367  17.659  13.022  0.2300  0.0673  0.3280
 4949W        W21083   6.355  18.443   4.208  0.1170 -0.4464  0.1612
 4950W        W21084   4.073   3.987   4.184 -0.0032 -0.1285 -0.0721
 4951W        W21085   1.978  15.833   2.875 -0.1092 -0.2203  0.1932
 4952W        W21086   6.807  14.554   4.568 -0.3227 -0.1387 -0.0648
 4953W        W21087   9.306   7.530   5.697  0.0827  0.0884  0.0984
 4954W        W21088   1.706  17.441   3.869  0.1362  0.2224 -0.0558
 4955W        W21089  15.287   3.095   4.477  0.1134 -0.0196 -0.1823
 4956W        W21090   6.631  14.414   5.081 -0.0443 -0.3847  0.0842
 4957W        W21091  15.218   6.658   2.167 -0.0258 -0.2725 -0.1178
 4958W        W21092  11.436  13.312   6.086  0.1367  0.0395 -0.1913
 4959W        W21093  17.376   4.302  15.675  0.0107  0.0634 -0.0946
 4960W        W21094   5.467   0.455   4.657  0.0192  0.2275 -0.2762
 4961W        W21095   9.798   6.464   0.108 -0.1584  0.0821 -0.2108
 4962W        W21096  13.436  16.936   2.789 -0.0672 -0.0610  0.1210
 4963W        W21097   7.444  13.989   4.043  0.0862 -0.0450  0.2024
 4964W        W21098  10.819  16.744  13.672 -0.0375  0.0714  0.5800
 4965W        W21099  16.785   9.456   9.780  0.0338 -0.0843  0.1456
 4966W        W21100   6.546  11.519   1.990  0.0119  0.2537  0.0486
 4967W        W21101  16.428  10.830   4.693 -0.1400 -0.2100 -0.1207
 4968W        W21102  17.677  18.209  15.956 -0.0452 -0.0506  0.0456
 4969W        W21103  11.711  13.517  14.482  0.0768 -0.1065 -0.0867
 4970W        W21104   3.616   9.040   1.623 -0.0141  0.0352 -0.1602
 4971W        W21105   7.531   2.218   4.397 -0.2352 -0.0788  0.2880
 4972W        W21106  10.020   8.395  12.804 -0.0955  0.0975  0.0441
 4973W        W21107  12.000   2.525   0.097 -0.1856 -0.1263  0.0769
 4974W        W21108  15.991  12.391  10.601 -0.2176 -0.0273  0.1126
 4975W        W21109  15.649   3.524   4.591  0.2449  0.1595  0.0377
 4976W        W21110   0.932  12.448  14.026 -0.0622 -0.0822 -0.0325
 4977W        W21111   2.707   2.308   1.411 -0.1445  0.1444 -0.1351
 4978W        W21112   0.800  11.072  14.440 -0.1232 -0.2080 -0.0433
 4979W        W21113  14.759  17.651  14.287 -0.2170  0.0580  0.1974
 4980W        W21114   0.076   0.135  12.700 -0.1968  0.3289 -0.0322
 4981W        W21115   3.642   1.406   2.020  0.2825  0.1276  0.1707
 4982W        W21116  16.743   9.260   1.279  0.0554  0.0583 -0.4217
 4983W        W21117   3.271  17.498   2.232  0.0378  0.2887  0.1596
 4984W        W21118  16.596  12.402  15.096 -0.0229 -0.0250  0.3322
 4985W        W21119  11.986   8.057  12.586 -0.1999  0.0274 -0.2798
 4986W        W21120  14.671  18.159  13.413 -0.0524  0.0164 -0.1950
 4987W        W21121   7.908  17.453  13.704 -0.0569 -0.0962  0.4209
 4988W        W21122   4.656  15.758   1.797  0.0932  0.0969  0.1185
 4989W        W21123   0.784  11.240  12.295  0.0686  0.0528 -0.0152
 4990W        W21124  13.780  17.206   4.018  0.0570  0.1129 -0.2317
 4991W        W21125   1.430   4.269  11.874  0.1066 -0.2330  0.3166
 4992W        W21126  11.384   0.261   5.439  0.0577  0.2200 -0.0359
 4993W        W21127  10.935   5.704   2.276  0.1312 -0.2966  0.1573
 4994W        W21128  12.783   3.149   4.603 -0.0327 -0.1716 -0.0871
 4995W        W21129  17.843   7.125  13.574  0.3133 -0.1298  0.1399
 4996W        W21130   1.484   1.483   0.388  0.0977 -0.0469  0.1713
 4997W        W21131   8.212   8.200   2.833  0.0744  0.1274  0.1524
 4998W        W21132   8.066  18.025  11.168  0.2847 -0.0503  0.0453
 4999W        W21133  14.090   7.955   2.096  0.0910 -0.2467 -0.3200
 5000W        W21134  18.010   2.791  15.102  0.2815 -0.0355  0.0148
 5001W        W21135   5.131  13.584   0.854  0.0314 -0.1161 -0.2462
 5002W        W21136  15.834  18.474  12.795  0.0937 -0.1944 -0.0471
 5003W        W21137  16.007   2.869   2.756 -0.0726 -0.1184 -0.0216
 5004W        W21138  13.097   3.559  16.061 -0.1806 -0.2415  0.2069
 5005W        W21139  15.703  16.245  15.976 -0.0985  0.2197  0.0393
 5006W        W21140   3.523  15.338  15.259 -0.4399 -0.0628 -0.0907
 5007W        W21141  15.507   0.341   0.514  0.0266 -0.2997 -0.1408
 5008W        W21142  12.069  15.512  14.405 -0.0673 -0.0215  0.2657
 5009W        W21143   6.119  18.099  13.888 -0.1751  0.0721  0.0214
 5010W        W21144   3.489  12.347  12.419 -0.1063  0.2755  0.1488
 5011W        W21145  11.104  11.483   4.598  0.0535 -0.2177  0.0780
 5012W        W21146  12.125   7.812   0.785 -0.0451 -0.4356 -0.0550
 5013W        W21147  13.781   5.615   3.681 -0.0420 -0.1539  0.1147
 5014W        W21148   2.913  15.846   3.043 -0.0557 -0.0400  0.0442
 5015W        W21149  16.871  14.690   2.504 -0.1723 -0.2416 -0.1537
 5016W        W21150   3.402  17.296   5.276 -0.2802 -0.1915  0.0672
 5017W        W21151   1.694   3.443  15.374  0.1460 -0.0196 -0.0483
 5018W        W21152   2.745  17.486   2.572  0.1019 -0.0697 -0.0228
 5019W        W21153  12.782   2.414  13.088 -0.1782  0.0116 -0.1820
 5020W        W21154   0.341  10.623   2.885  0.0361  0.0690  0.1410
 5021W        W21155  15.505   7.525   4.161 -0.3411 -0.2042 -0.0779
 5022W        W21156   7.128  16.359   4.260 -0.1695  0.0298 -0.1185
 5023W        W21157  11.570   8.377  14.562  0.0304 -0.1199 -0.0249
 5024W        W21158  17.803   2.381  12.473  0.1556  0.2348  0.0348
 5025W        W21159  11.825  15.924   2.854  0.1015  0.1825 -0.0514
 5026W        W21160  13.443  11.590   2.477 -0.2683 -0.2729 -0.0704
 5027W        W21161  17.547   7.167  12.801 -0.1036 -0.0843 -0.2353
 5028W        W21162  13.895   2.521   2.173  0.2774  0.1578 -0.1021
 5029W        W21163  17.645   1.786   0.814 -0.0358 -0.2552 -0.3584
 5030W        W21164  12.726   5.534   1.735  0.1973 -0.0564 -0.1413
 5031W        W21165  17.929   3.823   4.211 -0.0013 -0.1615 -0.1752
 5032W        W21166  13.094   7.037   6.035  0.1805  0.0819  0.1001
 5033W        W21167   9.858   1.018  13.615 -0.1584 -0.1766 -0.1645
 5034W        W21168  14.323   1.264   1.622 -0.1389 -0.1977 -0.1178
 5035W        W21169  13.419  12.136   2.812 -0.0059  0.1347  0.0450
 5036W        W21170   8.251  15.747   3.449  0.3166 -0.0531 -0.1012
 5037W        W21171  17.499  17.374  12.520 -0.0322  0.0222  0.0070
 5038W        W21172   1.633  13.773  14.773  0.0550  0.1076  0.0659
 5039W        W21173  11.225  12.695   5.469 -0.1997  0.1729  0.1688
 5040W        W21174   1.436   4.002   0.100 -0.1070  0.0764 -0.0149
 5041W        W21175   4.251   3.280   4.260  0.3980  0.0893  0.1832
 5042W        W21176  13.708  11.551  11.070 -0.2816 -0.1709 -0.0573
 5043W        W21177   9.573   6.558   4.363 -0.0102 -0.0153  0.0705
 5044W        W21178   5.029  17.709   2.843 -0.0344  0.2495  0.0429
 5045W        W21179   2.147   6.014  11.828 -0.0282  0.1081  0.0992
 5046W        W21180  14.211   1.809   6.203 -0.0410  0.0626 -0.2119
 5047W        W21181  15.123  17.513   0.917 -0.3167 -0.0173  0.0322
 5048W        W21182   6.309   0.326   5.762  0.0527 -0.3351 -0.3325
 5049W        W21183   6.604  16.915  14.603 -0.0405 -0.4658 -0.3054
 5050W        W21184   0.043   3.374   2.592  0.1267  0.0631  0.2615
 5051W        W21185   0.060  11.309   5.242  0.0848 -0.0937  0.0941
 5052W        W21186   5.718  14.784  12.337  0.2219  0.0596 -0.0971
 5053W        W21187   3.871   5.075  15.592 -0.1926  0.1449  0.1131
 5054W        W21188   1.999  16.991   3.877  0.1125 -0.1531 -0.2458
 5055W        W21189   7.076   9.576   5.256 -0.2776  0.1437 -0.0344
 5056W        W21190   7.222   0.406   1.388 -0.1354 -0.1525  0.0221
 5057W        W21191  16.360   1.391  12.540 -0.1560 -0.1865  0.4068
 5058W        W21192   9.602   5.058   2.735 -0.1914  0.1799 -0.3009
 5059W        W21193  12.601   2.498   2.706 -0.1682 -0.2104 -0.1369
 5060W        W21194  11.543  15.127   1.745  0.1845 -0.0330  0.0400
 5061W        W21195   5.196   0.300  11.320 -0.2177  0.1106  0.0050
 5062W        W21196  15.424   8.427  13.062 -0.2849  0.5142  0.0070
 5063W        W21197  13.912   7.917   1.039 -0.1438  0.1969 -0.0238
 5064W        W21198   7.002  18.105   3.775 -0.1215 -0.1647 -0.0948
 5065W        W21199  14.364   0.823   3.999 -0.0828 -0.1817  0.0526
 5066W        W21200   5.787   3.529   1.149  0.0724  0.3066  0.0421
 5067W        W21201   0.250   1.104  15.056 -0.1612  0.0289 -0.1639
 5068W        W21202   3.001  12.964   1.489 -0.1870  0.3681 -0.3040
 5069W        W21203  10.064  10.700  11.207  0.0506  0.0248  0.1779
 5070W        W21204   8.971   5.102  12.823  0.0365 -0.2183  0.2098
 5071W        W21205  17.329   4.967   2.481 -0.1449  0.2318  0.1323
 5072W        W21206   1.745   5.971   3.779 -0.0397  0.0224 -0.1226
 5073W        W21207   4.485  15.255   5.177 -0.3109 -0.0898  0.2862
 5074W        W21208   0.098  12.493   2.846  0.0575 -0.1756 -0.0551
 5075W        W21209  17.567  14.312   4.199  0.2333  0.1366 -0.1220
 5076W        W21210  14.812   7.275   4.948  0.0182 -0.3793 -0.0677
 5077W        W21211   2.702   7.997  12.911  0.2547 -0.0064  0.4554
 5078W        W21212   5.594   8.060   2.446 -0.1148  0.1249  0.0536
 5079W        W21213  13.279   7.150   1.322  0.0963  0.0817  0.2935
 5080W        W21214  13.326   8.958   5.098  0.3293  0.1853 -0.3563
 5081W        W21215   1.974  12.878  13.162 -0.0600 -0.2580 -0.0214
 5082W        W21216   4.134  14.479   4.494  0.3327 -0.0875 -0.1510
 5083W        W21217   8.586  14.036  15.183 -0.4966 -0.2422  0.1771
 5084W        W21218  16.768   6.190   5.345  0.0237  0.3664  0.1504
 5085W        W21219   0.079   8.557  10.731  0.4347 -0.0292  0.3263
 5086W        W21220   3.820  15.723  15.492 -0.1147  0.0727 -0.3382
 5087W        W21221   0.153  13.587   4.208 -0.1525  0.2285 -0.1168
 5088W        W21222  13.180   1.867   5.352  0.1601 -0.3414 -0.2485
 5089W        W21223   6.193  16.970  13.133  0.1483  0.3067 -0.0390
 5090W        W21224  15.277   4.039   2.240 -0.1683 -0.1523  0.3126
 5091W        W21225   5.929   7.511  14.765 -0.4057  0.2424  0.3426
 5092W        W21226  17.959  14.346  14.682 -0.3200 -0.1955 -0.0125
 5093W        W21227  13.669   1.818  15.726  0.0489  0.1422 -0.2960
 5094W        W21228   0.646   6.879  12.780  0.1742  0.1843 -0.0063
 5095W        W21229  12.337   6.570   4.218 -0.0120 -0.1622 -0.2437
 5096W        W21230   2.157   9.271  12.135 -0.0520  0.0636 -0.0059
 5097W        W21231   6.081   8.350   4.173 -0.0552 -0.1233  0.0430
 5098W        W21232  15.633   3.161   0.125 -0.1301  0.0760 -0.5522
 5099W        W21233   4.280  16.573  12.173 -0.2190 -0.2490 -0.2077
 5100W        W21234  18.025  11.688   2.930 -0.5761 -0.2133 -0.1153
 5101W        W21235  17.315   1.343   2.811 -0.0493 -0.2226 -0.4384
 5102W        W21236  14.727   3.685   3.671 -0.1086  0.1732 -0.0780
 5103W        W21237   0.295   1.286  11.857  0.3147  0.1980 -0.1255
 5104W        W21238  15.797   9.167  12.177 -0.0604  0.2738  0.0079
 5105W        W21239  16.970  11.655   4.102  0.0621 -0.2747  0.1822
 5106W        W21240  15.915   6.406  15.479  0.0012 -0.0678  0.0067
 5107W        W21241   9.691  15.943   3.166 -0.3731  0.0684 -0.0532
 5108W        W21242  15.736  10.328  15.545  0.0324 -0.0400  0.2111
 5109W        W21243   8.069   4.522   5.223  0.2287  0.2737 -0.2899
 5110W        W21244   2.409   8.989  10.635  0.1628 -0.1210  0.1100
 5111W        W21245   9.435   2.962  11.955 -0.1595 -0.0516  0.1566
 5112W        W21246   5.831   4.179   0.422  0.0296 -0.0643  0.1472
 5113W        W21247  12.173   4.565   2.074 -0.3295  0.0276  0.2103
 5114W        W21248   4.746  16.770   4.799 -0.0355  0.0365  0.2826
 5115W        W21249   3.403   3.504   5.891 -0.1328 -0.1396 -0.0768
 5116W        W21250   5.244  11.149   1.450  0.1649 -0.0498 -0.3358
 5117W        W21251   5.850  16.109  12.978 -0.2344 -0.2406 -0.2563
 5118W        W21252   9.200   5.542   1.494 -0.2572  0.1252 -0.0063
 5119W        W21253   2.519  18.265  15.870 -0.1634 -0.0796 -0.1131
 5120W        W21254   7.091   6.557  11.754 -0.0863 -0.2983 -0.3728
 5121W        W21255   3.671   1.171  12.975 -0.0175  0.2974  0.2444
 5122W        W21256   4.727   0.475   1.963  0.0536  0.4216 -0.0616
 5123W        W21257   0.061  12.146  11.004  0.1955 -0.0372 -0.2393
 5124W        W21258  11.167  12.027  12.442 -0.2704 -0.0806 -0.2077
 5125W        W21259   4.193  17.688  12.747 -0.1435  0.2861 -0.2449
 5126W        W21260   7.705   1.159   1.004 -0.0513 -0.1818  0.3529
 5127W        W21261   1.661   0.757  14.724 -0.0345 -0.1614  0.3505
 5128W        W21262   9.388  16.857   0.417  0.0322  0.1433  0.1402
 5129W        W21263   0.757   2.642   0.301 -0.0703  0.1425  0.0838
 5130W        W21264   0.326   3.499  15.617 -0.0762  0.2693 -0.0022
 5131W        W21265   1.159   4.343   1.837 -0.1565 -0.0915 -0.0546
 5132W        W21266  11.276  11.885   1.624  0.0867  0.0920 -0.0215
 5133W        W21267  14.919   2.409   4.045 -0.1663  0.2856 -0.0020
 5134W        W21268   0.341  11.074   3.248  0.1236  0.0385 -0.0323
 5135W        W21269  12.912  11.124   6.122  0.0422 -0.0318 -0.0963
 5136W        W21270  16.498  16.326   2.550  0.2428 -0.2399  0.1067
 5137W        W21271   8.633   5.716  12.480 -0.1553  0.0906  0.3601
 5138W        W21272  17.816  15.018   4.338 -0.0008 -0.1164  0.1263
 5139W        W21273  12.245  14.861   4.811  0.2145 -0.0017  0.0782
 5140W        W21274  11.458  11.331  14.390  0.0971 -0.1835 -0.1187
 5141W        W21275  15.367   2.476   5.332 -0.0134  0.0681  0.4418
 5142W        W21276  15.429   5.369  14.736  0.4203  0.1351 -0.2989
 5143W        W21277  17.933   7.742  11.346  0.1882  0.0612 -0.0998
 5144W        W21278  14.030  16.593   0.728 -0.1792  0.2057  0.1316
 5145W        W21279   3.565   2.284   3.708  0.2320 -0.1533  0.2314
 5146W        W21280  10.192  14.287   0.958  0.0008 -0.1418 -0.0724
 5147W        W21281   0.497   5.508  12.399 -0.0700 -0.1144 -0.1119
 5148W        W21282  13.841  15.701   2.864  0.1185  0.2330 -0.2078
 5149W        W21283  17.378   2.133  15.675 -0.1320 -0.0046 -0.2431
 5150W        W21284  16.441  17.976   0.346  0.1831  0.0520  0.2736
 5151W        W21285  16.840  13.976  15.260 -0.0883  0.1314  0.1882
 5152W        W21286   5.782   2.542   2.855  0.0531  0.2477 -0.1000
 5153W        W21287  13.353   4.397   2.352 -0.0868 -0.2563  0.1204
 5154W        W21288   8.575  14.478   1.765  0.0788  0.0559  0.0656
 5155W        W21289   6.184   0.844  13.351  0.0467 -0.0130  0.3086
 5156W        W21290   0.989   9.808   1.756 -0.1177  0.1907  0.0973
 5157W        W21291   6.872  14.360  15.797 -0.0309 -0.1325  0.0731
 5158W        W21292  12.198  13.405   4.111 -0.2394  0.1065  0.1148
 5159W        W21293  14.206   3.835  13.623  0.1246  0.3125 -0.3605
 5160W        W21294   5.877   5.533   4.418 -0.0822 -0.1810 -0.3153
 5161W        W21295   8.284  12.540   0.422  0.1171  0.1709 -0.2101
 5162W        W21296   3.139   1.384   5.098 -0.2339  0.4934 -0.3465
 5163W        W21297   6.673  14.014   0.823 -0.1845 -0.1852 -0.0256
 5164W        W21298  12.225   2.832  11.744 -0.0916 -0.1865  0.0626
 5165W        W21299   0.466   3.254   1.267  0.1188  0.0590 -0.0928
 5166W        W21300   1.873  17.712  10.872  0.0545 -0.2132  0.1051
 5167W        W21301  12.322   3.796  15.629  0.0583 -0.0063  0.0297
 5168W        W21302  10.266  10.671  12.871 -0.0405 -0.0381  0.0047
 5169W        W21303  16.261  17.412  11.141 -0.0794  0.0310  0.1637
 5170W        W21304  17.501   4.368  11.315 -0.0862 -0.0388  0.1470
 5171W        W21305  13.052   7.829   3.174 -0.0430  0.2058 -0.0726
 5172W        W21306  14.115  15.532  12.600  0.0057  0.0496 -0.1701
 5173W        W21307  10.056   4.277   4.433 -0.2559 -0.1077 -0.0395
 5174W        W21308  14.642  18.444   2.897  0.3328  0.0374 -0.0359
 5175W        W21309   1.192   7.703  13.619 -0.0391  0.0238 -0.0640
 5176W        W21310  10.226   7.850   2.972  0.1683 -0.0100  0.4313
 5177W        W21311  10.831   3.379   5.081 -0.1698  0.0361  0.0124
 5178W        W21312  12.940   7.111  11.938 -0.2569  0.2074 -0.2519
 5179W        W21313   7.715   6.237   0.189  0.3776  0.1887  0.1237
 5180W        W21314  17.082  12.497  15.061 -0.2165  0.1627 -0.3905
 5181W        W21315   1.505   6.715  14.134  0.0781  0.0776  0.1835
 5182W        W21316  12.873  13.397  11.698  0.4067 -0.1171  0.3248
 5183W        W21317  10.959  13.618   5.220 -0.1084 -0.1346 -0.0457
 5184W        W21318   7.786   0.751   0.419  0.0600  0.1200 -0.1024
 5185W        W21319   1.062   4.319   3.057 -0.2796  0.2062 -0.3795
 5186W        W21320  11.265  11.291   3.477  0.1731  0.4561  0.0424
 5187W        W21321   6.803  17.461  12.065 -0.4257  0.1035 -0.0151
 5188W        W21322  11.271  11.340  13.606 -0.0125 -0.0494 -0.0689
 5189W        W21323   1.375  14.149   4.448 -0.3430 -0.0320 -0.1980
 5190W        W21324   4.760   3.981  12.555  0.0816 -0.0080 -0.1066
 5191W        W21325  15.461  12.802  13.800  0.0622 -0.0269  0.0684
 5192W        W21326   6.227  15.075   4.413  0.3737  0.1667 -0.3364
 5193W        W21327   3.176   1.844  16.072 -0.1893 -0.0784 -0.0723
 5194W        W21328  14.126  14.527   4.936  0.1210 -0.0050  0.0426
 5195W        W21329   4.246  16.862   5.534 -0.0210  0.0944 -0.1982
 5196W        W21330  11.088  16.347   2.533 -0.0115 -0.0689 -0.0192
 5197W        W21331   0.316   8.854  11.827 -0.0871  0.0122  0.0012
 5198W        W21332   3.824   8.847   0.450 -0.1865  0.1124  0.1620
 5199W        W21333   5.963   9.665  13.619  0.0847  0.0426 -0.1300
 5200W        W21334  10.417  17.968  13.497 -0.1967  0.2362 -0.1939
 5201W        W21335   9.278   0.322   1.865  0.0726 -0.0415 -0.0340
 5202W        W21336   0.900   8.135  13.683  0.1010 -0.0473  0.0930
 5203W        W21337   2.937  18.163  15.598  0.1531 -0.3568  0.1132
 5204W        W21338  11.519  13.824   2.049 -0.0095  0.3615 -0.3630
 5205W        W21339  16.905   5.448   4.540  0.1673  0.0313  0.2645
 5206W        W21340  14.013  12.118  14.556 -0.1567 -0.0670  0.1917
 5207W        W21341   5.283   3.182  13.161 -0.0480 -0.1458 -0.0302
 5208W        W21342   0.233  11.996  15.841 -0.2473  0.0644  0.0370
 5209W        W21343  18.130   2.222  15.609  0.1403 -0.1400 -0.2030
 5210W        W21344  14.776   3.030  15.726  0.0002 -0.0289  0.0472
 5211W        W21345  17.579   2.787  14.833  0.3165  0.1725 -0.1872
 5212W        W21346   3.517  13.840   2.153  0.2277 -0.0817  0.0151
 5213W        W21347   9.690   4.661   5.633  0.0708 -0.1343  0.2557
 5214W        W21348  17.544  12.616   0.433 -0.0053  0.1128  0.2022
 5215W        W21349   0.932  10.854   4.335  0.1539 -0.0474  0.1133
 5216W        W21350  15.755   0.492  12.337 -0.1609  0.2898 -0.0660
 5217W        W21351   0.269   5.506   0.666 -0.3041  0.0561  0.2620
 5218W        W21352  12.652  13.998  15.385 -0.0739 -0.0716 -0.0307
 5219W        W21353  10.927   8.705   5.040 -0.2185 -0.5594 -0.1251
 5220W        W21354  14.856  17.904   2.875 -0.0557 -0.1829 -0.1240
 5221W        W21355  12.735   2.122  13.520 -0.2398  0.5447  0.0878
 5222W        W21356  13.538   6.562   2.149  0.0610 -0.0921 -0.0218
 5223W        W21357   7.219   2.047   0.399  0.0301  0.0405 -0.2394
 5224W        W21358   3.643  10.633   2.231 -0.1550  0.0099 -0.1261
 5225W        W21359   1.121  10.449   0.583  0.0845 -0.0177 -0.0882
 5226W        W21360   4.316   9.923   0.123 -0.1449  0.0158 -0.2116
 5227W        W21361   7.565  16.683  13.925 -0.0310  0.1062 -0.3489
 5228W        W21362   0.014  18.504   4.239  0.0223  0.0547 -0.3527
 5229W        W21363  11.195   9.171  11.064  0.2889  0.3132 -0.0645
 5230W        W21364   2.489   0.096   3.052  0.3806  0.2020 -0.3927
 5231W        W21365   4.775   3.752   3.781 -0.1652  0.1541 -0.2078
 5232W        W21366  13.782  14.576  12.483 -0.0506  0.0029 -0.1019
 5233W        W21367  18.203   4.770   1.012  0.2444 -0.0654 -0.0053
 5234W        W21368   3.393   6.860  13.055  0.0307  0.6029  0.0469
 5235W        W21369  11.742  10.809   4.480 -0.0272 -0.2030 -0.3116
 5236W        W21370   5.471   7.607   1.447  0.3047  0.1984  0.1381
 5237W        W21371  12.777  13.742  12.627 -0.1638  0.0451  0.1276
 5238W        W21372   9.309  18.131   2.898 -0.0138 -0.0729 -0.0511
 5239W        W21373  14.777  17.762  14.781  0.1052 -0.0412  0.2632
 5240W        W21374   2.487   0.270  14.523 -0.3306  0.0596 -0.1866
 5241W        W21375   4.307  11.685   3.698  0.0889  0.3945 -0.0619
 5242W        W21376   5.571   8.544   2.362 -0.0162 -0.2252 -0.2546
 5243W        W21377   5.659  16.281   3.476 -0.1730  0.1764  0.0964
 5244W        W21378   2.622   2.753  12.130 -0.0576  0.1613 -0.0586
 5245W        W21379  14.717  10.492  12.364 -0.0057 -0.2024  0.2067
 5246W        W21380   1.325  11.447  13.945  0.0869 -0.0102 -0.0752
 5247W        W21381   8.513   1.491   3.840 -0.0494  0.1726 -0.1842
 5248W        W21382   5.839  13.377  15.613 -0.1714  0.0203  0.0441
 5249W        W21383   0.600   2.192  13.570 -0.1311 -0.0639  0.0870
 5250W        W21384   9.253   9.173   3.731  0.3168 -0.0142  0.0190
 5251W        W21385   7.893  13.376  11.083 -0.2976 -0.2541  0.0187
 5252W        W21386  13.988  16.592   3.298  0.1283  0.0103 -0.1900
 5253W        W21387   6.844  10.447   4.983 -0.2476  0.0564  0.0099
 5254W        W21388   5.780  18.472   1.449 -0.2382 -0.1239 -0.3285
 5255W        W21389  17.162  10.843   4.522  0.0592  0.0569 -0.2070
 5256W        W21390   3.980   0.068   4.189  0.1116  0.2256 -0.3485
 5257W        W21391   7.225   7.204  14.978 -0.0512 -0.0120 -0.0755
 5258W        W21392   9.033   1.828  10.469  0.1750 -0.2182  0.0509
 5259W        W21393  10.698  13.054   2.196 -0.1745 -0.1553 -0.1106
 5260W        W21394   0.504  14.089   4.828  0.3233 -0.0661  0.1739
 5261W        W21395   9.277  17.002   1.784 -0.0843 -0.2422  0.1237
 5262W        W21396  17.373  13.560  10.787  0.1729 -0.1339 -0.0471
 5263W        W21397   2.246  15.558  13.722  0.2894 -0.0225 -0.3119
 5264W        W21398   7.097   4.074   3.822  0.3206 -0.0330  0.1637
 5265W        W21399   2.122   0.578   3.847 -0.1426  0.1526  0.2618
 5266W        W21400  15.553  15.692  12.950 -0.1365 -0.0005  0.2169
 5267W        W21401  11.310  13.422   1.034 -0.0584 -0.1170  0.3262
 5268W        W21402   5.721   8.610  16.035 -0.2306  0.1512 -0.3771
 5269W        W21403   1.886   0.024   5.025  0.1397  0.0901  0.0252
 5270W        W21404   7.567  11.650   3.885 -0.4106  0.3445  0.1277
 5271W        W21405  12.872   3.823  14.411  0.0584 -0.0146 -0.0805
 5272W        W21406  16.337   6.356  15.025 -0.2926 -0.0284 -0.0457
 5273W        W21407  15.842  13.903   1.967  0.0942  0.1710  0.1171
 5274W        W21408   7.608  16.956   0.984 -0.2949 -0.0428 -0.1286
 5275W        W21409   1.520  12.016  15.387 -0.1920  0.1346 -0.0240
 5276W        W21410   3.389   4.936  10.932  0.0568  0.2288  0.1864
 5277W        W21411  10.530   5.345   3.766 -0.1257 -0.2692 -0.2338
 5278W        W21412   5.164  15.272   4.449 -0.0279 -0.1195  0.0831
 5279W        W21413   3.018   0.016   2.839  0.1537  0.0724 -0.1990
 5280W        W21414   1.561   1.454  15.996  0.1494 -0.1930  0.1684
 5281W        W21415   5.483  16.034   4.840 -0.2008 -0.1811 -0.0717
 5282W        W21416  14.128  11.396  13.667 -0.0219 -0.1542  0.1465
 5283W        W21417   1.167  13.796  11.562 -0.2012 -0.0468 -0.0461
 5284W        W21418   2.537   0.711   0.767  0.1042 -0.0197 -0.3376
 5285W        W21419  10.338   3.684  14.822  0.2440  0.1867 -0.1313
 5286W        W21420  12.903  18.481  14.622 -0.4397 -0.1084  0.2017
 5287W        W21421  10.278   4.543  13.468  0.3967 -0.0696 -0.2435
 5288W        W21422   8.322  17.676   5.855 -0.0370 -0.1701 -0.3628
 5289W        W21423   9.207   8.343   3.149 -0.0635  0.1940 -0.3720
 5290W        W21424   1.829  12.154   9.961 -0.0258  0.1333 -0.2645
 5291W        W21425  11.676  13.074  14.881 -0.0054  0.0766 -0.1186
 5292W        W21426  13.901   1.077  12.212  0.1536 -0.1309  0.0838
 5293W        W21427   6.399   7.352   1.106 -0.1248 -0.1436  0.0775
 5294W        W21428  11.979   5.079   0.012  0.0151  0.1822  0.3583
 5295W        W21429   6.105   4.858   0.178  0.2116 -0.1677  0.2839
 5296W        W21430   2.369   5.339   2.364  0.0105 -0.2118 -0.0335
 5297W        W21431  17.328  12.094  15.394 -0.2605  0.1209 -0.0882
 5298W        W21432   4.243   7.978   2.587 -0.0485  0.0113 -0.3290
 5299W        W21433  14.954  12.730   3.329  0.0237 -0.1120  0.2303
 5300W        W21434   3.403  15.857   5.149 -0.2376 -0.0838  0.0644
 5301W        W21435   2.494  11.496  12.691 -0.0885 -0.0443 -0.3020
 5302W        W21436  16.933  11.648   2.190  0.1592  0.3443  0.3313
 5303W        W21437  10.154   3.470   0.476 -0.0708 -0.1433  0.3133
 5304W        W21438  13.048  10.249   4.553  0.2417 -0.2121  0.0659
 5305W        W21439   8.499  12.909  11.696 -0.0250  0.1458  0.2267
 5306W        W21440   4.287   8.573   3.696 -0.0972  0.2121 -0.1440
 5307W        W21441   3.881  16.628   5.832  0.1063 -0.1045 -0.3442
 5308W        W21442   9.721  18.428   0.850  0.2022  0.0442  0.0266
 5309W        W21443   8.711   9.040   0.921 -0.1825  0.0544 -0.5192
 5310W        W21444  18.303  14.865  15.164 -0.2276 -0.0479 -0.0704
 5311W        W21445  18.185   3.952   1.306  0.0674 -0.2282 -0.1103
 5312W        W21446   2.207   5.004  13.979  0.2750  0.1031  0.0265
 5313W        W21447   9.320   7.916  13.392  0.0905 -0.1667 -0.2489
 5314W        W21448   6.205   5.204  13.620 -0.0140  0.2566  0.0462
 5315W        W21449   9.388  12.533  12.714 -0.1283 -0.2543  0.0770
 5316W        W21450  11.799  12.088  14.974 -0.2140  0.1724  0.1648
 5317W        W21451  10.883  17.979  14.483 -0.0017  0.1179  0.0367
 5318W        W21452   1.090  14.579  13.181  0.0536  0.0661  0.2481
 5319W        W21453  17.362   9.772   3.180  0.0160  0.1811 -0.0131
 5320W        W21454   0.155  14.736   5.107  0.0178  0.0341  0.1247
 5321W        W21455   4.349  15.813  13.209 -0.2825  0.3101 -0.0444
 5322W        W21456   8.338   8.115   6.264 -0.1475 -0.3063 -0.0041
 5323W        W21457   5.298   6.527  12.829 -0.4449  0.0114  0.0684
 5324W        W21458   3.340   1.085  12.544  0.1585 -0.0243  0.1047
 5325W        W21459   3.886  17.406   5.220  0.1484 -0.0697  0.1708
 5326W        W21460   9.481   6.131  13.270  0.0261  0.0587 -0.2189
 5327W        W21461   6.970  16.494   2.388  0.0007  0.1730 -0.1452
 5328W        W21462   2.457   2.369  10.463 -0.0273  0.0167  0.2387
 5329W        W21463   1.738  15.387   3.077  0.0083 -0.2243  0.1539
 5330W        W21464   4.202  18.236  15.782  0.1299 -0.3439  0.0199
 5331W        W21465   0.987   5.235   1.381 -0.2819 -0.1218  0.1886
 5332W        W21466   0.599  11.684   3.433  0.1316 -0.0388  0.2167
 5333W        W21467   3.608  12.690  10.959  0.0785  0.1356 -0.2568
 5334W        W21468  13.687   2.309   4.618 -0.1533 -0.0132 -0.3078
 5335W        W21469   2.643  13.521  10.380 -0.0831  0.1667  0.0423
 5336W        W21470   3.520   2.211   0.781 -0.1846  0.0038  0.1157
 5337W        W21471  11.866  14.775   1.380  0.0312 -0.1119  0.0014
 5338W        W21472  10.390  11.874   3.419  0.1057  0.1367 -0.1862
 5339W        W21473  12.284   8.846   1.102  0.2216 -0.0138 -0.0945
 5340W        W21474   0.106  17.254  15.443 -0.1047 -0.0422  0.0425
 5341W        W21475   6.066  15.952   5.580  0.0890  0.0742  0.0613
 5342W        W21476  17.933   1.253   1.033  0.0177  0.2388  0.1198
 5343W        W21477   9.230  18.381   5.579 -0.1551 -0.0135  0.0634
 5344W        W21478  18.039  11.561  10.904  0.4134  0.1306 -0.0081
 5345W        W21479   5.893  14.105   0.505  0.2079 -0.0761  0.3104
 5346W        W21480   0.827  15.437   1.656  0.0792 -0.0226 -0.3306
 5347W        W21481  13.231  16.048  15.072  0.4169 -0.0714  0.1194
 5348W        W21482  16.113   3.248   3.115  0.3581  0.1610  0.1791
 5349W        W21483   4.360  16.919   5.059  0.3415 -0.0464 -0.0965
 5350W        W21484   7.478   2.112   2.468 -0.0841 -0.1034 -0.1402
 5351W        W21485   5.252   3.635   4.932 -0.1314  0.1812  0.2443
 5352W        W21486  17.439  11.107  13.072 -0.4251 -0.0781 -0.2482
 5353W        W21487   6.005  16.708   2.741  0.2658 -0.0703 -0.2404
 5354W        W21488   6.417   5.404   5.866  0.3306 -0.0755 -0.3204
 5355W        W21489   5.589   4.909   1.927 -0.1006  0.0247 -0.1358
 5356W        W21490  10.263  10.520  14.039 -0.0195 -0.0024 -0.1383
 5357W        W21491   1.188   3.262  15.383  0.2597  0.2677  0.4732
 5358W        W21492  17.324   2.471  15.345  0.2308 -0.4214  0.0513
 5359W        W21493   4.751   2.557   2.677  0.0021 -0.2255 -0.0569
 5360W        W21494   1.319  12.060  11.455  0.4836 -0.1060  0.2223
 5361W        W21495   9.791  16.518   5.343 -0.1088  0.0664 -0.0990
 5362W        W21496   7.778  13.153  14.448 -0.2916 -0.1368 -0.1113
 5363W        W21497   3.950   1.912   3.504 -0.1684  0.2570  0.1067
 5364W        W21498   8.373   5.928  14.433 -0.2176 -0.0425 -0.1105
 5365W        W21499  16.818   0.090  13.779  0.3951 -0.0612 -0.3119
 5366W        W21500   9.474   5.652   6.227  0.2932 -0.0393 -0.0056
 5367W        W21501   8.225   4.638  14.757  0.0742  0.1935 -0.2210
 5368W        W21502  13.364   7.302   3.798  0.2179 -0.2536 -0.0179
 5369W        W21503   7.320   3.515   1.832 -0.1614 -0.0158  0.2075
 5370W        W21504   5.473  11.236   4.965 -0.1783 -0.1230 -0.0290
 5371W        W21505  12.533  12.806  12.561  0.2157  0.1691  0.1544
 5372W        W21506  10.875   5.078  13.225  0.0249  0.2131  0.1023
 5373W        W21507  17.485  11.497   3.823 -0.1658 -0.1861  0.1212
 5374W        W21508   2.164  15.198  12.478  0.2370  0.2279  0.2396
 5375W        W21509  16.813   4.671   0.224  0.3964  0.1274 -0.2891
 5376W        W21510  16.890   2.630   1.577  0.0163  0.0375  0.0440
 5377W        W21511   2.631   6.942   5.124 -0.0759 -0.0594  0.0705
 5378W        W21512   0.118   5.155  14.085 -0.1524  0.0490  0.0493
 5379W        W21513  11.369   3.841   4.935 -0.4266 -0.3302  0.2506
 5380W        W21514   8.583   2.209  14.321  0.1476 -0.0768 -0.0598
 5381W        W21515  12.598  12.766   2.425 -0.1855  0.0761 -0.0280
 5382W        W21516  15.677  12.019  12.263 -0.0831  0.0286  0.0462
 5383W        W21517   8.265   2.901  15.650  0.1776 -0.1213  0.1444
 5384W        W21518   8.998   6.677   4.891  0.0002 -0.0530  0.1132
 5385W        W21519  11.519   5.085   1.310 -0.0200 -0.0271  0.2868
 5386W        W21520   1.050  18.215   3.005  0.1396 -0.0736 -0.5421
 5387W        W21521   7.996  15.665  11.532  0.2766  0.0916  0.4773
 5388W        W21522  11.472  14.760  13.094 -0.2733 -0.4531 -0.1468
 5389W        W21523  10.339  17.163   2.638  0.3623 -0.1013 -0.1829
 5390W        W21524   7.093  13.582   5.234  0.0928  0.0312  0.0518
 5391W        W21525   1.179   4.307  15.837  0.0893  0.1990 -0.2429
 5392W        W21526   2.877  12.652   9.282  0.2893  0.1204  0.0875
 5393W        W21527  12.169   5.571  13.319 -0.0658  0.0422 -0.0329
 5394W        W21528   8.023  14.411   3.451  0.0829 -0.0230 -0.0258
 5395W        W21529  11.275   1.114   3.463  0.1047 -0.1223  0.0948
 5396W        W21530  16.282  15.722  14.761 -0.3600 -0.0562 -0.2547
 5397W        W21531   3.316  15.142   0.440 -0.0960  0.0778 -0.2377
 5398W        W21532  15.284  17.800  14.252 -0.0863 -0.1799  0.4228
 5399W        W21533  11.288   8.916  11.983 -0.1629 -0.3931  0.0108
 5400W        W21534  11.806   7.926  14.154 -0.2130 -0.0611 -0.3212
 5401W        W21535  16.834   1.350   3.113 -0.0572  0.1098 -0.3751
 5402W        W21536   3.107   8.037  15.617  0.0966  0.3149 -0.0751
 5403W        W21537   1.266   1.952   0.158 -0.3471 -0.2048 -0.0313
 5404W        W21538   3.641   3.025   5.191 -0.0401 -0.2701  0.1613
 5405W        W21539  10.468   2.650   0.393 -0.0543 -0.0719  0.2382
 5406W        W21540  15.877   6.589   2.829 -0.1195 -0.1788  0.0315
 5407W        W21541   6.370   9.325  14.705 -0.2053 -0.1416  0.0503
 5408W        W21542  15.506   0.008   1.712  0.1786  0.2662  0.0421
 5409W        W21543   0.359   2.855  10.593 -0.1124 -0.1675  0.4266
 5410W        W21544  12.241  14.313  12.600 -0.1161 -0.0142  0.2779
 5411W        W21545   6.318   6.578   1.708 -0.1299  0.1853  0.1777
 5412W        W21546  10.159   0.852  15.865 -0.0259  0.2272  0.0636
 5413W        W21547   3.451  16.702   4.854  0.0933 -0.1003 -0.2089
 5414W        W21548   5.648  15.241  14.965 -0.2633  0.0664  0.4544
 5415W        W21549   1.376   5.929  14.190  0.1528  0.3851  0.1940
 5416W        W21550  12.646  12.718   5.712 -0.4883 -0.2464  0.0634
 5417W        W21551   4.844   4.993   4.985  0.0935 -0.1300  0.0174
 5418W        W21552  15.547   2.772  14.093  0.1061  0.1931  0.0358
 5419W        W21553   8.505   3.963   1.706 -0.3858  0.1137 -0.1372
 5420W        W21554  11.516   0.152   0.369  0.0902 -0.0711 -0.1296
 5421W        W21555  10.814  17.087   3.085 -0.3595 -0.0293 -0.0880
 5422W        W21556   6.297   4.611  15.817 -0.2027 -0.2215 -0.5747
 5423W        W21557  16.774   0.575   1.905  0.2161  0.2478 -0.2314
 5424W        W21558   3.091   9.445   3.195  0.0388 -0.0486  0.5003
 5425W        W21559   8.467  14.510   3.252  0.0477  0.2442  0.0364
 5426W        W21560   8.261   3.227   1.802 -0.0466  0.1961 -0.3918
 5427W        W21561  15.897  13.453   1.654 -0.0194 -0.1185  0.0330
 5428W        W21562  12.909  15.740   2.421  0.1541 -0.3316 -0.1192
 5429W        W21563  15.915  18.104   3.225  0.0702  0.1151 -0.0466
 5430W        W21564  14.058   6.442  11.758  0.1909  0.0849 -0.4613
 5431W        W21565   5.540  13.592  14.249  0.1628  0.0998  0.0913
 5432W        W21566  10.777   0.863  13.458  0.2004  0.0836 -0.1125
 5433W        W21567   2.717   4.614   3.228 -0.2870  0.0440  0.3995
 5434W        W21568  10.593   5.813   0.268  0.1849 -0.0585 -0.0510
 5435W        W21569  13.914  17.153   3.137  0.1528  0.0668 -0.1601
 5436W        W21570  16.421   3.738   1.013  0.0702  0.0221 -0.4508
 5437W        W21571   5.888  13.185  13.447  0.3245  0.3406  0.0029
 5438W        W21572  14.270  10.532  11.213  0.0640  0.0646  0.0521
 5439W        W21573  11.440   7.864  14.527 -0.0336  0.2972 -0.1173
 5440W        W21574   6.547  16.652  13.971 -0.2770 -0.1653 -0.3504
 5441W        W21575   3.536   9.756  11.561  0.3381 -0.1426  0.0235
 5442W        W21576   8.448  13.485  12.753  0.0194  0.0248 -0.0732
 5443W        W21577   1.108   0.901   4.476 -0.0778 -0.0551 -0.3242
 5444W        W21578   2.520   0.813   4.140 -0.1804 -0.0246 -0.1736
 5445W        W21579  16.459   7.271   0.119  0.1047 -0.1415  0.1302
 5446W        W21580  16.201   8.130  10.951 -0.1196 -0.1857  0.0360
 5447W        W21581   0.434   8.439  12.116  0.0174  0.2038 -0.3140
 5448W        W21582   0.980  15.457  10.516 -0.1691  0.0412 -0.2143
 5449W        W21583   2.303   2.847   4.896  0.0561  0.0011  0.1720
 5450W        W21584   2.009   2.642  12.442  0.3209  0.0711  0.0199
 5451W        W21585  10.109  14.853   2.207 -0.1563  0.0665 -0.1254
 5452W        W21586   2.440  12.270   1.646 -0.2426 -0.1441 -0.1155
 5453W        W21587   3.166  16.654  11.893 -0.1317  0.0125 -0.0088
 5454W        W21588   5.915   4.724   0.624 -0.0090  0.0552 -0.2246
 5455W        W21589   5.045   8.830  16.060  0.1746 -0.1022 -0.1623
 5456W        W21590   7.376   0.470   0.661  0.0569 -0.2490  0.0506
 5457W        W21591   9.265   1.798   1.207 -0.0893  0.1441 -0.2692
 5458W        W21592  13.116  16.516  15.997  0.1400  0.2453 -0.1048
 5459W        W21593  17.796  15.281   1.887 -0.1813 -0.0087 -0.0775
 5460W        W21594   9.592   0.521  12.629 -0.0739  0.0773  0.1575
 5461W        W21595   3.707   3.743  14.541  0.0072 -0.0946 -0.1154
 5462W        W21596   2.845   7.377   1.389 -0.0186  0.2749 -0.0111
 5463W        W21597  12.671   0.199  15.397  0.2474  0.4173 -0.1016
 5464W        W21598  18.469  17.344  11.529  0.1247  0.2084 -0.0916
 5465W        W21599   0.877  11.859   3.055 -0.0812 -0.0577  0.0094
 5466W        W21600   3.733   4.672   1.860 -0.0276  0.0166  0.0827
 5467W        W21601   1.815   6.581   2.521  0.1101  0.0565 -0.0626
 5468W        W21602  12.404   7.186   0.248 -0.0393  0.1380 -0.2501
 5469W        W21603   7.833   9.003  11.099 -0.0785  0.2788  0.2736
 5470W        W21604   6.897   4.961  12.647 -0.3599 -0.0923  0.1955
 5471W        W21605   1.062   6.768   4.536  0.1252 -0.0394 -0.2560
 5472W        W21606   1.275   3.992   3.810  0.1294 -0.0721 -0.0750
 5473W        W21607  13.346  18.243   0.362  0.0721 -0.4664  0.0611
 5474W        W21608   9.399  11.125   0.195 -0.1675 -0.4262 -0.3654
 5475W        W21609   4.700  11.659   2.488 -0.0809 -0.0006  0.1051
 5476W        W21610  15.527  17.317  14.341  0.1007 -0.3660  0.0636
 5477W        W21611   6.383   8.329  13.178  0.0454 -0.1393  0.1264
 5478W        W21612   3.886  10.183   4.871  0.2358  0.0812  0.0037
 5479W        W21613  16.057   3.473   4.833 -0.0715 -0.1286 -0.4342
 5480W        W21614   3.885   1.206  15.903 -0.2491  0.0106 -0.1614
 5481W        W21615   1.588   4.130  14.729  0.0924 -0.0470  0.0532
 5482W        W21616   1.206  17.010  15.116 -0.2434 -0.1238 -0.1371
 5483W        W21617   7.954   3.253  15.059 -0.1687 -0.1605  0.0779
 5484W        W21618  15.964  13.638   2.408 -0.2001  0.0349 -0.1831
 5485W        W21619  13.539   5.678  13.905  0.0207 -0.1854 -0.0757
 5486W        W21620   3.300   0.429   4.665  0.1668 -0.0856  0.3955
 5487W        W21621  13.640   3.543   2.708 -0.0241 -0.1121 -0.0103
 5488W        W21622   9.638  12.633   1.435 -0.2206  0.0755  0.2552
 5489W        W21623   8.913   5.989   5.034 -0.0058  0.1647 -0.0145
 5490W        W21624   3.169   9.097   1.966  0.0215  0.1263  0.1562
 5491W        W21625  12.247  17.273   4.160  0.4005  0.3218 -0.2574
 5492W        W21626   1.330   6.731  12.523  0.0236 -0.2122  0.1290
 5493W        W21627   7.251  10.867  15.925 -0.0357  0.0654  0.0327
 5494W        W21628   8.356   5.502  14.789  0.3622 -0.0077  0.1708
 5495W        W21629   1.017  17.866   3.902  0.1931 -0.1540 -0.0486
 5496W        W21630  11.374   8.193   1.704  0.0474 -0.0421  0.1016
 5497W        W21631  18.411  13.193   1.256 -0.1747 -0.1229 -0.0597
 5498W        W21632   4.009  14.202   1.370  0.1635  0.1080  0.0031
 5499W        W21633  18.376   9.115   1.810  0.0853 -0.3162  0.1312
 5500W        W21634   1.238  17.535  15.202  0.1889  0.2347 -0.1871
 5501W        W21635   0.981  13.359   3.624  0.1445  0.2270  0.0932
 5502W        W21636   3.466   8.673   1.943  0.2662  0.0175  0.1972
 5503W        W21637   4.311   8.053  15.476  0.1098  0.0655 -0.0039
 5504W        W21638   3.192   0.563   2.984  0.1059  0.1004  0.0353
 5505W        W21639  13.923   4.741   5.168  0.1042  0.2146 -0.0215
 5506W        W21640  14.227  10.812   1.841  0.1212  0.1142 -0.2917
 5507W        W21641  14.122   8.793   3.333 -0.0395 -0.0307  0.1221
 5508W        W21642   3.696  14.468  15.660 -0.1957 -0.0872  0.3030
 5509W        W21643   6.362  10.603   1.249 -0.0358  0.0534  0.1313
 5510W        W21644   0.423  11.428   3.860  0.1193 -0.0617 -0.1693
 5511W        W21645   6.048  14.054   4.327 -0.1513 -0.1659  0.3646
 5512W        W21646  12.990   7.335  11.515 -0.0095 -0.2160 -0.1224
 5513W        W21647  12.398  18.297  11.429  0.1530  0.0908  0.0452
 5514W        W21648  18.078   4.955  14.780 -0.0639  0.0550  0.2841
 5515W        W21649   6.668   8.628   5.571 -0.1300  0.1189 -0.4817
 5516W        W21650   4.169   4.053  14.668 -0.0880 -0.0808  0.2348
 5517W        W21651  15.138   1.207   2.363 -0.1800 -0.1414 -0.1908
 5518W        W21652  11.193  11.031  14.104  0.0032 -0.1869 -0.0148
 5519W        W21653  12.560  13.498  14.082 -0.4386  0.0021 -0.1560
 5520W        W21654   7.053   9.493   1.708 -0.0669 -0.1163 -0.0311
 5521W        W21655  18.218  12.294  11.628  0.0302 -0.0715 -0.1550
 5522W        W21656   8.204  18.212  13.486 -0.1589  0.2195  0.1534
 5523W        W21657  12.101  13.362   3.194 -0.0526 -0.1212 -0.0119
 5524W        W21658   7.347  15.546   3.104 -0.1092 -0.0569  0.4104
 5525W        W21659   2.902  11.950  12.006  0.0408 -0.0080  0.1283
 5526W        W21660   7.136   9.613   0.370 -0.2239 -0.0581 -0.0303
 5527W        W21661  17.188  13.914   1.612 -0.0769 -0.2945 -0.0514
 5528W        W21662  15.968   1.136  10.711 -0.1688 -0.3770  0.0577
 5529W        W21663   6.619   2.841   1.603 -0.2356  0.1905  0.0515
 5530W        W21664  17.924   0.449  14.870  0.1487  0.0093 -0.2918
 5531W        W21665  12.177   3.311  13.974 -0.0356 -0.1111 -0.0233
 5532W        W21666   4.661   8.599  12.298 -0.4059  0.0144 -0.1098
 5533W        W21667   6.587  11.715   4.603  0.1599 -0.2940 -0.3649
 5534W        W21668  16.571   4.068   3.309 -0.0559  0.0432 -0.4043
 5535W        W21669  10.542   0.741   2.068 -0.0305 -0.2992 -0.1042
 5536W        W21670  11.851  18.321  13.847  0.1763  0.0039  0.2837
 5537W        W21671   8.394   2.785   5.011 -0.0959 -0.1742  0.0237
 5538W        W21672  17.950  10.752   3.929  0.0172 -0.1759 -0.0218
 5539W        W21673   3.558  11.094  10.564 -0.1129  0.1136 -0.0753
 5540W        W21674   2.740  16.485  15.363  0.0441  0.0756  0.0997
 5541W        W21675   2.845  12.862   2.549  0.1112 -0.1227 -0.2189
 5542W        W21676   5.816   6.701  11.355  0.0140  0.0825 -0.2684
 5543W        W21677  14.450   0.979   5.205 -0.1458 -0.1076 -0.1671
 5544W        W21678   5.024   6.577  15.477 -0.1128 -0.0566  0.3767
 5545W        W21679   1.589   8.618   3.125  0.1072 -0.2767 -0.0262
 5546W        W21680  10.561   5.421  13.391  0.0672  0.0022  0.3130
 5547W        W21681  13.133  16.252   1.710  0.0548 -0.2146 -0.0263
 5548W        W21682   0.704  11.767  12.249  0.1270  0.0997  0.2370
 5549W        W21683  14.964  18.390   5.791  0.0799 -0.2293 -0.0259
 5550W        W21684   0.773  12.233  10.679  0.0425 -0.2822  0.0065
 5551W        W21685   5.474   9.491  14.657 -0.1013 -0.1386 -0.1750
 5552W        W21686   0.580   9.887  12.780 -0.0988  0.2150  0.1476
 5553W        W21687   3.594   9.474   4.990 -0.1005 -0.4476 -0.1478
 5554W        W21688  15.088  11.961   0.652  0.0248 -0.1765  0.1124
 5555W        W21689   1.060   3.346  12.792 -0.1266  0.1281  0.1872
 5556W        W21690   8.253   5.305   4.723 -0.1833 -0.0857 -0.0472
 5557W        W21691   4.174   8.844  14.450 -0.2674 -0.1023 -0.1221
 5558W        W21692   4.229   5.546  13.223 -0.0177 -0.0868  0.5535
 5559W        W21693   5.355   8.788   1.862 -0.1960  0.1208 -0.1763
 5560W        W21694  18.347   6.374  15.924 -0.0679 -0.0753  0.0538
 5561W        W21695   0.423   6.104   2.633 -0.0435  0.3129 -0.0924
 5562W        W21696  14.074   8.977  14.794  0.1468 -0.2711  0.1069
 5563W        W21697  13.503  13.608   4.007  0.0993  0.0270 -0.2291
 5564W        W21698  17.004   1.676  11.480 -0.0532 -0.0070 -0.0818
 5565W        W21699  11.826   1.395   4.825  0.0014 -0.1867 -0.1714
 5566W        W21700  18.006   6.860  13.939 -0.0151  0.2150  0.1913
 5567W        W21701  14.812  13.140   3.752 -0.1100  0.1444  0.0282
 5568W        W21702  14.838   3.357   0.949 -0.0235  0.2017 -0.1416
 5569W        W21703  12.968   7.450  15.634  0.3740  0.0743 -0.0160
 5570W        W21704  17.089   7.973  10.801  0.1943  0.1016 -0.2681
 5571W        W21705   5.113   0.318   4.983  0.0132 -0.1177 -0.3817
 5572W        W21706   4.823   0.934   5.532 -0.0871 -0.1543 -0.0875
 5573W        W21707  14.073   1.986  10.406  0.0846 -0.0425 -0.2468
 5574W        W21708  16.773  15.404   0.867 -0.5232  0.0313  0.1779
 5575W        W21709  10.593   7.851   0.965 -0.0376 -0.0548 -0.2306
 5576W        W21710  12.190   3.976   0.462  0.1704  0.0581  0.1071
 5577W        W21711  15.821  14.791   2.653  0.0945  0.0362  0.0513
 5578W        W21712  14.288   9.189   5.031  0.2313 -0.3499 -0.1459
 5579W        W21713  17.919  13.554   4.650  0.2973  0.1832  0.2000
 5580W        W21714   6.298  12.494  13.798  0.0013 -0.3750 -0.3347
 5581W        W21715  12.987  10.892   2.944  0.2338 -0.0491  0.1245
 5582W        W21716   7.406  18.350   4.103  0.0966 -0.1742 -0.2505
 5583W        W21717  10.793   3.649  13.103 -0.5705 -0.0255  0.0989
 5584W        W21718   6.440   8.179  14.043  0.2448 -0.1469 -0.2884
 5585W        W21719  16.498  11.625  14.528  0.0938 -0.5529 -0.4343
 5586W        W21720   9.315  12.812   5.611  0.3764  0.1034 -0.0428
 5587W        W21721  10.423  15.498  12.555  0.3805 -0.1613 -0.0200
 5588W        W21722  17.611  16.855   1.969  0.0216 -0.0533  0.3054
 5589W        W21723   6.159  14.760  11.551  0.0161  0.1391 -0.1861
 5590W        W21724  13.604  18.454  12.418 -0.0096 -0.2782 -0.1554
 5591W        W21725  15.092   8.810   4.462  0.0506 -0.1530 -0.0506
 5592W        W21726  16.835   1.026  15.976 -0.0817  0.0617 -0.1092
 5593W        W21727   4.895   1.289  14.297 -0.0009  0.4501 -0.0573
 5594W        W21728  18.248  11.186  10.583 -0.0493 -0.1019 -0.1411
 5595W        W21729   1.022   6.827   2.731 -0.0055 -0.3886  0.0953
 5596W        W21730   9.285  12.180  14.214  0.0084  0.0650 -0.3166
 5597W        W21731   4.557  11.995   1.622 -0.1870  0.0760  0.4308
 5598W        W21732  13.615  17.099  15.054 -0.0532 -0.1981  0.0390
 5599W        W21733  16.776   6.309  13.916  0.0760 -0.0500 -0.0055
 5600W        W21734   3.012   9.813  14.550  0.0396  0.0790 -0.1847
 5601W        W21735   2.760   5.844  12.754 -0.0869 -0.1862  0.1533
 5602W        W21736   7.910   5.910  14.089 -0.0646  0.2104 -0.0222
 5603W        W21737  14.290  12.989  12.687  0.1626  0.3127 -0.1857
 5604W        W21738   5.256   5.791  14.472 -0.2332  0.1347 -0.0635
 5605W        W21739   2.657  14.166  15.904 -0.0365 -0.0445 -0.1823
 5606W        W21740  11.357   3.540   1.652 -0.1007  0.1337  0.0020
 5607W        W21741   9.975   8.557   4.699 -0.0018 -0.3232  0.0058
 5608W        W21742   7.024  15.424   5.284 -0.0558  0.1272 -0.1492
 5609W        W21743  10.103  18.481   5.311  0.1047  0.0060 -0.2929
 5610W        W21744   3.677   7.038   0.310  0.0305  0.0037 -0.0258
 5611W        W21745   4.809   3.591  12.256  0.1031 -0.3691  0.0157
 5612W        W21746  13.321  13.563   4.850 -0.1331  0.4778  0.0772
 5613W        W21747  17.703   1.496   3.578  0.0997  0.2100 -0.0396
 5614W        W21748   0.054   2.055  11.801 -0.0986  0.0169  0.0598
 5615W        W21749  16.784  11.454  16.036 -0.0256 -0.0289 -0.0782
 5616W        W21750   4.221   1.353   0.772 -0.1594  0.2050  0.2340
 5617W        W21751  11.708   1.749   3.526 -0.0456 -0.0313 -0.3026
 5618W        W21752   5.682  15.789  14.875 -0.0401  0.4617  0.0668
 5619W        W21753   3.239  16.160  13.990  0.0034 -0.0377  0.1849
 5620W        W21754  12.423  16.656   3.767  0.3235 -0.1047  0.0768
 5621W        W21755   8.097  16.846  15.887  0.1124  0.1434 -0.0600
 5622W        W21756   5.302  17.804   1.446  0.3153  0.0915  0.3561
 5623W        W21757  10.715   3.471   2.401  0.0538  0.0033 -0.0057
 5624W        W21758   2.071  15.477  12.935 -0.1006  0.1960 -0.2231
 5625W        W21759   2.013  14.053   0.356  0.1047  0.2165 -0.3527
 5626W        W21760  13.792   4.722  13.096 -0.0334  0.2793  0.0971
 5627W        W21761   8.700   8.224   2.980 -0.2053  0.2289  0.0235
 5628W        W21762  14.204  17.958  15.228 -0.3273  0.1487  0.0907
 5629W        W21763  17.175  17.928   2.535 -0.0266  0.2002  0.3052
 5630W        W21764  14.680   6.923  14.651  0.0260 -0.1650 -0.0941
 5631W        W21765   3.213   3.999  12.646 -0.1013  0.3453  0.0111
 5632W        W21766   2.822   6.787   2.062  0.0997  0.0935  0.1712
 5633W        W21767   9.554  14.793   4.649 -0.2008 -0.1226 -0.2347
 5634W        W21768  11.610   9.491   2.336 -0.4094  0.1069 -0.2197
 5635W        W21769   5.687   8.779  14.281  0.0649  0.0942  0.0802
 5636W        W21770   0.293   0.875  13.289 -0.1048  0.0656 -0.3607
 5637W        W21771  17.227  10.496   4.125  0.2652 -0.4263  0.0583
 5638W        W21772   6.809  17.833   1.549  0.0479 -0.0010 -0.1152
 5639W        W21773  16.958  12.805  10.733 -0.2634  0.3944 -0.0821
 5640W        W21774   6.577   5.076  13.923 -0.0915  0.0193  0.1185
 5641W        W21775  16.587   3.455  10.983 -0.3115 -0.0756  0.0954
 5642W        W21776   5.287   3.439   1.231  0.0439 -0.1716  0.1196
 5643W        W21777  17.666   4.204   4.450  0.1379 -0.1253  0.2278
 5644W        W21778  15.471  13.574  12.720 -0.0042  0.0687  0.0972
 5645W        W21779  13.253  15.158   2.386  0.0760  0.0093  0.0546
 5646W        W21780  10.722  14.064   0.749  0.1850 -0.1286 -0.0828
 5647W        W21781   8.891   5.694  15.500 -0.0635 -0.1287 -0.0868
 5648W        W21782   2.875  18.470   1.485 -0.0316  0.0211 -0.0246
 5649W        W21783   3.379   7.310  12.751 -0.0086  0.1923 -0.6697
 5650W        W21784   9.070   9.283  15.406  0.2574  0.2313 -0.1036
 5651W        W21785   4.875   6.869   1.841  0.2788  0.2231 -0.2032
 5652W        W21786  16.812   7.170  14.945  0.2115  0.2013  0.3664
 5653W        W21787   7.498  11.332  14.662 -0.1134 -0.0629 -0.1019
 5654W        W21788  13.925  17.601   2.221 -0.1253  0.1251 -0.2372
 5655W        W21789   8.384   2.340   5.866 -0.5134 -0.3457  0.1533
 5656W        W21790  12.816   0.746  15.317 -0.2166  0.2334  0.2821
 5657W        W21791  17.532  10.292   3.096 -0.0829 -0.0086 -0.1548
 5658W        W21792  16.059  10.092   3.112 -0.0876  0.1894  0.0780
 5659W        W21793  18.042  12.481  10.306 -0.1156  0.1262  0.1209
 5660W        W21794   0.710   4.684   4.574  0.0149  0.1160  0.0954
 5661W        W21795  13.304   2.334  13.325 -0.0388  0.0354  0.2420
 5662W        W21796   8.279   0.874  13.218 -0.1900 -0.1561 -0.1096
 5663W        W21797  18.189   1.335   0.003  0.1247  0.0258 -0.0074
 5664W        W21798  15.195   3.860  13.798  0.1542 -0.3383  0.2163
 5665W        W21799  10.690  11.661   4.832  0.1938  0.1827 -0.0679
 5666W        W21800   1.829   9.425  11.774 -0.2092 -0.1943 -0.0219
 5667W        W21801  18.462  12.038   2.734  0.0436  0.0432 -0.1181
 5668W        W21802   0.378  15.332   3.537 -0.0747  0.0002  0.0716
 5669W        W21803  12.060   9.979  15.040  0.0854  0.1881  0.0860
 5670W        W21804  17.050  12.504  12.170  0.1219  0.2222  0.1246
 5671W        W21805   9.447   6.867  14.498  0.0674 -0.0066 -0.3122
 5672W        W21806  14.018   4.438   5.623  0.0018 -0.0175 -0.1344
 5673W        W21807   2.058   6.020   3.231 -0.1355  0.0736  0.0652
 5674W        W21808  11.409  13.801  12.688  0.0195 -0.0724  0.2165
 5675W        W21809   4.600   0.431   5.273 -0.2341 -0.0073 -0.2580
 5676W        W21810   2.887   6.411  14.993  0.1050  0.0789  0.0428
 5677W        W21811   4.246  10.983  11.281 -0.2403  0.2638 -0.0505
 5678W        W21812  11.290  17.533  15.336 -0.2719 -0.0119  0.2195
 5679W        W21813   0.845   8.580   4.801  0.0415  0.1274  0.4360
 5680W        W21814  11.517  14.832  14.481  0.0686  0.0189  0.1614
 5681W        W21815  11.704   0.126  15.185 -0.1853  0.2302 -0.0753
 5682W        W21816   4.732   2.275  16.069 -0.1811 -0.2824 -0.3523
 5683W        W21817   5.926   2.158   0.531  0.0251 -0.0515 -0.0868
 5684W        W21818   0.457  14.391  13.984  0.1730 -0.1394 -0.1324
 5685W        W21819   1.327  17.274   4.958  0.1012 -0.2894 -0.0690
 5686W        W21820   8.737   2.508   5.430 -0.2082  0.0659  0.1374
 5687W        W21821   4.315   4.710  10.837  0.1582  0.1431  0.2263
 5688W        W21822  11.851   4.041   4.941  0.1099  0.2782  0.1473
 5689W        W21823   4.293  15.385   1.734  0.0187 -0.0669 -0.0272
 5690W        W21824   1.730   2.701  12.942 -0.1318 -0.1179 -0.2227
 5691W        W21825  15.665  15.875  10.816  0.2591  0.3841  0.0774
 5692W        W21826   9.939  10.881  14.807  0.1500  0.0943  0.1559
 5693W        W21827  12.545  17.342  14.201 -0.0661 -0.1422 -0.0691
 5694W        W21828  11.727  13.927  14.834 -0.0400 -0.3253  0.0145
 5695W        W21829  15.115  14.925  14.224 -0.0363 -0.1045 -0.1493
 5696W        W21830  10.097  14.347   6.604 -0.0007 -0.1200  0.1243
 5697W        W21831   9.280   4.261   3.325  0.1577 -0.1574 -0.0278
 5698W        W21832   7.350   0.384  13.453  0.2204  0.0525 -0.0828
 5699W        W21833  15.816   5.849  15.524  0.4081 -0.2271 -0.2048
 5700W        W21834   8.319  11.082  15.799 -0.3386  0.0016  0.0219
 5701W        W21835   3.559  13.253  13.952 -0.2581 -0.1179 -0.0040
 5702W        W21836  15.671  14.357  13.192 -0.1696  0.2779 -0.0482
 5703W        W21837   0.234   8.320   3.001 -0.0599  0.3621 -0.1434
 5704W        W21838   7.861   5.735   0.001 -0.1814 -0.2985  0.0360
 5705W        W21839  15.956   1.731   3.508  0.0756  0.3650  0.0920
 5706W        W21840  14.057  11.909   3.062 -0.6017  0.0794  0.0844
 5707W        W21841  17.999   8.323   2.309 -0.3214  0.2519 -0.0933
 5708W        W21842   3.312  11.373   0.819  0.0141  0.1198 -0.2201
 5709W        W21843   8.072   7.560   4.510  0.0806  0.0831 -0.1193
 5710W        W21844  13.243  16.276   2.252  0.0376 -0.2071  0.2370
 5711W        W21845  14.045   2.413   5.688  0.0680  0.1112  0.1059
 5712W        W21846   3.365  10.982   4.430 -0.0460  0.0511 -0.3341
 5713W        W21847   7.840  16.138   2.759  0.1560  0.1281 -0.0549
 5714W        W21848   8.923   4.193   1.528  0.0275 -0.1311 -0.0650
 5715W        W21849   2.889   6.315   4.393 -0.0091  0.1631 -0.0710
 5716W        W21850  15.087  10.418   3.432 -0.0698  0.0195 -0.0160
 5717W        W21851  13.498   2.931  12.015 -0.0159  0.0641 -0.1109
 5718W        W21852  14.110   4.953  13.508 -0.3067  0.1093  0.3276
 5719W        W21853  15.035  14.079   2.335  0.4681  0.1017 -0.3140
 5720W        W21854  12.086   0.781  15.957 -0.1897 -0.1124 -0.4265
 5721W        W21855   6.087  16.059   6.071  0.0110  0.0141 -0.1273
 5722W        W21856  14.921   6.168  13.355  0.1198  0.4297  0.0007
 5723W        W21857   0.213   4.240   3.835 -0.2265  0.1683  0.1220
 5724W        W21858   5.279  14.196   3.959 -0.0897  0.0714 -0.1260
 5725W        W21859   9.544  13.077   4.396  0.0450  0.2680  0.2120
 5726W        W21860   4.628  16.362   3.353 -0.2186 -0.0964  0.0647
 5727W        W21861  17.084   9.041  13.947  0.2052  0.0421  0.1787
 5728W        W21862  13.709   1.795   1.585  0.0117  0.1021  0.1693
 5729W        W21863   5.179   9.151  13.511  0.0214  0.0119 -0.1032
 5730W        W21864   1.719  14.052   2.394 -0.0036  0.1322  0.2353
 5731W        W21865   6.487   4.967   3.217  0.2922  0.1903  0.1647
 5732W        W21866   0.599  12.441  12.482  0.0472  0.2473  0.1786
 5733W        W21867  14.206  12.973   4.416  0.1749 -0.0914  0.0458
 5734W        W21868   0.742  12.722  10.982  0.0523 -0.0452  0.0600
 5735W        W21869   2.766   4.086  14.209 -0.4628 -0.2984 -0.0475
 5736W        W21870   3.770   4.232  14.368  0.3013 -0.0710  0.0262
 5737W        W21871   2.943  17.731  13.186 -0.1806 -0.1534 -0.0485
 5738W        W21872   6.322  12.630   3.111 -0.3442  0.0454 -0.2181
 5739W        W21873  16.151  14.308   1.968  0.2417 -0.3091  0.0484
 5740W        W21874   6.271   7.808   5.207 -0.3215 -0.1812  0.1280
 5741W        W21875   6.002   2.250  14.581  0.2230  0.0177 -0.0107
 5742W        W21876   1.829   8.915  12.371  0.0414 -0.1410 -0.3137
 5743W        W21877  11.839  15.166   4.921 -0.1623 -0.3140 -0.1449
 5744W        W21878   3.778  16.238  15.704  0.0293 -0.3302 -0.2119
 5745W        W21879  10.416  11.242  15.195  0.1670  0.1988 -0.0091
 5746W        W21880   3.089  15.129   4.885 -0.2512  0.1853 -0.0394
 5747W        W21881   0.933  17.111   4.678 -0.0381  0.0894 -0.0010
 5748W        W21882  12.488  14.053  12.905 -0.0077 -0.0596  0.0322
 5749W        W21883  18.471  13.156  12.056  0.1104  0.0221  0.1602
 5750W        W21884  14.208   7.686   0.744  0.1194  0.0556  0.0631
 5751W        W21885   6.793   4.628   2.714  0.2693  0.0340 -0.1347
 5752W        W21886  16.183  12.941   0.415  0.1377  0.2562 -0.0170
 5753W        W21887  15.832   5.988   4.392 -0.0156 -0.2013  0.5654
 5754W        W21888  16.909   8.129   3.568  0.0091 -0.2286  0.0827
 5755W        W21889   5.751  17.425   1.490 -0.2401 -0.2520  0.1587
 5756W        W21890   1.767   4.573   2.851  0.0776 -0.2344  0.0819
 5757W        W21891  14.037   2.156  15.438  0.0539  0.1759  0.0501
 5758W        W21892   7.094   0.458  12.968 -0.2664  0.1581 -0.1920
 5759W        W21893  13.049   2.116  15.137 -0.2026 -0.1039  0.2388
 5760W        W21894   4.853  17.355   0.319  0.0034 -0.0617  0.0694
 5761W        W21895  11.759  12.698  12.945  0.0825  0.2221 -0.4091
 5762W        W21896  14.380   6.757  13.252  0.3573  0.1253  0.2210
 5763W        W21897   3.271  12.311   0.197 -0.0965  0.3771  0.2954
 5764W        W21898  12.482   8.295   2.399 -0.3416  0.3648  0.1872
 5765W        W21899  16.849  13.458  14.976 -0.0639  0.2696  0.1947
 5766W        W21900  17.371  16.813   4.242  0.0525 -0.0764  0.0403
 5767W        W21901  16.384  13.904   0.647 -0.1013 -0.0683 -0.0095
 5768W        W21902  10.695  18.241   2.333  0.1996 -0.0121 -0.1283
 5769W        W21903  15.641  11.518   9.855 -0.0757  0.0571 -0.0379
 5770W        W21904   3.961   4.915   0.472  0.1345  0.1268 -0.1313
 5771W        W21905   2.644  11.817   1.720 -0.2526  0.0987  0.2816
 5772W        W21906   4.680  17.181   3.113 -0.1564  0.3682 -0.1631
 5773W        W21907  15.021   8.778  12.177 -0.1226 -0.0571 -0.2000
 5774W        W21908  16.081  11.283   4.633  0.1330  0.0256  0.1636
 5775W        W21909   1.344   4.243  11.217  0.1494  0.1933  0.0227
 5776W        W21910  11.180  14.498   0.273 -0.3333 -0.0148  0.1503
 5777W        W21911   0.666  17.581  10.797  0.1864  0.2615  0.1446
 5778W        W21912   4.035  16.982  11.655  0.3361 -0.0102 -0.1541
 5779W        W21913  14.955  17.895   1.153 -0.2070 -0.0990  0.2386
 5780W        W21914   8.422  15.030  14.360 -0.0019  0.3354  0.0668
 5781W        W21915   6.161   3.388  13.675 -0.1767 -0.0652  0.0545
 5782W        W21916   3.533   3.121  12.909  0.3163 -0.0789  0.2495
 5783W        W21917  17.752   4.844  13.064 -0.1131 -0.0330  0.3327
 5784W        W21918  12.432   6.768   0.912  0.3581  0.2029  0.4434
 5785W        W21919   5.341   5.393   1.156 -0.2913 -0.1394  0.1484
 5786W        W21920   1.117   1.882   3.067 -0.0091  0.2746 -0.0140
 5787W        W21921   0.941  16.844  11.368 -0.2048 -0.1378  0.2286
 5788W        W21922   0.267  14.344  12.570  0.3467  0.1363 -0.0928
 5789W        W21923  15.151  14.995   3.646 -0.0593 -0.1031  0.2869
 5790W        W21924   0.392   4.410   1.544 -0.1477 -0.1068 -0.3447
 5791W        W21925   0.623  13.963  13.606 -0.1157 -0.0243  0.0354
 5792W        W21926   6.024   6.808   2.514 -0.0926  0.2835  0.0741
 5793W        W21927   4.113   4.588  13.065 -0.2481 -0.0701 -0.2403
 5794W        W21928   7.692   1.560  12.211 -0.2539  0.0523 -0.0411
 5795W        W21929   5.741  12.923   0.708  0.1119  0.2755 -0.1477
 5796W        W21930   3.630  15.017   4.701 -0.1434  0.2296 -0.0959
 5797W        W21931  10.093  13.366   0.061  0.0550  0.1071 -0.2713
 5798W        W21932  13.157  14.046  13.391 -0.0789 -0.0858  0.0484
 5799W        W21933  17.684   9.553   0.541  0.0318 -0.2281 -0.3281
 5800W        W21934   0.719  11.487  11.751  0.5854 -0.1810 -0.1401
 5801W        W21935  14.498   2.379  12.721 -0.2351 -0.0086  0.2145
 5802W        W21936   1.553  18.094   3.154 -0.0306  0.3906 -0.0207
 5803W        W21937  16.610  16.144  10.790 -0.1710 -0.0909 -0.1918
 5804W        W21938   4.136  14.519  15.916 -0.1547  0.1757 -0.1352
 5805W        W21939   6.722   9.625  14.167  0.0392  0.0844  0.1111
 5806W        W21940  15.800   0.646  12.843  0.1482  0.4172 -0.0645
 5807W        W21941  15.204  10.066  14.704 -0.1213 -0.2435 -0.0527
 5808W        W21942  13.123  13.006   2.436  0.0472 -0.1215 -0.0533
 5809W        W21943  15.642  16.677   4.685  0.0281  0.1314 -0.4358
 5810W        W21944  10.256  11.166   0.528 -0.2524 -0.2016  0.3165
 5811W        W21945  16.321   8.597  11.767 -0.0277  0.0566  0.2247
 5812W        W21946  17.668   8.751   2.230  0.3480  0.0132 -0.6242
 5813W        W21947   3.445  15.734  14.263 -0.1015  0.0453 -0.2335
 5814W        W21948   2.104  11.010   1.389  0.2083  0.2248  0.1884
 5815W        W21949  15.872  14.031   5.558  0.3665 -0.3687  0.1630
 5816W        W21950  11.050  14.752   3.975  0.4430  0.2293  0.1738
 5817W        W21951   4.417   9.842   9.906 -0.1539 -0.1225 -0.3819
 5818W        W21952   2.607  17.592  13.536 -0.1534 -0.0352 -0.0104
 5819W        W21953   4.483   3.900  12.954  0.0859  0.0576 -0.0988
 5820W        W21954  15.827   0.988   4.330 -0.0535  0.0934 -0.0230
 5821W        W21955   1.213   5.088   9.940  0.2856  0.0534  0.0738
 5822W        W21956   9.294  15.063   5.197  0.0218 -0.3164 -0.2537
 5823W        W21957  15.401   4.278  14.020 -0.0255  0.1709 -0.0416
 5824W        W21958   6.847   0.636   0.605  0.0742 -0.0930 -0.0289
 5825W        W21959  14.932   3.448   5.388 -0.0095  0.1896 -0.1223
 5826W        W21960   7.318  15.131   2.652 -0.0663  0.0782  0.0551
 5827W        W21961  11.364   2.763   5.531  0.1082 -0.4451  0.0635
 5828W        W21962   5.821  15.021  12.761  0.3185  0.1773 -0.0948
 5829W        W21963  10.420  11.596   0.316 -0.2373  0.1859 -0.0125
 5830W        W21964  14.460  16.288   2.778 -0.0000  0.0919  0.2287
 5831W        W21965  14.153  12.402  14.101  0.3348  0.1238 -0.0366
 5832W        W21966   6.712   8.942  16.005  0.0732 -0.0134  0.0850
 5833W        W21967   8.364  16.603  12.648  0.2748  0.0615 -0.3605
 5834W        W21968  10.939  16.397  15.268 -0.1940  0.2121  0.2237
 5835W        W21969   3.063  15.581  11.150 -0.1107 -0.1515  0.2411
 5836W        W21970   1.651   6.335  15.481 -0.4565  0.2730 -0.0098
 5837W        W21971  17.816   9.843   1.017 -0.1404  0.2587  0.1990
 5838W        W21972  17.275   4.033   4.720 -0.3305  0.2295 -0.0858
 5839W        W21973   4.450  15.296   5.983 -0.0275  0.0989 -0.2159
 5840W        W21974  14.316   9.298  11.985  0.3702 -0.3446  0.2417
 5841W        W21975  12.150  17.288   3.300  0.1158  0.1017 -0.0901
 5842W        W21976  17.495   1.140  12.726  0.2884 -0.1145  0.0110
 5843W        W21977  10.854  11.592   1.101 -0.2019  0.1265 -0.0242
 5844W        W21978   9.331  17.484  13.802  0.0803 -0.1470 -0.1251
 5845W        W21979  17.028  17.132  14.293  0.2005 -0.0771 -0.2095
 5846W        W21980  17.143   2.988  13.708 -0.1632  0.0051  0.3344
 5847W        W21981   9.859   0.844  15.009 -0.2151 -0.1411  0.1966
 5848W        W21982   0.101   3.919   2.470 -0.1276  0.0961 -0.1415
 5849W        W21983   8.042  14.940   3.948 -0.4351 -0.1972 -0.2232
 5850W        W21984  13.588  15.318   2.035  0.0733  0.0203  0.2377
 5851W        W21985  18.376  16.255  10.117 -0.2461  0.3795  0.1638
 5852W        W21986   2.536  18.438  14.141 -0.0271 -0.2894  0.0057
 5853W        W21987  10.346  13.716   0.953  0.3017  0.1200 -0.2406
 5854W        W21988   3.196  10.533   4.254  0.0245 -0.0432 -0.0195
 5855W        W21989  11.877   1.306   1.613 -0.1282  0.1410 -0.0082
 5856W        W21990   4.180  11.662   4.388 -0.2305 -0.0658 -0.1718
 5857W        W21991   6.979   6.446   2.513 -0.1519  0.0346 -0.5055
 5858W        W21992  14.375   5.959  11.974 -0.1767 -0.0981 -0.3436
 5859W        W21993   9.229  11.695   6.061 -0.0732 -0.1268 -0.3972
 5860W        W21994   6.984   1.146   4.967 -0.1281  0.2886 -0.2334
 5861W        W21995   6.128  14.929   2.652  0.1741 -0.1119  0.4075
 5862W        W21996   5.317   9.421   0.032  0.0682  0.1393  0.1029
 5863W        W21997   5.420  13.675   2.174  0.2139 -0.3022 -0.3899
 5864W        W21998   5.764   3.216  16.086  0.1071  0.1983  0.2953
 5865W        W21999   5.656  16.415  14.172  0.1798  0.2301 -0.1718
 5866W        W22000  14.871   3.191  13.434  0.1207 -0.0789 -0.0443
 5867W        W22001  12.098   9.300  10.650  0.1776  0.0748 -0.2410
 5868W        W22002  11.929   1.776  14.587 -0.2212 -0.4345  0.0070
 5869W        W22003  17.173  14.723  11.547  0.4107  0.2547  0.3720
 5870W        W22004   5.100  10.978  14.242 -0.1394 -0.0686 -0.0096
 5871W        W22005  17.552  14.231  12.124 -0.0590  0.1533  0.1786
 5872W        W22006  10.223   6.157   0.238 -0.2033  0.1554  0.1462
 5873W        W22007   7.193   3.425  15.682  0.3277 -0.1533  0.1836
 5874W        W22008  17.477   2.855  12.732  0.0575 -0.3594  0.1145
 5875W        W22009   4.619   3.748   3.305 -0.0083  0.1270  0.2499
 5876W        W22010   5.307   5.336   2.643  0.0884  0.0371  0.0616
 5877W        W22011   0.547   8.934  13.200 -0.1597  0.1620 -0.2586
 5878W        W22012  15.733  11.518  13.697 -0.0354 -0.0552 -0.1273
 5879W        W22013  17.482   1.942   0.216 -0.5536 -0.1846 -0.1869
 5880W        W22014   8.410  18.277   2.073  0.1412  0.0273  0.0181
 5881W        W22015   6.409  13.165   3.134 -0.0657  0.0823 -0.1970
 5882W        W22016  12.472   2.222   2.320  0.1500 -0.2212  0.0635
 5883W        W22017  17.705   2.028   2.025 -0.2533  0.1134 -0.2575
 5884W        W22018   4.689  15.354   3.335  0.1447  0.0552  0.1689
 5885W        W22019   8.775   4.992  14.043  0.0618  0.2605 -0.0985
 5886W        W22020  10.892  14.239   4.529 -0.2453 -0.1067  0.1116
 5887W        W22021   3.870  11.318   4.734  0.0332 -0.1942 -0.0108
 5888W        W22022  13.444  10.844   3.177  0.0417  0.1085  0.0005
 5889W        W22023   3.569   1.909  12.260 -0.0611  0.0771 -0.0670
 5890W        W22024  15.497   6.263   2.680 -0.3019 -0.0248 -0.2552
 5891W        W22025   8.733   0.459   1.442 -0.2386 -0.0193  0.1219
 5892W        W22026  18.034  13.854   3.397  0.3159  0.1621 -0.0838
 5893W        W22027  16.796   9.783  14.968  0.2891  0.2852 -0.3708
 5894W        W22028   9.815   0.691  12.179  0.2417 -0.0463  0.2690
 5895W        W22029  18.195   4.570   2.996  0.1776 -0.1570 -0.1190
 5896W        W22030   4.102  10.489   3.819  0.0124  0.1001  0.3006
 5897W        W22031   2.433  11.461   1.296  0.1900  0.0556  0.3444
 5898W        W22032  10.860  16.825  11.984 -0.3225  0.2604  0.1330
 5899W        W22033   5.714   7.515  13.912 -0.0219  0.1291  0.1540
 5900W        W22034  18.284  10.063  14.811  0.3373  0.3781  0.0241
 5901W        W22035  13.659  14.168  14.299 -0.0603 -0.0814  0.0755
 5902W        W22036  11.983  16.770   4.147  0.0615  0.0114  0.0792
 5903W        W22037  15.137   5.017   3.775  0.0769 -0.3667 -0.0899
 5904W        W22038  10.688  16.324  12.881  0.0475 -0.2956  0.0051
 5905W        W22039  12.074   3.543  12.296  0.1546  0.2185  0.1671
 5906W        W22040   5.864   7.678  13.437  0.0680 -0.1718 -0.4577
 5907W        W22041   5.725   4.359   2.215  0.3774  0.2644 -0.1434
 5908W        W22042   8.512   2.908   2.107 -0.2446 -0.4454  0.1220
 5909W        W22043   8.293   6.094   4.470 -0.2134 -0.1733 -0.0224
 5910W        W22044   8.785   9.608  15.684 -0.2601  0.1877  0.0476
 5911W        W22045   9.551   9.659  11.970  0.3269 -0.2460  0.2060
 5912W        W22046  13.509  15.053  13.876 -0.1914  0.1687  0.1224
 5913W        W22047   6.704   9.978   5.314  0.1595 -0.2549  0.0900
 5914W        W22048  12.803  10.059  15.435 -0.2127  0.3146  0.0908
 5915W        W22049   3.163  14.106   2.695  0.1058  0.0689 -0.1458
 5916W        W22050  15.449   8.426   4.569 -0.0196 -0.2086  0.0340
 5917W        W22051  10.542  11.482   3.110  0.3247 -0.2098  0.1733
 5918W        W22052   3.353  10.969  11.124  0.1609  0.2187  0.1062
 5919W        W22053   8.882  15.040   2.635  0.0174  0.2578  0.3193
 5920W        W22054   7.013   3.007   3.570 -0.1069  0.0039  0.1029
 5921W        W22055  16.264  14.720  12.026 -0.0376  0.2815 -0.0104
 5922W        W22056  13.435  13.757  15.122  0.0645 -0.0701 -0.2004
 5923W        W22057   1.306   9.522   5.198 -0.0934 -0.0163  0.3973
 5924W        W22058   3.623   8.888  12.574 -0.2368 -0.1822  0.2747
 5925W        W22059  18.140  10.389   1.677  0.0841 -0.2460 -0.1761
 5926W        W22060   1.409   0.938   0.161  0.0223  0.1460  0.0309
 5927W        W22061   7.943   8.099  12.358  0.1670 -0.2354 -0.2484
 5928W        W22062   5.580   6.362   4.414  0.1261  0.0580 -0.0611
 5929W        W22063   2.338   8.010  15.656  0.0396  0.1832 -0.1887
 5930W        W22064  16.107   5.496   2.810 -0.0352  0.0996 -0.1375
 5931W        W22065  13.244   8.148   2.105 -0.0909 -0.2524 -0.0437
 5932W        W22066  15.272  15.629   1.677  0.0643 -0.1046 -0.2075
 5933W        W22067  16.589   3.120  11.340  0.1408 -0.0222 -0.0703
 5934W        W22068  12.735   0.037   5.301 -0.0508  0.0393  0.1240
 5935W        W22069   2.721   1.889  11.139  0.3799 -0.1198  0.1510
 5936W        W22070   9.883  15.567   4.539 -0.0456 -0.0537 -0.0047
 5937W        W22071  11.982   0.873   4.944  0.2244  0.2929  0.2630
 5938W        W22072   2.298  13.489   4.132  0.1493 -0.2103  0.0137
 5939W        W22073  15.065  15.286   4.915  0.2490 -0.1134 -0.0418
 5940W        W22074   6.975   9.386  12.422 -0.0179 -0.2775 -0.5034
 5941W        W22075  10.448   4.329  15.666  0.2835 -0.1488  0.2177
 5942W        W22076   9.640  16.324  14.386  0.2000 -0.2107 -0.1053
 5943W        W22077  10.062  15.094  12.143  0.2316 -0.1565  0.1326
 5944W        W22078  13.280  13.996   1.186  0.1194 -0.1833  0.0160
 5945W        W22079   8.564   0.585   2.268  0.1070  0.1821 -0.2039
 5946W        W22080  17.421  10.130   1.740 -0.0081 -0.2189 -0.1178
 5947W        W22081   3.864   3.358  15.785  0.1187 -0.1503  0.3716
 5948W        W22082   2.562  13.940   0.379 -0.0352 -0.1834 -0.1295
 5949W        W22083   2.441   3.438   5.632  0.0424 -0.0982  0.1483
 5950W        W22084  15.416  13.930  15.306  0.0420  0.1455 -0.0003
 5951W        W22085   0.923   4.130  10.921  0.0691  0.0441 -0.3865
 5952W        W22086  14.369   4.032  14.365 -0.3774 -0.2209 -0.0417
 5953W        W22087  14.545   6.011   1.176  0.0549  0.1303 -0.0371
 5954W        W22088  18.474  14.195  15.408  0.1482 -0.2212  0.0414
 5955W        W22089  10.060  11.187  12.848 -0.1848  0.1463  0.4616
 5956W        W22090  15.893  14.985   5.126 -0.1784  0.0139 -0.3552
 5957W        W22091   9.298  14.355   4.951  0.2217 -0.0186 -0.2910
 5958W        W22092  13.895  16.157   0.027 -0.2878 -0.1063 -0.1518
 5959W        W22093   1.339   2.248   2.169  0.3298  0.0788 -0.1846
 5960W        W22094  15.707   8.395   1.498 -0.2874 -0.1148 -0.1365
 5961W        W22095  13.089   2.743  12.609 -0.1086 -0.0092  0.3007
 5962W        W22096   1.130   9.226   2.614  0.2268 -0.0258  0.1251
 5963W        W22097   3.952  13.108   0.433 -0.0487 -0.0904 -0.4164
 5964W        W22098   4.079   7.799  15.898  0.0779  0.2220  0.2035
 5965W        W22099  11.696   4.585   1.341  0.1201 -0.2343  0.0563
 5966W        W22100  12.020  15.673   3.709  0.0550  0.0569  0.4058
 5967W        W22101   0.011  14.042   4.429 -0.4603  0.1028  0.2357
 5968W        W22102   8.372   4.412   4.198 -0.1748  0.1262 -0.0889
 5969W        W22103  17.691  14.003  14.949  0.0668 -0.1175  0.0629
 5970W        W22104  16.831   6.156   0.443  0.0213  0.0171  0.1259
 5971W        W22105   6.987   3.858  15.889  0.0566  0.1596  0.0029
 5972W        W22106  15.874   8.171  14.695  0.1127 -0.5611  0.2606
 5973W        W22107   5.166  16.843  15.794  0.2990 -0.0477 -0.1948
 5974W        W22108  15.639  12.222   4.705 -0.1929 -0.1167 -0.3341
 5975W        W22109   4.350  12.060   0.728  0.0845 -0.1438 -0.2620
 5976W        W22110  17.443  17.138   0.987 -0.0579  0.0589  0.2423
 5977W        W22111  12.547  13.825   3.215 -0.2847  0.0609 -0.0049
 5978W        W22112  12.535   7.578   1.233 -0.0143  0.1896  0.2956
 5979W        W22113   9.653   5.811   1.463  0.0553  0.0669 -0.0294
 5980W        W22114   9.454   4.384   2.229  0.1151  0.2866 -0.2017
 5981W        W22115  15.660   7.486   3.586 -0.0824 -0.2789  0.0727
 5982W        W22116  18.158  12.810   2.125  0.1415 -0.2114 -0.0785
 5983W        W22117  12.143   7.540  14.509 -0.2192  0.1582  0.0789
 5984W        W22118   9.304   2.063   0.071 -0.1520  0.2276 -0.0063
 5985W        W22119   1.675  12.309  14.457 -0.1251  0.2219  0.0327
 5986W        W22120   1.153  15.226  10.985 -0.0628 -0.2027  0.2230
 5987W        W22121   6.057   8.267   2.034 -0.0262  0.1141  0.1771
 5988W        W22122   7.462   9.217   4.568  0.2375  0.1181 -0.3920
 5989W        W22123   7.975   0.397   3.567 -0.1103  0.1073 -0.2144
 5990W        W22124   1.949  14.707   4.645 -0.1527  0.1041  0.1605
 5991W        W22125  14.953   9.315  14.940 -0.1249 -0.1610 -0.0540
 5992W        W22126  11.008   4.487   0.755 -0.4836 -0.0004 -0.0588
 5993W        W22127  17.141   3.309   5.083 -0.2896  0.1070  0.1303
 5994W        W22128  14.768   0.602   3.169 -0.2052 -0.3145 -0.1419
 5995W        W22129   4.385   8.754  14.921 -0.0189 -0.0800 -0.1096
 5996W        W22130  18.331  12.401   2.303  0.1846 -0.0690  0.3185
 5997W        W22131   0.153  12.193  11.877 -0.4052  0.1110 -0.2382
 5998W        W22132   5.745  14.943  14.014 -0.0737 -0.2055  0.1900
 5999W        W22133  12.396   9.768  15.360  0.1104  0.2131  0.0631
 6000W        W22134  17.187   0.672  14.790 -0.0823 -0.3555 -0.1136
 6001W        W22135   4.339   6.688   3.905 -0.2013  0.0310  0.0520
 6002W        W22136  13.051  10.525   1.545  0.0602 -0.2976 -0.0724
 6003W        W22137   7.646   6.494  11.937  0.0488 -0.1828  0.1845
 6004W        W22138   6.146   9.316   4.222  0.0207 -0.1409  0.0356
 6005W        W22139   4.385   5.215  10.923 -0.2183 -0.1013  0.0350
 6006W        W22140  16.991   8.240  13.144 -0.0024 -0.0528  0.1954
 6007W        W22141  12.427  12.291   1.622 -0.3461  0.4020  0.0536
 6008W        W22142   8.548  10.975  12.183 -0.1090 -0.2152 -0.1613
 6009W        W22143  10.060   1.515  15.321 -0.1649 -0.0931 -0.1547
 6010W        W22144  11.504   3.442  13.799 -0.2463 -0.2021  0.2186
 6011W        W22145  11.751   9.823   0.275 -0.0457  0.1693 -0.0914
 6012W        W22146  13.376   7.480   4.312 -0.0672 -0.1495  0.0124
 6013W        W22147   6.785   1.868   1.825  0.0693  0.0105 -0.2404
 6014W        W22148   5.084   2.685   0.745  0.0993 -0.0250 -0.1223
 6015W        W22149  10.805  13.953   3.585  0.0016  0.3027  0.1934
 6016W        W22150   8.841  16.799  11.268 -0.0397 -0.0993  0.0183
 6017W        W22151   1.026   9.345   1.582 -0.0007  0.0512  0.0718
 6018W        W22152   9.790   0.363   4.911  0.0609  0.1288 -0.3661
 6019W        W22153  18.453   8.101  13.253 -0.3778 -0.0790 -0.1208
 6020W        W22154   7.725  12.633   3.536  0.0578 -0.1769  0.1132
 6021W        W22155  13.703   2.547  13.547 -0.0949  0.0085  0.2698
 6022W        W22156  10.561  15.998   0.507 -0.1022 -0.1496  0.0518
 6023W        W22157   9.659  14.510  15.725  0.3318 -0.1209 -0.1070
 6024W        W22158   2.211   3.508   0.752 -0.2476  0.0942 -0.0620
 6025W        W22159  14.940   8.657  13.198  0.0885  0.0439  0.0205
 6026W        W22160  11.309  18.204  11.968  0.0192 -0.3120 -0.1153
 6027W        W22161   9.396  11.704   0.973  0.1123 -0.1189  0.0056
 6028W        W22162   2.274  17.064  14.244  0.1208  0.0377  0.1908
 6029W        W22163  13.034   4.578   3.192  0.0171  0.0320  0.1913
 6030W        W22164  17.570   6.186   0.873 -0.0910 -0.4670 -0.2078
 6031W        W22165   3.316   1.443   3.971 -0.2450  0.0283 -0.3124
 6032W        W22166   5.285   0.336   1.320 -0.1283  0.3371  0.2996
 6033W        W22167   3.635   7.953   0.545 -0.0962 -0.0608 -0.1064
 6034W        W22168  16.110  12.688  16.087  0.2726  0.0624 -0.0584
 6035W        W22169   7.501   0.715  12.742  0.3651 -0.0983  0.2457
 6036W        W22170   2.942  15.421  15.689  0.0951 -0.2856  0.1020
 6037W        W22171   5.140  17.008  13.138 -0.0491  0.0153  0.0953
 6038W        W22172  15.886  14.580  15.922  0.0655 -0.1576 -0.1535
 6039W        W22173   3.571  12.894   0.782  0.0388  0.3350  0.3743
 6040W        W22174  17.023   2.562   0.311  0.2103 -0.0283 -0.0428
 6041W        W22175   3.886   0.886   4.624 -0.0299  0.2677 -0.1500
 6042W        W22176   7.928   4.777   2.180  0.0395 -0.0463 -0.1150
 6043W        W22177  17.951  16.416  10.408  0.1175 -0.0495 -0.2643
 6044W        W22178   4.082  12.715   2.944 -0.2185 -0.0964 -0.2285
 6045W        W22179   9.155  15.141  13.230 -0.3945 -0.0744 -0.0712
 6046W        W22180   4.228  12.724  11.619 -0.2783 -0.0163  0.0870
 6047W        W22181   2.991   6.065  13.568  0.2579  0.1268  0.0026
 6048W        W22182   5.834   4.648  15.082  0.1174  0.1039  0.1621
 6049W        W22183   4.165   4.962   3.742  0.3078 -0.0380 -0.0518
 6050W        W22184   1.809  14.344   4.225 -0.0119 -0.0335  0.0038
 6051W        W22185  15.518   4.736   3.993  0.0620  0.1891  0.0163
 6052W        W22186   3.753  10.227   4.127 -0.2860 -0.2068  0.0021
 6053W        W22187  12.806   5.146   2.600  0.0033  0.0289  0.0008
 6054W        W22188   5.248  17.317   1.480 -0.2102 -0.2294  0.0911
 6055W        W22189  15.272  11.823  15.638 -0.0107 -0.4334 -0.3042
 6056W        W22190  16.798  18.354  12.353 -0.2125 -0.3206  0.1398
 6057W        W22191  13.282   2.030   4.664 -0.0645 -0.1702 -0.1131
 6058W        W22192  15.828  12.578   4.286  0.1315 -0.0981 -0.0830
 6059W        W22193   0.531   0.761  14.698  0.0530  0.0606  0.1483
 6060W        W22194   2.263   4.775   4.425 -0.2137  0.3571  0.0485
 6061W        W22195  13.168   5.094   5.541 -0.0625  0.6037  0.1270
 6062W        W22196  16.431   2.478   3.363  0.2768 -0.3997 -0.2244
 6063W        W22197  12.081  12.378  15.237  0.0646 -0.0234  0.0588
 6064W        W22198  15.178   0.225   4.352  0.1130 -0.3532 -0.2241
 6065W        W22199   7.618   0.231   3.927 -0.0296 -0.0294 -0.0545
 6066W        W22200   4.192   7.709   4.300  0.0584 -0.1713 -0.0527
 6067W        W22201  15.118  17.453   2.975 -0.0352  0.2990 -0.0387
 6068W        W22202  11.985  15.393  11.917 -0.0146  0.1692 -0.0958
 6069W        W22203   6.442  12.668  15.681 -0.2934  0.1194 -0.0503
 6070W        W22204   3.204  11.920  11.211  0.0564 -0.1745  0.0647
 6071W        W22205   3.568   5.096  12.213 -0.1154 -0.0997 -0.1479
 6072W        W22206   0.104  11.373  11.562  0.1104 -0.0026  0.0098
 6073W        W22207   8.853  17.064   4.605  0.0229  0.2687  0.0066
 6074W        W22208   3.532   9.485   2.549  0.2208  0.0042 -0.0186
 6075W        W22209   1.976   3.932   0.754 -0.1012  0.0222  0.1150
 6076W        W22210  12.931   0.701  13.996  0.2042  0.1672  0.1858
 6077W        W22211   7.713  18.100  13.864 -0.3070  0.3402  0.1734
 6078W        W22212  14.615   9.960   1.494  0.3091 -0.1144  0.1595
 6079W        W22213  16.267  16.621  11.512 -0.0021  0.0348 -0.0146
 6080W        W22214   2.249   9.870   5.236  0.0756 -0.1098 -0.1112
 6081W        W22215   1.205  12.998  15.434 -0.0997 -0.1861  0.0712
 6082W        W22216   9.081  12.505   4.119  0.1743 -0.1878  0.0208
 6083W        W22217  15.112  17.029  13.735  0.0117 -0.1077  0.0173
 6084W        W22218   3.916   2.514   2.206 -0.0635  0.0687 -0.0453
 6085W        W22219  11.182   3.906   0.348 -0.1907 -0.2224  0.1090
 6086W        W22220   1.256   1.682  14.860 -0.3388 -0.0691 -0.0956
 6087W        W22221   6.098   6.037  14.198  0.0998  0.0024 -0.2511
 6088W        W22222   7.385   9.950  11.213  0.3336  0.3993  0.2784
 6089W        W22223  12.978   4.996   1.896 -0.2050 -0.0168  0.2406
 6090W        W22224   0.375  12.735  14.203 -0.3973 -0.0603  0.1304
 6091W        W22225  11.747   4.079   5.474  0.0746 -0.0917  0.2655
 6092W        W22226  12.652  13.613   0.447  0.1689  0.0920  0.1146
 6093W        W22227  15.101  16.984   5.580  0.5111 -0.0157 -0.3411
 6094W        W22228   9.653   7.493  13.042 -0.1224  0.0012 -0.1365
 6095W        W22229   6.672  11.550   0.797 -0.0566  0.0780 -0.0938
 6096W        W22230  12.471  17.965   2.306  0.1871  0.0218  0.2737
 6097W        W22231  11.993  15.976   0.453  0.0195 -0.5526 -0.1472
 6098W        W22232   8.042   9.426  15.057  0.1456 -0.1930  0.0504
 6099W        W22233   0.169  17.584   0.373 -0.1293  0.2234  0.1554
 6100W        W22234  10.728  17.478   4.148  0.0479  0.0460  0.0988
 6101W        W22235   6.609   6.618  15.344 -0.1337 -0.2002  0.2865
 6102W        W22236   7.341   5.549  15.874 -0.0196  0.5990 -0.2374
 6103W        W22237  16.339   5.604   0.975  0.0734 -0.0151  0.0015
 6104W        W22238   3.948  13.194   3.090 -0.1534 -0.2190  0.0624
 6105W        W22239  15.477   7.732   2.074  0.1095  0.2529 -0.0962
 6106W        W22240   4.197   3.782   2.749  0.2832  0.0698 -0.0572
 6107W        W22241   9.368  13.322  13.736 -0.2729 -0.2268  0.0102
 6108W        W22242  16.567   4.745   2.489  0.1765  0.0341  0.3586
 6109W        W22243  17.760  12.545  15.697  0.1723  0.1306 -0.1129
 6110W        W22244   3.606   2.921  10.745 -0.1082  0.0422  0.1156
 6111W        W22245   7.040   6.900  12.920  0.0532  0.0880 -0.1391
 6112W        W22246   8.747   4.982  15.537 -0.3028  0.0043 -0.0327
 6113W        W22247   2.960   2.834  15.904  0.1944  0.0402  0.1403
 6114W        W22248  13.309   2.317   2.769 -0.0556  0.3649 -0.1761
 6115W        W22249  10.334   1.448  12.363  0.1076  0.0632  0.0071
 6116W        W22250  11.077  12.633  13.585 -0.3818  0.0491  0.1426
 6117W        W22251   8.480  12.380  12.104  0.3941  0.2643  0.2907
 6118W        W22252   8.822   2.584   1.583 -0.0617 -0.2885 -0.0130
 6119W        W22253   5.972  13.767  14.638  0.2534 -0.0085 -0.0190
 6120W        W22254   0.028  12.337  15.377  0.2049 -0.1486  0.3079
 6121W        W22255  17.773   3.793  12.336  0.0927 -0.0278  0.3595
 6122W        W22256   3.997  14.059  15.782  0.1331 -0.1077  0.0654
 6123W        W22257  15.752   3.205  10.928 -0.5236 -0.0890  0.2740
 6124W        W22258  17.921   2.552  11.955 -0.1636 -0.2987  0.0200
 6125W        W22259  14.507   8.560   0.388 -0.1568 -0.2990  0.0200
 6126W        W22260   9.246   2.391   1.785 -0.1611 -0.1021 -0.1799
 6127W        W22261  15.715   0.561  14.976  0.0400 -0.0525 -0.0518
 6128W        W22262   0.133  15.522   0.584  0.2453 -0.2201  0.2252
 6129W        W22263   6.053  12.136  15.095 -0.1279 -0.0013  0.5117
 6130W        W22264  10.483   4.759   1.960  0.1420 -0.1971 -0.1566
 6131W        W22265   5.916  17.378   1.012  0.0442 -0.0641  0.3628
 6132W        W22266  14.970   5.262  13.167 -0.0133  0.0164 -0.0860
 6133W        W22267  14.536   1.186  15.212  0.1610  0.0647  0.0708
 6134W        W22268  15.148  12.469  12.923 -0.1536  0.1897 -0.0325
 6135W        W22269   8.765   1.942   2.243  0.0916  0.2417  0.1223
 6136W        W22270   8.235   3.385  15.465  0.0402 -0.1272 -0.1775
 6137W        W22271   6.413   0.410  13.568  0.0055 -0.0514  0.0723
 6138W        W22272   7.071  15.097  12.383 -0.0863  0.0573  0.1193
 6139W        W22273  15.525  15.619   2.995  0.1307  0.0963 -0.2883
 6140W        W22274   9.983  11.548  13.722  0.0914 -0.2038  0.1374
 6141W        W22275   3.207   0.022  15.965  0.0290 -0.0590  0.1847
 6142W        W22276   7.201  11.050  12.234  0.0823 -0.0220 -0.2033
 6143W        W22277   0.619  18.454   1.686  0.0117 -0.0929  0.1695
 6144W        W22278  17.425  15.820  14.694 -0.3291  0.0430  0.0100
 6145W        W22279  16.212  11.117  15.353 -0.0929  0.1989 -0.2454
 6146W        W22280  17.940   8.318   3.727 -0.1253 -0.2775 -0.0872
 6147W        W22281  14.763  11.701  11.927 -0.1580 -0.1864  0.1209
 6148W        W22282   3.504  17.747   4.908  0.2562 -0.3209 -0.0661
 6149W        W22283   1.505   6.145  10.945 -0.0382  0.1212  0.1434
 6150W        W22284  16.703   5.811  11.446  0.2893  0.1325  0.0630
 6151W        W22285  15.793  13.419  11.230 -0.2016  0.1200 -0.0826
 6152W        W22286  10.613   0.791  11.694  0.4844  0.0081 -0.0806
 6153W        W22287   8.648   7.365   4.939  0.0471 -0.2372 -0.2541
 6154W        W22288  12.322   0.379   2.106 -0.0037  0.0958  0.5042
 6155W        W22289  10.329  16.708  11.816  0.0554 -0.1613 -0.0539
 6156W        W22290  15.561   9.852   4.690 -0.0422  0.3019 -0.1079
 6157W        W22291   5.154  15.490   3.467 -0.1747 -0.2391  0.0795
 6158W        W22292   3.968  16.772   2.708 -0.0168  0.0951  0.0085
 6159W        W22293  11.315  12.439  12.176 -0.0709 -0.6405 -0.1275
 6160W        W22294   2.426  18.241   0.599  0.2192 -0.3407  0.1688
 6161W        W22295   1.902   3.180  14.288 -0.1804  0.1590 -0.1569
 6162W        W22296  16.236   3.707  15.702 -0.1276  0.1156  0.0507
 6163W        W22297   3.205   2.546  13.439 -0.0383 -0.2036  0.2532
 6164W        W22298  12.382   2.975  14.945  0.3684  0.1289  0.0698
 6165W        W22299  14.427  16.003   4.808  0.3582 -0.1518  0.0984
 6166W        W22300  12.103  13.528  13.557  0.0410  0.1116  0.2044
 6167W        W22301   1.361   1.683  12.935  0.1801 -0.2304  0.0655
 6168W        W22302  17.880  12.379  12.529  0.0168  0.1802  0.0340
 6169W        W22303   7.837  18.339   3.696 -0.3816  0.1988  0.1035
 6170W        W22304   8.954  14.901   1.760  0.0342  0.1949 -0.0255
 6171W        W22305   4.643   9.010   0.187  0.0569 -0.0309 -0.2265
 6172W        W22306   1.104   2.197  13.599  0.2097 -0.2260  0.1828
 6173W        W22307   4.389   9.880  13.408 -0.0370 -0.0445  0.2957
 6174W        W22308   2.789   2.487  15.557 -0.0320 -0.1199 -0.1113
 6175W        W22309   8.478   1.945   5.395 -0.3403  0.0176 -0.0012
 6176W        W22310   9.920   6.514   3.501  0.0260  0.2489 -0.0070
 6177W        W22311   5.187  15.255   0.235 -0.0759 -0.1351  0.0031
 6178W        W22312   3.694   7.151  14.853 -0.2024  0.0923 -0.1084
 6179W        W22313  16.546   9.789   0.171  0.2933  0.0792  0.3413
 6180W        W22314  13.423   8.976  15.901  0.2576 -0.3457 -0.1275
 6181W        W22315   2.828  12.165  15.041 -0.1213 -0.1851  0.0493
 6182W        W22316  16.310  16.193  10.374 -0.1389 -0.0120 -0.0823
 6183W        W22317  13.555  10.128  15.873 -0.0488  0.5353 -0.3514
 6184W        W22318  15.545  17.313   4.093  0.0807  0.0235 -0.1275
 6185W        W22319   0.335   4.905   1.879 -0.2473  0.0057 -0.1911
 6186W        W22320   4.800  14.563  11.010  0.0341 -0.3404 -0.0416
 6187W        W22321  12.732  11.037  13.399 -0.3979  0.0395 -0.1837
 6188W        W22322  10.830  16.724  14.921  0.4230  0.1127 -0.2015
 6189W        W22323   8.725  18.173   3.638 -0.1858 -0.0217 -0.0147
 6190W        W22324  15.460  11.899   5.589  0.0133 -0.3112  0.0844
 6191W        W22325  12.675   0.794   0.602  0.0128 -0.2326 -0.1078
 6192W        W22326   5.412  15.549   0.681  0.0398 -0.1896  0.0861
 6193W        W22327  12.967   0.171   3.319 -0.1135  0.0979  0.1886
 6194W        W22328   1.443  17.981   2.593  0.0612  0.0678 -0.0868
 6195W        W22329   8.924  10.102   3.916 -0.1805  0.2356 -0.2432
 6196W        W22330  17.330  11.007  10.610  0.1196 -0.2289 -0.4228
 6197W        W22331  16.752   8.878  11.024 -0.0676 -0.1811 -0.0144
 6198W        W22332  11.039  17.092  11.501  0.1913 -0.0507  0.3152
 6199W        W22333  16.033   7.507  13.460 -0.1874 -0.0003  0.0117
 6200W        W22334   9.227   6.366  11.189  0.1646 -0.0833  0.0952
 6201W        W22335   0.771  17.093  13.403 -0.0345  0.2694  0.2178
 6202W        W22336  13.909   2.738   0.752  0.0024 -0.2059 -0.0390
 6203W        W22337  11.713   3.794   2.779  0.0721  0.0243  0.4061
 6204W        W22338  12.861  16.039  14.380  0.0871  0.1638  0.1381
 6205W        W22339  10.060   2.616   6.696 -0.0836  0.1353 -0.0846
 6206W        W22340   7.647   6.145   3.850  0.1414 -0.1404  0.2254
 6207W        W22341   9.208   9.061  14.263  0.2693 -0.3263 -0.2959
 6208W        W22342   1.317  12.378   4.682  0.2696 -0.0536 -0.1345
 6209W        W22343   0.991   2.449   2.484 -0.3049 -0.1004 -0.2507
 6210W        W22344   5.664  16.412  12.596 -0.0106 -0.0441 -0.0154
 6211W        W22345  14.472  13.358  12.433 -0.0154 -0.1532 -0.0328
 6212W        W22346   1.648   3.454  13.425 -0.1068 -0.2588  0.1715
 6213W        W22347  12.437   2.191   4.925 -0.2183  0.2192 -0.1630
 6214W        W22348  14.804  10.911  14.174  0.1655  0.1881  0.4012
 6215W        W22349   4.181   1.382  13.118 -0.3704  0.0481  0.0512
 6216W        W22350   1.962  12.237  15.746  0.1682  0.0198 -0.1881
 6217W        W22351   2.091   7.918  11.002 -0.2032  0.1073 -0.0080
 6218W        W22352   6.570   3.488   0.766 -0.1316  0.1892 -0.4163
 6219W        W22353  15.110   5.137   1.548 -0.3020  0.1496 -0.3732
 6220W        W22354  10.475   7.575   4.839  0.2049 -0.1554  0.1768
 6221W        W22355  12.019  10.008   5.546 -0.1588 -0.3094  0.2640
 6222W        W22356   0.017  12.816  15.631 -0.0170  0.1946  0.0353
 6223W        W22357   1.497   7.614  15.188 -0.0290 -0.1520 -0.0507
 6224W        W22358   9.179  17.147   3.586 -0.1081  0.3104 -0.0953
 6225W        W22359   9.206  13.122   4.054 -0.1490  0.2864  0.0752
 6226W        W22360   7.531  15.806   0.877  0.0351  0.0864 -0.3342
 6227W        W22361   5.825   9.231  12.222 -0.0482 -0.0152 -0.3103
 6228W        W22362   7.484  14.623  11.304  0.3487  0.1918 -0.3256
 6229W        W22363   8.279   7.582   0.333 -0.2316 -0.3385  0.3822
 6230W        W22364   6.269  16.499  12.698 -0.0306  0.4613 -0.0974
 6231W        W22365  10.796  12.967   3.674  0.2689  0.1363 -0.2091
 6232W        W22366   6.915   6.998  15.435  0.0651 -0.1939  0.0076
 6233W        W22367  10.648   5.689   1.101 -0.1171  0.0606 -0.1753
 6234W        W22368  13.001   1.135   2.923 -0.0689  0.3943 -0.1166
 6235W        W22369   0.856  10.383   3.821 -0.2026  0.3776  0.3023
 6236W        W22370   8.072   1.100  13.644 -0.1193 -0.6055  0.1431
 6237W        W22371   4.478   2.153   2.897  0.3066 -0.3344 -0.0167
 6238W        W22372  17.954   3.366   3.775  0.0842  0.1760  0.0609
 6239W        W22373  17.114   8.152  11.596 -0.3600 -0.0596  0.0319
 6240W        W22374  16.789  10.679   3.112  0.0582  0.0240  0.2175
 6241W        W22375   1.126  13.415   1.640  0.1555 -0.2586 -0.2457
 6242W        W22376  11.393   7.939  12.246 -0.0902  0.3800 -0.0686
 6243W        W22377  10.511  13.800   4.186  0.0777 -0.2798 -0.0040
 6244W        W22378  13.182   2.708   5.249 -0.1965 -0.2005 -0.1354
 6245W        W22379  15.960  14.924  12.574  0.1045  0.2592 -0.1516
 6246W        W22380   1.340  14.636   4.478  0.0760 -0.1481  0.0954
 6247W        W22381   9.487   1.396  12.404 -0.0191 -0.4052  0.3366
 6248W        W22382  13.079  13.000   0.797  0.0580  0.2867  0.1051
 6249W        W22383  14.588   8.798   6.055  0.1140 -0.0855 -0.0332
 6250W        W22384   7.800   2.453  11.100 -0.0326 -0.1882 -0.0192
 6251W        W22385   8.228  14.221  14.098 -0.2131  0.0320 -0.0501
 6252W        W22386  17.893   4.967   2.748 -0.4107  0.2302 -0.1654
 6253W        W22387   0.657   7.521  14.949  0.1602  0.2880  0.0978
 6254W        W22388   1.792   5.859  12.213  0.0591 -0.3292  0.2029
 6255W        W22389  11.597  13.770   0.124  0.0709 -0.3452 -0.0973
 6256W        W22390   2.243   3.264   1.986  0.1763  0.1036  0.0616
 6257W        W22391   7.936  10.751   0.596 -0.1118 -0.0014 -0.4084
 6258W        W22392  14.043  14.407   2.202 -0.0682 -0.1014 -0.4180
 6259W        W22393   7.253  16.433   5.277 -0.0104 -0.0432 -0.1111
 6260W        W22394  17.385  14.400  10.645 -0.3147 -0.0971 -0.0574
 6261W        W22395  17.512   0.399   5.281  0.0119  0.2483 -0.1252
 6262W        W22396   7.289  11.507   2.433 -0.1640  0.1701  0.1464
 6263W        W22397  11.049   1.660  14.003  0.2730  0.3001  0.0223
 6264W        W22398   4.894   7.405  15.612 -0.0633 -0.2011 -0.2126
 6265W        W22399   1.980  15.044   1.072  0.1450  0.0935 -0.1382
 6266W        W22400  14.425   8.210   4.720 -0.3040  0.0957 -0.2135
 6267W        W22401   3.320  10.689   1.545 -0.1063  0.2758  0.2253
 6268W        W22402   4.185   7.396   6.216 -0.1193  0.0736  0.0469
 6269W        W22403  10.480   7.806  14.381 -0.1299 -0.2427  0.2250
 6270W        W22404  15.223   3.144   2.230  0.1456 -0.1789  0.0285
 6271W        W22405   7.262   6.608  12.262 -0.3390 -0.2738  0.3305
 6272W        W22406  17.949  16.325  16.043  0.0761 -0.0244  0.2752
 6273W        W22407   8.070  17.329  13.215 -0.2917  0.4059 -0.0919
 6274W        W22408  17.276  17.647  14.257 -0.0584 -0.2775  0.0592
 6275W        W22409  13.245   9.558  16.017  0.0203 -0.1710 -0.1019
 6276W        W22410  13.260  15.024  14.922  0.2119 -0.0255  0.3808
 6277W        W22411   6.778   7.414  15.227 -0.0486  0.0189 -0.0202
 6278W        W22412  17.832   2.641   4.352 -0.1634  0.2117  0.0496
 6279W        W22413   9.723   5.893  14.228 -0.1555 -0.1135  0.1670
 6280W        W22414  10.170   0.828  14.579  0.0923 -0.4490  0.1395
 6281W        W22415  11.278   6.548   2.723 -0.3638  0.2486 -0.0348
 6282W        W22416   5.903   3.572  14.378 -0.1097 -0.0578  0.0706
 6283W        W22417   5.531   1.100  15.031  0.2092  0.0994  0.0396
 6284W        W22418  13.548  13.082   5.659 -0.3492  0.0478  0.2286
 6285W        W22419  17.776   7.550  12.358  0.3540  0.3293  0.0146
 6286W        W22420  14.027  16.602   3.947 -0.2484  0.3245  0.1170
 6287W        W22421  10.923  17.395   0.253 -0.1240 -0.2026  0.3611
 6288W        W22422   6.200  17.554  15.898 -0.0146  0.1366 -0.2755
 6289W        W22423  11.013   6.551  15.413 -0.1115  0.2925 -0.2468
 6290W        W22424   6.123   0.626   4.745  0.2380  0.0339  0.0916
 6291W        W22425  16.410  15.847  16.055 -0.1757 -0.2337 -0.1957
 6292W        W22426   4.597   3.155   0.429 -0.1480  0.2818 -0.0282
 6293W        W22427  17.788   3.668  13.001 -0.0946 -0.2133  0.0587
 6294W        W22428   2.580  16.553   1.080 -0.0580  0.0129 -0.1811
 6295W        W22429   7.596   0.826   2.580  0.2549 -0.2543 -0.3639
 6296W        W22430   5.269   5.653   3.185 -0.1502 -0.0117  0.0926
 6297W        W22431  13.799  12.892  12.890  0.0474 -0.2635 -0.2291
 6298W        W22432   1.070   9.759  13.706  0.3415 -0.2002 -0.0054
 6299W        W22433  12.779  10.280   5.798 -0.1905  0.1808  0.2164
 6300W        W22434   4.644   7.559   5.300 -0.0489  0.0547  0.0488
 6301W        W22435  12.690   1.473  10.766 -0.2372 -0.3139 -0.2777
 6302W        W22436  12.493   1.696   0.248 -0.1248  0.1245 -0.0963
 6303W        W22437   3.595   6.256   2.532 -0.1112 -0.0464 -0.0154
 6304W        W22438   2.152  12.612  16.019 -0.0420  0.4319  0.0962
 6305W        W22439  17.248   6.352   2.883  0.3263  0.0422  0.0142
 6306W        W22440   1.922  15.333   4.039 -0.0169 -0.1828 -0.0820
 6307W        W22441  15.449  10.738  14.833  0.1021 -0.1069 -0.0182
 6308W        W22442   8.402   8.658   1.329 -0.0194  0.3343  0.0047
 6309W        W22443   3.048   9.269   0.203  0.0368  0.2150 -0.1886
 6310W        W22444   2.020  14.247  11.796 -0.0225  0.0637 -0.1816
 6311W        W22445   0.604   6.202  11.357  0.1165 -0.1903  0.0540
 6312W        W22446   3.682   0.019   4.656 -0.2427  0.1790 -0.3521
 6313W        W22447  11.149   6.774  12.469  0.1020 -0.3553 -0.0101
 6314W        W22448   3.115   3.415   1.998 -0.0358 -0.3002  0.2487
 6315W        W22449  15.955   8.182   1.141 -0.1315  0.2321  0.0451
 6316W        W22450   5.106  13.763  11.234  0.1253  0.1626  0.1584
 6317W        W22451   8.927   0.752  13.984 -0.1040 -0.0758 -0.1729
 6318W        W22452   2.743  13.862   2.418 -0.2396 -0.1552 -0.0890
 6319W        W22453   4.150  12.336  14.186 -0.1316  0.1912  0.1461
 6320W        W22454   8.084   4.578  13.402  0.1012 -0.0015  0.4521
 6321W        W22455  16.990  10.954  13.803  0.1573  0.3414  0.1699
 6322W        W22456  11.476  18.110  15.102  0.1770 -0.1284 -0.1224
 6323W        W22457   8.616   5.088  11.248  0.1992  0.0984  0.0492
 6324W        W22458  15.009   8.379   0.065 -0.0591 -0.0486  0.1407
 6325W        W22459  16.459  13.584   2.437 -0.1262  0.1998  0.2014
 6326W        W22460  14.504   8.186  11.660  0.0715  0.2923 -0.1640
 6327W        W22461   1.295   4.755  15.952 -0.1850 -0.1374  0.0637
 6328W        W22462  15.972  14.038  12.785  0.2457 -0.3652 -0.0196
 6329W        W22463  13.878   9.469  11.950  0.1583 -0.2919  0.1635
 6330W        W22464   6.393  16.358  14.430  0.0684 -0.0139  0.0706
 6331W        W22465   9.816  18.373   1.419 -0.1274  0.3439  0.1867
 6332W        W22466   1.322  16.504  15.353  0.1436 -0.0071 -0.3184
 6333W        W22467  13.626  12.271  14.829 -0.1643 -0.1147  0.2492
 6334W        W22468   8.986  13.836   4.259  0.3345  0.0725  0.1709
 6335W        W22469   0.594   3.858   4.896  0.0660 -0.0147  0.2504
 6336W        W22470   1.126  11.291  11.870  0.2634  0.2481 -0.2783
 6337W        W22471   7.929   3.639  13.701 -0.6275  0.3854 -0.2460
 6338W        W22472   1.594  10.512   0.711 -0.0226  0.0431 -0.0544
 6339W        W22473   5.938   4.880   1.522  0.1408 -0.0074 -0.0172
 6340W        W22474  18.310   0.548   5.117  0.2246 -0.0545  0.1542
 6341W        W22475  11.305  13.400   4.984  0.1505  0.2449  0.1803
 6342W        W22476   2.513  12.306  15.628 -0.3283 -0.1914  0.0368
 6343W        W22477  14.426  12.425   3.757 -0.2626  0.0068  0.1622
 6344W        W22478  11.527  11.760  12.664  0.1812 -0.2467 -0.4252
 6345W        W22479   1.278   0.567   2.966  0.1455 -0.3250  0.2132
 6346W        W22480   3.996  14.487  11.328 -0.1842  0.2192  0.2989
 6347W        W22481   2.584  10.549  12.702  0.3229 -0.3609  0.1920
 6348W        W22482   1.805   6.914  12.598  0.1535  0.0041  0.3944
 6349W        W22483   6.530   7.107  14.032  0.4061  0.0716  0.2105
 6350W        W22484   7.351  10.993  13.644  0.0118 -0.0444  0.0291
 6351W        W22485   8.960  14.795  15.095 -0.0057 -0.0929 -0.0254
 6352W        W22486   4.499  14.325  14.071  0.3193  0.0353 -0.0404
 6353W        W22487   2.811  12.265   3.086 -0.0769 -0.2264  0.2628
 6354W        W22488   7.179   5.609  13.339  0.2480 -0.1412 -0.0996
 6355W        W22489  15.845  16.810  11.107 -0.3075  0.1492  0.0194
 6356W        W22490   3.456  13.336  10.493 -0.0383  0.0250  0.2192
 6357W        W22491   9.649   9.723   0.883  0.1176  0.3642  0.1610
 6358W        W22492   4.727   2.654  15.362  0.1296  0.1463  0.1156
 6359W        W22493   5.985  18.115   4.253  0.0143 -0.2286 -0.1866
 6360W        W22494   0.740  16.979   5.139  0.0969  0.1288 -0.0374
 6361W        W22495   8.724  14.541   4.429  0.0691  0.2261  0.0883
 6362W        W22496   0.331  13.694  15.285 -0.0516  0.0621  0.2651
 6363W        W22497   2.943   2.699  15.115 -0.1284 -0.0540  0.1863
 6364W        W22498   1.686   7.377   1.608  0.0263  0.1218 -0.1132
 6365W        W22499   0.822  13.270  14.669 -0.0373  0.1432  0.1225
 6366W        W22500   7.966   5.683   3.850  0.5312 -0.2378  0.1709
 6367W        W22501   2.909   1.433   0.154 -0.2533 -0.3695  0.0474
 6368W        W22502  16.196   4.636  15.661 -0.1676 -0.0864 -0.0092
 6369W        W22503  10.301   2.833   5.621 -0.3460  0.0004 -0.4598
 6370W        W22504  16.071  10.065   2.592  0.0198  0.2213  0.2240
 6371W        W22505   6.988  10.874   0.296  0.0318  0.1702  0.1388
 6372W        W22506  16.096  10.136   0.748  0.0739  0.1257 -0.1076
 6373W        W22507  17.401   2.397   4.092  0.1536  0.0686  0.2102
 6374W        W22508   1.118   0.220  15.169  0.0931  0.4721  0.2248
 6375W        W22509  12.515   3.937  12.138 -0.2368  0.1170 -0.0428
 6376W        W22510   6.596   6.493  14.833  0.1497  0.1548  0.0857
 6377W        W22511   3.684  13.536  11.380 -0.0124 -0.0202 -0.1303
 6378W        W22512   0.135  15.643   2.220  0.3035 -0.1508 -0.2124
 6379W        W22513   0.517   1.702   5.637  0.2473 -0.1569  0.4130
 6380W        W22514   0.877   4.777   0.173 -0.1226 -0.0217  0.1924
 6381W        W22515  17.822   1.275   2.705 -0.1536 -0.2482 -0.1010
 6382W        W22516   7.034  11.915   5.118  0.0739 -0.0180 -0.1434
 6383W        W22517   2.784  16.867   3.532 -0.0314  0.1149 -0.2190
 6384W        W22518  12.210  11.268   2.498  0.0439  0.2990 -0.1470
 6385W        W22519  17.936   4.871  10.602  0.1859  0.0276 -0.2601
 6386W        W22520   4.946  12.524   1.288  0.0363 -0.1500  0.0594
 6387W        W22521  11.936  17.644   5.061  0.2664 -0.1669 -0.2059
 6388W        W22522   7.387   4.623   2.465  0.4888 -0.2054  0.1851
 6389W        W22523   8.567   2.930  13.697  0.2498 -0.2335  0.1361
 6390W        W22524  14.196   1.935  14.912  0.1236 -0.1225 -0.2640
 6391W        W22525   4.519   5.248   2.797 -0.2566 -0.2353 -0.0871
 6392W        W22526   5.069   5.357   0.761  0.0754 -0.1983  0.2549
 6393W        W22527  18.231  10.398  15.407 -0.2409 -0.2922 -0.3052
 6394W        W22528   7.065  14.588  14.745  0.1640 -0.0670  0.0246
 6395W        W22529  18.289  17.708  14.449 -0.3480  0.0857 -0.0708
 6396W        W22530   6.982   4.065   5.505 -0.3573  0.0091 -0.1161
 6397W        W22531  15.381   1.129   4.254  0.0602 -0.2461  0.0925
 6398W        W22532  14.137   8.725   2.658 -0.2333 -0.4183 -0.1250
 6399W        W22533   9.189   5.642  14.382  0.0487 -0.0808 -0.0027
 6400W        W22534   1.400   7.257   4.543  0.2108  0.2541  0.1243
 6401W        W22535  18.400  13.589   9.612  0.3440 -0.3094  0.0644
 6402W        W22536   5.439  16.724  13.363 -0.1619  0.1027 -0.0481
 6403W        W22537  11.155  12.585  15.849 -0.0854 -0.1791  0.2031
 6404W        W22538   0.453   8.287   4.657 -0.0709 -0.0004 -0.1220
 6405W        W22539  10.988   7.517  12.426 -0.1732 -0.0425  0.0767
 6406W        W22540   4.974  12.237  13.679  0.0640 -0.1204  0.2492
 6407W        W22541   5.481  16.317  12.045 -0.0375 -0.0897 -0.1974
 6408W        W22542  17.890   1.153   4.694  0.0761  0.1871 -0.0301
 6409W        W22543  17.206  16.717  14.484 -0.0210  0.0474 -0.2019
 6410W        W22544   5.445   6.097  14.859 -0.1017  0.0210 -0.2466
 6411W        W22545  12.256  15.634   4.387 -0.0819 -0.1285 -0.1367
 6412W        W22546   7.005   7.879  12.621  0.2781 -0.0947  0.1870
 6413W        W22547  15.629   4.067   0.892 -0.1792  0.2362  0.0387
 6414W        W22548   4.286   4.630  12.217  0.0858  0.1261  0.0349
 6415W        W22549  10.931   6.719   5.230  0.1795  0.0399  0.0866
 6416W        W22550   3.036  15.675  12.485 -0.0116  0.0778  0.1662
 6417W        W22551  16.016  16.842  15.877 -0.0769 -0.1247  0.0879
 6418W        W22552  13.239   3.965  11.161 -0.0575 -0.4250 -0.0492
 6419W        W22553   8.874  10.397   4.548  0.0450  0.2372 -0.3285
 6420W        W22554  11.906   1.239  11.498  0.0591 -0.2382  0.1207
 6421W        W22555   6.310   1.783   0.870  0.4019  0.0334 -0.0536
 6422W        W22556   4.701   0.972  13.913  0.5827  0.0404 -0.1056
 6423W        W22557   4.855   2.935   3.121  0.0269 -0.0183 -0.0404
 6424W        W22558   9.388   0.662   3.557  0.0548 -0.3413 -0.1846
 6425W        W22559   9.997   1.579   0.585  0.2032  0.0392  0.0282
 6426W        W22560   0.363   8.373  13.566  0.1339  0.1458 -0.0719
 6427W        W22561  11.268   4.364   3.121 -0.1325  0.2190 -0.0723
 6428W        W22562   0.033   9.638  15.401 -0.3320 -0.0841 -0.0760
 6429W        W22563   1.943   4.482  13.281  0.0736  0.0817  0.2031
 6430W        W22564   7.115   0.772   2.675 -0.1855  0.0593  0.3077
 6431W        W22565   5.292  10.951   3.330 -0.0695 -0.0386  0.0702
 6432W        W22566   3.893  12.370  12.925 -0.0773 -0.1756 -0.1632
 6433W        W22567  11.540   0.110   0.862  0.0275 -0.2496 -0.1215
 6434W        W22568   3.263  17.927  12.512  0.1646  0.3277  0.0841
 6435W        W22569   9.210  14.759  12.010  0.1753 -0.1381  0.4828
 6436W        W22570   0.274   1.160   1.019  0.0504  0.0790 -0.1883
 6437W        W22571   4.018  13.594   0.160 -0.0329  0.0958  0.0532
 6438W        W22572   6.924  10.947   2.982  0.1147  0.3646  0.1325
 6439W        W22573  10.065   8.228   5.212 -0.0606  0.0778 -0.2374
 6440W        W22574   3.083  14.110   3.839  0.0787 -0.1925 -0.2339
 6441W        W22575   2.976  16.807   2.998 -0.1038 -0.4652  0.1856
 6442W        W22576  11.699   2.288  11.633 -0.1553 -0.0619  0.0487
 6443W        W22577   6.134   0.412   4.244 -0.0460  0.1327  0.2985
 6444W        W22578   4.724   0.877   2.966 -0.1033 -0.1351 -0.0154
 6445W        W22579   7.469  15.520  12.594 -0.0416 -0.1064  0.1236
 6446W        W22580  11.262  17.046   2.126  0.2927 -0.1345  0.1677
 6447W        W22581   6.595   6.482   4.583  0.0578 -0.2987  0.2025
 6448W        W22582   1.532  16.239  14.105 -0.0780 -0.2591  0.1488
 6449W        W22583  17.691   1.848   3.958 -0.0081  0.1290  0.3236
 6450W        W22584   8.711   2.040  12.719 -0.0320 -0.1845  0.0333
 6451W        W22585  13.329   6.033   1.181 -0.0475  0.0068  0.1398
 6452W        W22586  14.420  12.721   2.215 -0.1138  0.0849  0.2068
 6453W        W22587  16.486  13.557   5.093  0.0709  0.0040  0.1426
 6454W        W22588   6.142   4.776   1.039  0.1993  0.0346 -0.0627
 6455W        W22589  10.333  11.051  16.085 -0.1049 -0.1782 -0.0444
 6456W        W22590  17.997  14.046  14.066 -0.0460  0.3875 -0.2046
 6457W        W22591   6.336  15.968   4.741 -0.2321 -0.0774  0.2172
 6458W        W22592   4.722   7.652  14.538 -0.3813  0.0913 -0.1937
 6459W        W22593   0.297   7.121   4.124  0.0658  0.1154  0.0122
 6460W        W22594   0.198   4.966   4.605  0.1327  0.1860 -0.2362
 6461W        W22595   3.502   8.226  14.852  0.1649 -0.0230  0.0447
 6462W        W22596   8.948  13.840  14.351  0.2358 -0.1678  0.2479
 6463W        W22597  10.961   0.947   5.981  0.1212 -0.6090 -0.4937
 6464W        W22598   4.424   8.254   0.504  0.1258  0.0621  0.1249
 6465W        W22599  14.666  15.615  11.030 -0.1843  0.0062  0.0315
 6466W        W22600   5.172  15.739   1.977 -0.0684  0.1890  0.1242
 6467W        W22601  15.019   0.268   6.122 -0.3367  0.1459  0.2586
 6468W        W22602  15.305  15.456   2.133  0.0885  0.0372 -0.0450
 6469W        W22603  10.204   8.487   5.616 -0.3293  0.3037  0.0866
 6470W        W22604   5.086   3.760  11.472 -0.3223 -0.0983 -0.2698
 6471W        W22605   1.154   2.481  10.206  0.0212  0.1883  0.0342
 6472W        W22606   0.161   8.052  14.433 -0.1984  0.0378 -0.0761
 6473W        W22607   8.012   2.900  13.633  0.0285 -0.1041 -0.1199
 6474W        W22608  14.779  16.406  13.478  0.0185  0.0640 -0.1061
 6475W        W22609   0.343   4.934  13.742 -0.0053  0.2752  0.1971
 6476W        W22610  14.749  17.775  11.604  0.2421 -0.0097 -0.2627
 6477W        W22611  10.339  13.427   2.287  0.0098  0.0334 -0.0366
 6478W        W22612  13.515  14.100   5.487  0.1801  0.2047  0.0944
 6479W        W22613  12.901   2.099   5.873  0.2529 -0.1152 -0.0043
 6480W        W22614  15.168  14.319   4.319  0.1008 -0.0872 -0.0499
 6481W        W22615  17.330   6.224   0.421  0.2583  0.0896  0.0544
 6482W        W22616   6.160   9.930  12.551 -0.1165 -0.1879  0.0106
 6483W        W22617  14.084  15.930   1.389 -0.0723  0.0094 -0.1410
 6484W        W22618   7.959  17.354   4.787 -0.0669 -0.0997  0.0185
 6485W        W22619   8.334   4.397  12.092 -0.0795  0.1036  0.2594
 6486W        W22620   3.756   0.880  12.542  0.0311  0.2994 -0.1183
 6487W        W22621   3.585  18.254  11.058  0.0672 -0.2733  0.0373
 6488W        W22622   5.982   9.437   3.283 -0.0234 -0.3647  0.0197
 6489W        W22623   1.845   7.510  11.468 -0.0196  0.2572 -0.0229
 6490W        W22624   4.839  16.518   2.533  0.1282 -0.0277  0.1642
 6491W        W22625  12.912   6.790   4.616  0.2276  0.0333  0.2656
 6492W        W22626   1.473   3.866  11.572 -0.2500 -0.3441 -0.0206
 6493W        W22627  10.289   2.337   5.382  0.0301 -0.1739 -0.2483
 6494W        W22628   1.492   8.513   1.428 -0.2028  0.0025  0.2177
 6495W        W22629   2.384   9.435   0.506 -0.3157  0.0807  0.3387
 6496W        W22630   6.363   9.118  11.389  0.0162 -0.0648  0.2908
 6497W        W22631  15.386   4.772  13.214 -0.2128 -0.0406  0.0980
 6498W        W22632  16.804  17.398   0.260 -0.1645  0.1139  0.0766
 6499W        W22633   4.878  14.820  14.329  0.1304 -0.3969 -0.0676
 6500W        W22634  17.859  10.799  13.019  0.2467 -0.0936  0.1612
 6501W        W22635  17.071   3.227  11.186  0.1353  0.1855  0.0453
 6502W        W22636   2.340   1.754  14.204  0.1585  0.2374 -0.2853
 6503W        W22637  15.321   9.102   4.079  0.1914  0.1855  0.1722
 6504W        W22638  18.147  15.908  13.228 -0.2364 -0.1076 -0.2008
 6505W        W22639   8.655   0.153   3.324 -0.2940  0.1610  0.2150
 6506W        W22640   5.853   2.627   1.247 -0.6701  0.0024  0.1146
 6507W        W22641   6.653  18.277   1.309 -0.0343  0.2218  0.0554
 6508W        W22642   6.665   0.584   3.604  0.0266  0.1567 -0.0675
 6509W        W22643   6.370   0.892   4.334  0.0896 -0.0356  0.3379
 6510W        W22644  17.198  12.728   5.485  0.0543 -0.1295  0.2056
 6511W        W22645   1.388   4.419   4.084  0.2197 -0.2416  0.1152
 6512W        W22646  12.428   2.729   4.766  0.2090  0.0506 -0.1516
 6513W        W22647   3.776   0.308  14.119  0.4176 -0.1327  0.3110
 6514W        W22648   9.602  17.033  15.001 -0.0171  0.0800  0.2054
 6515W        W22649   4.588  10.911   2.111  0.1006  0.2842  0.0414
 6516W        W22650   7.776  17.245   2.444  0.3898 -0.2828 -0.1148
 6517W        W22651  15.262   9.059  15.876 -0.1951 -0.2921  0.0330
 6518W        W22652   3.859  15.366   3.312  0.0714  0.0437 -0.1975
 6519W        W22653   3.053  13.290  11.943 -0.4321  0.1417  0.5384
 6520W        W22654  12.717   5.845  15.437  0.2569  0.1480  0.2307
 6521W        W22655   5.363   1.744  11.535  0.1624  0.0432 -0.2891
 6522W        W22656  10.317   8.816  12.915  0.1708 -0.3320  0.2101
 6523W        W22657  14.444  14.837   1.368  0.0045  0.0598  0.0041
 6524W        W22658  17.916  10.746   1.312  0.0696  0.0003 -0.0644
 6525W        W22659  18.498   3.180  14.733 -0.1445 -0.1173 -0.0462
 6526W        W22660   4.791  17.360  12.243 -0.1380  0.1110 -0.1216
 6527W        W22661  15.317   6.522  13.222 -0.2997 -0.0356 -0.3191
 6528W        W22662  13.556  13.467   0.282  0.0152 -0.2124 -0.2819
 6529W        W22663   3.522   3.001   0.428  0.0211  0.1273  0.1683
 6530W        W22664   7.082  15.944  15.298 -0.0254 -0.1163 -0.0484
 6531W        W22665   1.196   1.110  11.185 -0.0918 -0.1769 -0.1337
 6532W        W22666  16.383  12.122  13.160 -0.1393 -0.1750  0.1953
 6533W        W22667  13.787   6.181  15.372  0.0067  0.1181 -0.2207
 6534W        W22668  18.207  11.524   0.295  0.2382 -0.1109 -0.0469
 6535W        W22669  11.679  15.721   3.326  0.0595  0.0382  0.0532
 6536W        W22670   5.292   2.304  11.784 -0.0213  0.0553  0.0610
 6537W        W22671  17.461   9.338   4.059 -0.4244 -0.2199 -0.0665
 6538W        W22672   8.910   7.576   2.253  0.0174  0.0350 -0.1120
 6539W        W22673   7.371  14.054   5.151 -0.3000  0.1236  0.1876
 6540W        W22674   0.469  10.141  14.310  0.2527  0.1738  0.3121
 6541W        W22675  13.299  12.883  13.022 -0.1398  0.1974  0.1913
 6542W        W22676   6.872  17.495  11.615  0.0851 -0.2162  0.1593
 6543W        W22677   1.773  11.900   4.141  0.4687  0.1355 -0.0309
 6544W        W22678   7.745  12.685   3.001 -0.0955 -0.1651  0.2071
 6545W        W22679   7.270  16.527   0.181  0.1714  0.1920 -0.1147
 6546W        W22680   6.190   3.419   0.265 -0.2803  0.1593 -0.2366
 6547W        W22681   6.604   4.650   1.312 -0.4070  0.0588 -0.1509
 6548W        W22682  16.249  13.848  11.462  0.0112  0.0711  0.0861
 6549W        W22683   0.332   0.050  15.065 -0.1167  0.0520  0.4250
 6550W        W22684   9.010   6.181   3.419  0.0930 -0.0264 -0.1130
 6551W        W22685   4.332   1.331   5.337  0.0894  0.0475 -0.1032
 6552W        W22686  10.525  15.613   2.700 -0.3509 -0.0816  0.0804
 6553W        W22687   2.016   8.816   3.193 -0.2803 -0.0795 -0.1506
 6554W        W22688  16.443  14.391  13.822 -0.0799 -0.1237  0.1178
 6555W        W22689   7.521   2.202   6.492  0.0542 -0.0276  0.0547
 6556W        W22690   6.206  16.640  13.587  0.1338  0.0148 -0.4807
 6557W        W22691   0.688   3.472  15.303  0.1142  0.1085 -0.0583
 6558W        W22692   4.365   1.589   4.889  0.1627  0.0122  0.1273
 6559W        W22693  10.618   6.254  15.947 -0.1680  0.1196  0.0271
 6560W        W22694  15.040  17.376  11.765 -0.5205 -0.0114  0.2488
 6561W        W22695   4.108   0.799  13.113 -0.0820  0.0198 -0.1597
 6562W        W22696  17.286   0.789  11.624  0.0131  0.2078  0.0709
 6563W        W22697   7.882  13.319   6.371 -0.1157  0.1932 -0.0431
 6564W        W22698  11.980   0.079   3.040  0.1968  0.4374 -0.2740
 6565W        W22699   2.838  10.845   2.529 -0.2045  0.1838  0.3420
 6566W        W22700  12.352   5.321   2.563 -0.1816  0.3681  0.2685
 6567W        W22701   4.704  17.678  12.674  0.0766  0.0202  0.1922
 6568W        W22702  12.983  15.437  15.092  0.0910 -0.3181 -0.2668
 6569W        W22703  12.495   0.338   0.729  0.3645 -0.0731 -0.1484
 6570W        W22704  14.057   6.330   4.652  0.1532  0.0795 -0.1161
 6571W        W22705   7.967   6.098  12.911 -0.1628 -0.2371 -0.2330
 6572W        W22706   8.660  12.749  14.612 -0.0273 -0.0289 -0.0204
 6573W        W22707   0.333  10.432   1.088  0.1196  0.1043 -0.1928
 6574W        W22708   3.278   1.872   5.808  0.1031 -0.0194 -0.0829
 6575W        W22709  10.607  18.085  14.971  0.1002  0.1144 -0.1835
 6576W        W22710  11.887  13.008   3.473 -0.0071 -0.0026  0.2434
 6577W        W22711  17.189   5.147   4.043  0.2910 -0.2651  0.3109
 6578W        W22712   0.076  16.604   5.515  0.1526  0.1688 -0.1562
 6579W        W22713  13.449   1.098  12.046 -0.2517 -0.0845 -0.0570
 6580W        W22714   6.637   8.051   1.721 -0.0159 -0.1620  0.3087
 6581W        W22715  14.703   3.700   2.499 -0.0554 -0.1515 -0.3685
 6582W        W22716  14.793   7.006  12.144  0.0582 -0.2007  0.1527
 6583W        W22717  15.087  13.549  15.576 -0.2759 -0.0573  0.0953
 6584W        W22718   5.625  11.917  15.014 -0.0602  0.2375  0.2267
 6585W        W22719  10.105   9.352  12.775 -0.1319  0.1787  0.3865
 6586W        W22720  14.688  16.744   5.900 -0.2597  0.1011  0.1641
 6587W        W22721   9.650  16.515   6.603  0.3501 -0.3851  0.0045
 6588W        W22722   6.450   5.767  12.935  0.1565  0.4915  0.2288
 6589W        W22723  11.365   1.053   1.847  0.0180  0.0948  0.0081
 6590W        W22724   0.020   7.600   4.242  0.0578 -0.1863  0.3789
 6591W        W22725  14.589   8.997  12.913 -0.0862  0.0793 -0.1110
 6592W        W22726   0.303   2.231   0.207 -0.1705  0.0298  0.1358
 6593W        W22727  16.186  14.942   3.636  0.0532 -0.1326  0.1547
 6594W        W22728   4.858  13.842   5.358 -0.0805  0.4101 -0.3024
 6595W        W22729  18.400  15.074   2.825 -0.0239  0.1766 -0.5246
 6596W        W22730  10.890   7.314   3.077  0.2270  0.1789  0.1377
 6597W        W22731  10.675  14.230  14.646 -0.0062 -0.0464 -0.1447
 6598W        W22732   2.922  10.044  15.546 -0.1111 -0.0650  0.1023
 6599W        W22733   0.072   3.518  16.062 -0.0850 -0.1555 -0.3034
 6600W        W22734   9.557  13.723   2.722 -0.2355  0.4790 -0.2359
 6601W        W22735  16.994  16.358   2.540 -0.0806 -0.0797  0.1060
 6602W        W22736  17.931  17.939  14.713 -0.2022 -0.0322  0.1203
 6603W        W22737  10.447   6.236  15.422  0.1624 -0.1876 -0.1083
 6604W        W22738  12.258   1.783   0.723  0.0188  0.3481  0.1225
 6605W        W22739  15.565   5.541   4.574  0.1152 -0.1362 -0.0954
 6606W        W22740  11.869  14.132   4.993  0.2806  0.2689 -0.0692
 6607W        W22741   1.854  10.391  13.261 -0.0673  0.3915 -0.1106
 6608W        W22742   8.215   6.987  14.733 -0.0113  0.0104  0.1309
 6609W        W22743   0.610  10.476   2.034  0.0358  0.4772 -0.0267
 6610W        W22744  15.579   9.409   3.666 -0.0456 -0.2566  0.0112
 6611W        W22745  17.158  11.333  14.041  0.2456 -0.0779 -0.0071
 6612W        W22746   2.369   4.097  13.204 -0.0938  0.0922  0.0242
 6613W        W22747   4.904   5.351  13.235  0.1090  0.2132 -0.1335
 6614W        W22748   1.450  12.425   2.180  0.4234 -0.0699 -0.7071
 6615W        W22749  11.045   5.779   1.822  0.1538  0.0576 -0.0039
 6616W        W22750  12.596  16.352   1.622 -0.0619  0.0101  0.2988
 6617W        W22751  15.385  12.911  15.809 -0.3422 -0.3032 -0.0035
 6618W        W22752   6.086  10.552   4.666  0.1485 -0.1323  0.1081
 6619W        W22753  14.436  13.935  15.981  0.0485 -0.2727 -0.3822
 6620W        W22754  14.253   7.786   1.505  0.1141  0.0286 -0.1631
 6621W        W22755  10.522  12.334   2.882 -0.1827 -0.1035  0.0614
 6622W        W22756  11.381  15.472  12.568 -0.2374  0.1150 -0.0203
 6623W        W22757  10.843   3.373   2.955  0.0511 -0.0764 -0.3150
 6624W        W22758   2.410  15.617  12.527 -0.0510  0.0919  0.0130
 6625W        W22759   2.486   5.953   2.537  0.1191  0.0723  0.1458
 6626W        W22760   8.357   2.571   1.757 -0.1456 -0.1391 -0.2236
 6627W        W22761   7.325  13.558   4.241 -0.0809 -0.2292  0.2264
 6628W        W22762   8.263   7.400  14.407  0.0057  0.0508  0.1672
 6629W        W22763   1.945   7.752   5.196 -0.0316  0.1267  0.0558
 6630W        W22764   0.668  15.382  10.992  0.0629 -0.2722  0.2437
 6631W        W22765  18.028  14.402  15.253 -0.1420  0.3177 -0.2242
 6632W        W22766   6.628   8.792  12.301  0.0125  0.1251  0.0549
 6633W        W22767   3.355   8.606  12.802 -0.0699 -0.0173 -0.0944
 6634W        W22768   4.747  17.674  11.820 -0.5569 -0.0188 -0.1706
 6635W        W22769   9.282   8.265   4.039  0.3272 -0.1149 -0.2955
 6636W        W22770  10.362  11.630  12.958 -0.0456 -0.4561  0.0388
 6637W        W22771  12.069  18.440   4.380  0.0979 -0.0619 -0.0826
 6638W        W22772   6.780   0.803   5.235 -0.2477  0.5499 -0.0510
 6639W        W22773   7.614   9.121   1.725 -0.1253  0.0882  0.0546
 6640W        W22774   0.939  12.641  15.157 -0.0200 -0.2124  0.2816
 6641W        W22775  14.828   9.498  13.792  0.2321  0.2013  0.3059
 6642W        W22776   8.090   0.340  13.241  0.2064  0.0286  0.0997
 6643W        W22777  11.108   2.557   2.564 -0.3942 -0.0344 -0.0433
 6644W        W22778   0.204   9.387  13.810 -0.0704  0.1401 -0.1530
 6645W        W22779  17.408  15.262  10.826 -0.3713 -0.1216 -0.0798
 6646W        W22780   5.869  15.185   9.873  0.0101 -0.0093 -0.1983
 6647W        W22781   4.922   4.486   5.844 -0.1063  0.3619  0.2410
 6648W        W22782  16.374   4.274   0.500 -0.3715 -0.0706 -0.2459
 6649W        W22783   0.158   1.645   4.668  0.0133 -0.1461  0.2534
 6650W        W22784  10.216  17.562  13.846 -0.1276 -0.1881  0.0412
 6651W        W22785   4.732   6.326   2.128 -0.0886 -0.1507  0.1373
 6652W        W22786   4.265   6.399   4.426  0.2947 -0.5965  0.4226
 6653W        W22787   7.111  16.539   2.910  0.0266 -0.1289  0.2316
 6654W        W22788  11.899  10.339   1.499  0.1812 -0.2143 -0.1120
 6655W        W22789   3.496  12.030   5.013  0.3049 -0.5891  0.0146
 6656W        W22790   1.060  16.736  13.190  0.1423  0.0645 -0.2663
 6657W        W22791   1.006  13.260   2.097  0.0621 -0.0017  0.2003
 6658W        W22792   5.337   7.686  14.579  0.1958  0.0918  0.1191
 6659W        W22793  14.140  16.595   0.210  0.0490 -0.2785 -0.1131
 6660W        W22794  14.537  10.387  14.201 -0.0646  0.0501  0.4517
 6661W        W22795   3.265   9.473  10.889 -0.3555 -0.2685 -0.0404
 6662W        W22796  11.871  12.561   5.617  0.2847  0.2688 -0.0744
 6663W        W22797   9.622  10.598   0.243  0.0916  0.2386  0.0752
 6664W        W22798   0.832  13.976  10.644  0.5159 -0.2135 -0.2012
 6665W        W22799  11.782   4.238  13.955 -0.1302  0.0970  0.0449
 6666W        W22800  16.918  14.870  12.529  0.0351 -0.2003 -0.2325
 6667W        W22801   3.318   6.557   4.703 -0.2304  0.0352 -0.0546
 6668W        W22802   8.824  17.287   5.224  0.0057 -0.0312  0.2705
 6669W        W22803  16.755  14.263  12.547  0.0370  0.1471 -0.1783
 6670W        W22804   3.923   8.855   1.986  0.2013 -0.3746 -0.0511
 6671W        W22805   5.044  15.507   1.595 -0.1529  0.2214  0.2545
 6672W        W22806   9.399  11.122  15.453 -0.1176 -0.5619 -0.2017
 6673W        W22807   6.104   4.689  13.273 -0.2783 -0.0366  0.0727
 6674W        W22808  12.301  11.849   0.480  0.0178 -0.1334 -0.1018
 6675W        W22809  13.304   9.510   1.701 -0.0774  0.1811 -0.1633
 6676W        W22810  12.247  17.193  12.805  0.0267 -0.0968 -0.1241
 6677W        W22811   8.632   2.540  15.806  0.2163  0.1538  0.0441
 6678W        W22812  15.165   1.321   1.442 -0.1182  0.3679  0.2029
 6679W        W22813   6.398  17.151  15.045 -0.1297 -0.1981  0.0535
 6680W        W22814  10.410   6.042   2.840 -0.2391  0.5747 -0.0526
 6681W        W22815   0.471  13.223  11.082  0.0583  0.3871 -0.3575
 6682W        W22816  11.883   2.791  13.166  0.1563 -0.1129 -0.1071
 6683W        W22817   1.290   2.357  11.569 -0.0401  0.2101 -0.3605
 6684W        W22818   6.737   4.620  13.802 -0.1577  0.0879 -0.1246
 6685W        W22819   6.767  16.829  10.978 -0.2330  0.1340  0.2202
 6686W        W22820  14.550   0.924   4.434  0.2123 -0.0432  0.2488
 6687W        W22821   7.008   1.799  14.530  0.1897  0.3915 -0.0059
 6688W        W22822   8.026   2.561  12.226 -0.1975 -0.0820 -0.3283
 6689W        W22823   7.113  11.902  11.865  0.0447 -0.1255  0.1704
 6690W        W22824  13.514   1.220   4.212  0.0685 -0.0809 -0.0758
 6691W        W22825   6.411  10.968   0.285  0.2405 -0.1381 -0.0160
 6692W        W22826   8.814   2.147   3.054  0.0584  0.2479 -0.0216
 6693W        W22827   8.149  16.928   3.091 -0.1432  0.0685 -0.1992
 6694W        W22828   1.023   6.882   3.582 -0.0215 -0.1454 -0.1361
 6695W        W22829  12.258   3.449  13.447  0.1681 -0.3353  0.0742
 6696W        W22830   1.521  15.934   3.068  0.2793  0.4164 -0.3329
 6697W        W22831   8.054  17.763  12.381  0.2329 -0.1615 -0.2133
 6698W        W22832  11.959   6.871   2.602  0.1133  0.2622  0.1403
 6699W        W22833   9.409   6.697   1.395 -0.2208  0.2354  0.0207
 6700W        W22834  14.829   9.355  14.272  0.2243 -0.0412  0.0352
 6701W        W22835  12.649  10.847   4.944  0.1092  0.0230  0.0119
 6702W        W22836   6.707  14.995   4.271  0.3425  0.1934 -0.1176
 6703W        W22837   3.215   7.300  14.741 -0.1988  0.0561  0.4137
 6704W        W22838   8.671   5.474   1.559  0.3656 -0.3401  0.1813
 6705W        W22839  18.395  11.074  14.127 -0.0890  0.0066 -0.1430
 6706W        W22840  10.185  11.814   4.860 -0.2479  0.0424 -0.1223
 6707W        W22841   6.509   2.143  14.512  0.1810  0.0137  0.1895
 6708W        W22842  12.734  14.387  15.098  0.1234  0.2425 -0.0678
 6709W        W22843   6.954  16.802  11.854 -0.0181 -0.2530  0.0614
 6710W        W22844  16.835   2.053   2.612  0.0257  0.0324  0.1362
 6711W        W22845   7.584   0.279  13.015 -0.2703  0.2583 -0.0695
 6712W        W22846  18.470   4.048   3.446 -0.0684 -0.0827 -0.0601
 6713W        W22847  16.379   6.567  14.384  0.1313  0.2913 -0.2338
 6714W        W22848  11.659   1.914  15.530 -0.2279  0.1101 -0.1963
 6715W        W22849   1.719   3.862   1.449 -0.4978  0.3334  0.0398
 6716W        W22850   9.205   8.537   3.607  0.2017 -0.0300  0.1081
 6717W        W22851   4.430  12.883  15.053 -0.1045  0.4855  0.1616
 6718W        W22852  17.756  10.251   1.359  0.3519  0.1151  0.2367
 6719W        W22853   7.879   7.776  11.375  0.3881  0.0440 -0.1614
 6720W        W22854  13.999   9.158  11.029 -0.2688 -0.0538  0.2299
 6721W        W22855   7.364  10.345   2.233  0.1970 -0.3121  0.0946
 6722W        W22856   4.374  13.775  12.886  0.0175  0.0699 -0.0419
 6723W        W22857   5.600   9.714  14.057  0.2639 -0.0148  0.3376
 6724W        W22858  17.455   0.358  15.080 -0.0355  0.2353 -0.1551
 6725W        W22859  17.135  12.488   0.210  0.0084  0.3043  0.1723
 6726W        W22860  12.549   0.984  12.361  0.0198  0.1426 -0.1096
 6727W        W22861  13.141  11.512   5.063 -0.1254  0.1003 -0.2462
 6728W        W22862   3.850  11.879  15.733 -0.0321  0.2140 -0.0046
 6729W        W22863  12.519   1.503  14.411  0.0257 -0.0733  0.0299
 6730W        W22864  18.301  17.134   3.775 -0.1383  0.1859  0.1951
 6731W        W22865   8.576  11.610  13.511 -0.0056  0.2317 -0.0555
 6732W        W22866   9.296   5.694   4.851 -0.1871 -0.2992 -0.2928
 6733W        W22867   1.430   7.150  10.751 -0.2175  0.0821 -0.1737
 6734W        W22868   4.435   3.056   2.866 -0.1610 -0.0166 -0.4066
 6735W        W22869   9.286  11.005   1.412 -0.2290 -0.0896 -0.1986
 6736W        W22870  17.860   3.567   1.367  0.0815 -0.0773  0.2238
 6737W        W22871   5.031   6.443   1.720  0.2150 -0.1203 -0.3614
 6738W        W22872   2.031  13.292   4.724  0.1460 -0.2613  0.0635
 6739W        W22873   8.454   5.290   2.016  0.0376  0.3101 -0.1381
 6740W        W22874  12.748   2.989  12.329  0.0289 -0.0232 -0.0822
 6741W        W22875   1.460   8.033   1.348  0.0763  0.3801 -0.0370
 6742W        W22876  13.131  10.594  11.875  0.2071  0.0530 -0.0826
 6743W        W22877   8.357   1.057   2.499 -0.0243  0.3559  0.3697
 6744W        W22878   9.044   2.764  11.747 -0.1784  0.0591 -0.1330
 6745W        W22879   9.974  18.145  13.660  0.3552 -0.0543  0.3009
 6746W        W22880   8.395   8.856   3.417  0.1538 -0.1126  0.1933
 6747W        W22881  13.777   7.072   3.093 -0.0053  0.2845  0.1067
 6748W        W22882   9.921  14.531   1.303  0.2430  0.0768  0.2243
 6749W        W22883   9.798  11.210   2.149 -0.1073 -0.1444  0.1826
 6750W        W22884   5.943  11.851  15.472 -0.1116  0.1945  0.2627
 6751W        W22885  10.994   0.933   2.803  0.1361 -0.0220 -0.0427
 6752W        W22886  18.415  16.172  12.924 -0.1404 -0.1564 -0.0478
 6753W        W22887   7.190   2.628   6.437 -0.1167  0.1655  0.1616
 6754W        W22888  12.129  13.623   5.590 -0.0647  0.0714 -0.0205
 6755W        W22889   1.269   2.759  15.353 -0.1103 -0.1131 -0.3337
 6756W        W22890   9.656   6.043  12.031  0.0705 -0.1013 -0.0129
 6757W        W22891   4.503  17.768  13.141 -0.0800 -0.1900  0.2455
 6758W        W22892  11.154   6.053  11.927 -0.2373 -0.1301  0.1560
 6759W        W22893   8.731  16.042   1.392 -0.1768  0.0345 -0.1064
 6760W        W22894   5.427   5.541  14.889  0.0443 -0.3821 -0.2196
 6761W        W22895  16.096  12.729   3.414 -0.2345  0.0926  0.0133
 6762W        W22896  11.543   2.295   0.111 -0.0465  0.5071 -0.1168
 6763W        W22897   1.169  18.479  14.704 -0.1546  0.1179 -0.2536
 6764W        W22898   7.115   0.838  11.026 -0.3432 -0.2156 -0.2059
 6765W        W22899   1.749  12.057   1.046  0.0413 -0.2100 -0.0619
 6766W        W22900   1.512   7.518  15.851 -0.3245  0.1377  0.1022
 6767W        W22901  13.218  11.646   1.114  0.1330 -0.0626  0.4352
 6768W        W22902   1.514   1.028   2.788  0.0624  0.1026  0.2674
 6769W        W22903   6.209   5.421   3.690 -0.0907  0.2343 -0.0765
 6770W        W22904   3.446  15.406  13.194  0.2066 -0.3022  0.0730
 6771W        W22905   3.485  17.466   3.523 -0.0401 -0.0532  0.5544
 6772W        W22906  10.562   3.142   0.548 -0.2341 -0.0859 -0.1387
 6773W        W22907  10.842   1.362   0.361 -0.2058 -0.2334 -0.2104
 6774W        W22908  12.394  12.268  12.464  0.2392  0.1725  0.1400
 6775W        W22909   6.847  13.381  12.871  0.2330 -0.0162  0.0607
 6776W        W22910   2.739  15.456  13.845 -0.0487  0.2305 -0.2159
 6777W        W22911   3.728   0.285  11.438 -0.1972 -0.0127 -0.3460
 6778W        W22912  14.617   8.637  12.556  0.2070  0.2571 -0.3673
 6779W        W22913   3.468   6.295  11.718  0.2464 -0.1097  0.0849
 6780W        W22914  12.383  10.867   4.424  0.0409  0.1170  0.1823
 6781W        W22915   7.372  18.396   5.018 -0.0385  0.0570  0.2939
 6782W        W22916   4.825  11.617  11.379 -0.1790  0.0542 -0.0672
 6783W        W22917  12.718  13.013   1.192  0.0115 -0.0531 -0.2147
 6784W        W22918   4.450  12.993   3.208 -0.3044 -0.1511  0.2161
 6785W        W22919   7.396  18.485  10.497  0.0783 -0.0366 -0.1172
 6786W        W22920  10.933   5.852  13.676  0.0031  0.1547  0.0862
 6787W        W22921   7.756   8.200   0.553  0.0559 -0.1885 -0.1183
 6788W        W22922  17.250   7.610   0.774  0.1531  0.2731  0.1127
 6789W        W22923   4.060   7.650   2.294  0.1056  0.0909 -0.0608
 6790W        W22924   0.811   8.074  14.260  0.0015 -0.2260  0.1558
 6791W        W22925   5.706   8.468  13.819 -0.1107 -0.1227  0.3205
 6792W        W22926   4.405  16.462  12.857 -0.2298  0.3546  0.2272
 6793W        W22927   0.228   0.243  13.263  0.1062  0.0704 -0.1002
 6794W        W22928  16.357  14.388  11.652 -0.1341  0.0106  0.2646
 6795W        W22929  15.951   0.997   2.848 -0.0186 -0.0254  0.1318
 6796W        W22930   1.976  13.688   5.720  0.2233 -0.0314  0.0820
 6797W        W22931   4.963   8.299  14.464  0.3524 -0.1275 -0.0694
 6798W        W22932  17.484  10.927   2.579 -0.3831  0.1070 -0.0730
 6799W        W22933  10.453   9.398   0.214 -0.6246 -0.1760  0.2432
 6800W        W22934   8.636   5.006   1.140 -0.2434  0.2721 -0.3755
 6801W        W22935  16.879  16.894  15.285  0.1527 -0.0477 -0.1089
 6802W        W22936   8.049   5.594   5.717 -0.1779 -0.1272 -0.0043
 6803W        W22937  13.120  11.433  12.681 -0.1446  0.1758 -0.0368
 6804W        W22938  15.360   8.584   0.622 -0.1698  0.1483 -0.0722
 6805W        W22939  10.990  14.998   0.346  0.0046 -0.0608  0.1541
 6806W        W22940  17.878  17.861  14.207 -0.1974 -0.0887 -0.0391
 6807W        W22941  13.036   0.872  15.932 -0.1888  0.2792 -0.0541
 6808W        W22942  16.154  11.808  15.418  0.4852  0.3004  0.1700
 6809W        W22943  12.054   4.648  13.469 -0.3183  0.0729 -0.1901
 6810W        W22944   0.553   8.012   2.722 -0.3405  0.0580  0.1753
 6811W        W22945   1.827   5.623  15.842 -0.0515  0.0797 -0.3795
 6812W        W22946   1.180   4.126  10.390 -0.2358  0.2060 -0.0458
 6813W        W22947   1.934  17.923  14.355 -0.0630 -0.0071 -0.2212
 6814W        W22948   9.064   8.261   4.639  0.1999 -0.3944  0.0238
 6815W        W22949   5.774   0.679  13.062 -0.1498  0.0758  0.1073
 6816W        W22950  12.055   4.820   2.612 -0.0207  0.0762  0.0593
 6817W        W22951   2.659  13.589   0.048 -0.1301  0.1622 -0.0601
 6818W        W22952  15.108   6.809  10.160  0.3379 -0.2426  0.1243
 6819W        W22953   9.958  16.977   5.041 -0.0591  0.2477  0.0693
 6820W        W22954  10.888   8.557  15.281 -0.0646  0.1417 -0.0605
 6821W        W22955   2.799  10.868  10.936  0.0304 -0.0542 -0.1859
 6822W        W22956   7.638  18.137   1.315  0.0004  0.1191 -0.3435
 6823W        W22957  11.889   2.246   3.323 -0.0604 -0.1423 -0.0701
 6824W        W22958  11.352   7.966  15.538  0.1575 -0.2019  0.0639
 6825W        W22959   5.210  18.278  11.170  0.0935  0.1426  0.0313
 6826W        W22960   5.761  14.913  11.812 -0.3963 -0.0708  0.0285
 6827W        W22961  18.436   7.672  14.239 -0.0082  0.0995 -0.3911
 6828W        W22962  16.005  16.145  11.666  0.0258  0.1956 -0.0744
 6829W        W22963   0.031  15.052   0.791 -0.1276 -0.1219 -0.2781
 6830W        W22964  17.460   8.939   4.471 -0.0197 -0.3156 -0.0380
 6831W        W22965   6.203   1.590  13.426 -0.2981  0.1765 -0.0345
 6832W        W22966  11.532   6.809   0.806  0.3000  0.1496  0.0245
 6833W        W22967   4.638   7.780   3.961 -0.0352  0.0426 -0.3061
 6834W        W22968   7.064  17.989  11.745  0.2104 -0.2038  0.0535
 6835W        W22969   2.711   6.498   4.803  0.0265 -0.2891  0.3193
 6836W        W22970   6.628   4.968  13.458 -0.3658 -0.1134  0.4580
 6837W        W22971   6.626   7.154  13.056  0.2882  0.3377  0.1516
 6838W        W22972   2.540   4.522  13.086 -0.0577  0.0714 -0.0680
 6839W        W22973  12.914   9.904  11.705 -0.1858  0.0718 -0.2682
 6840W        W22974   0.754   4.038   0.256  0.0741 -0.0335  0.2902
 6841W        W22975   0.565  12.902   2.127  0.1639  0.2626 -0.3258
 6842W        W22976   9.439  14.178   5.804 -0.3496  0.2285  0.3533
 6843W        W22977   8.548   0.633   3.723 -0.1958  0.0557  0.3118
 6844W        W22978   3.719   4.555   5.313  0.1849 -0.3663  0.0324
 6845W        W22979   5.534  17.617   2.985 -0.0976  0.0823  0.2207
 6846W        W22980  13.123   1.900  13.094 -0.0036  0.2542  0.1345
 6847W        W22981   0.910  13.907  12.069 -0.1340  0.0500 -0.2269
 6848W        W22982   9.218  11.856   4.632 -0.1485 -0.1633  0.0866
 6849W        W22983   7.594  17.071  13.575 -0.0933 -0.1108  0.1693
 6850W        W22984  16.583   9.027   4.443 -0.0425 -0.0162  0.0945
 6851W        W22985   2.092   1.902  13.570  0.1746 -0.1811 -0.1807
 6852W        W22986   0.096  14.666   4.216 -0.1420 -0.0803 -0.2202
 6853W        W22987  15.983   9.629   3.414  0.0451  0.1003 -0.0641
 6854W        W22988  15.456   7.552  12.327 -0.3072 -0.3177 -0.0251
 6855W        W22989   0.429  10.097  13.180  0.1282 -0.0329 -0.0594
 6856W        W22990   6.126  10.707   1.888 -0.0763 -0.0332 -0.2225
 6857W        W22991  13.417  11.266  13.954  0.0916  0.1384  0.0469
 6858W        W22992  15.384   6.074   1.452  0.1199  0.2258  0.1431
 6859W        W22993   2.845  13.150  12.391 -0.0230  0.5678 -0.2111
 6860W        W22994   8.324  16.513   5.631 -0.0525  0.0182  0.2909
 6861W        W22995   1.125  15.324  14.707 -0.1650  0.0788  0.0411
 6862W        W22996   5.915   3.028  15.128 -0.0278  0.1994 -0.0049
 6863W        W22997   0.798   7.057  15.165  0.0399  0.0008  0.0649
 6864W        W22998   6.519   9.682  12.773  0.3329  0.0094 -0.3029
 6865W        W22999   7.543  17.947  12.523 -0.3096 -0.2124 -0.1859
 6866W        W23000   7.317  16.714   5.765 -0.1651  0.1047  0.3443
 6867W        W23001  15.311   3.108  15.831  0.1209  0.1840  0.1347
 6868W        W23002   7.802  17.396  15.308 -0.1186  0.0492 -0.0626
 6869W        W23003   7.866  17.462  11.894 -0.0936  0.1369 -0.1003
 6870W        W23004   8.580  10.689   4.858 -0.0438 -0.2650  0.1753
 6871W        W23005  13.757   0.639   0.299  0.0632 -0.3539  0.1264
 6872W        W23006   3.513  16.500  14.356 -0.0356  0.0729  0.2366
 6873W        W23007  16.982  12.433   2.669  0.1346 -0.2392 -0.0172
 6874W        W23008  10.534  10.684   2.904 -0.0750  0.0806  0.0576
 6875W        W23009   3.717  17.036   0.577  0.3367 -0.0242  0.1241
 6876W        W23010   9.766  11.530  11.518  0.2903  0.0659 -0.1570
 6877W        W23011   8.352   6.785  14.197 -0.0830 -0.0833  0.0431
 6878W        W23012  13.090   2.520   6.106  0.2019 -0.0162  0.2037
 6879W        W23013   0.277   4.841   5.595  0.0011 -0.3317 -0.0008
 6880W        W23014  11.190  17.500  13.401 -0.0176 -0.0085  0.0811
 6881W        W23015   6.061  16.496   0.147  0.2587 -0.0507 -0.0562
 6882W        W23016  14.749  18.218  12.907 -0.2994 -0.0574 -0.5650
 6883W        W23017   5.243   3.130   4.799  0.1502  0.0043 -0.3071
 6884W        W23018   2.923  16.319  12.182 -0.0364 -0.3417  0.0763
 6885W        W23019  12.812   8.893   3.280  0.1525 -0.1579  0.1659
 6886W        W23020   1.156   7.642   0.692  0.2056 -0.0052 -0.0771
 6887W        W23021   5.955   7.849  11.748 -0.0360 -0.1082 -0.0834
 6888W        W23022   9.636  13.830   1.745 -0.1576  0.0605  0.0561
 6889W        W23023   5.681  10.940  15.022  0.6029 -0.1333 -0.0933
 6890W        W23024   1.663   5.552   2.905 -0.0026 -0.1175  0.0186
 6891W        W23025   9.484  13.180   3.665 -0.2257  0.0369 -0.4975
 6892W        W23026  10.575  13.364  15.982  0.2472  0.4536 -0.0295
 6893W        W23027  16.427   6.232  13.510  0.2441 -0.4030 -0.2524
 6894W        W23028   6.689  14.698   3.789  0.1916 -0.0064  0.1010
 6895W        W23029  17.404   8.274  13.426 -0.1029 -0.1413 -0.2531
 6896W        W23030   0.263  15.527  14.421 -0.1891 -0.0156 -0.0924
 6897W        W23031  15.744  11.655   2.028 -0.0670 -0.5360  0.0329
 6898W        W23032   6.388   0.058  14.947  0.3253  0.0826  0.3164
 6899W        W23033  13.683  16.272   0.575  0.1588  0.2450  0.0966
 6900W        W23034   3.354   1.541   2.842  0.0884  0.0952  0.0002
 6901W        W23035  16.018   1.426  14.963  0.1903 -0.0438 -0.0828
 6902W        W23036  13.299  16.988  15.872 -0.1540  0.1252  0.2330
 6903W        W23037   1.740   5.927  15.167 -0.1513  0.1862 -0.2515
 6904W        W23038   2.304  15.817   0.831  0.1142  0.0324 -0.2646
 6905W        W23039  11.263  12.570  11.487 -0.0003 -0.1732 -0.2759
 6906W        W23040   7.036   9.364  15.227  0.0938 -0.1825 -0.2164
 6907W        W23041   6.916   0.675  15.570 -0.0653 -0.2277 -0.0966
 6908W        W23042  11.328  15.991  14.196  0.2211  0.1315  0.0259
 6909W        W23043  12.732   9.375  15.343  0.2061  0.2567  0.1713
 6910W        W23044   0.274  12.245   1.863 -0.2225 -0.0261 -0.1714
 6911W        W23045  13.172   5.445   1.988 -0.2607  0.1107 -0.1837
 6912W        W23046   2.392  12.337   4.593  0.0562  0.0397  0.2859
 6913W        W23047  15.459  17.250   1.949 -0.2055  0.0844 -0.2742
 6914W        W23048   1.139  17.060  11.736  0.2584 -0.1864 -0.1027
 6915W        W23049   0.999   9.491   3.104  0.2272  0.3650  0.2123
 6916W        W23050  17.254   0.488   4.075 -0.1966  0.0417 -0.3864
 6917W        W23051   5.305   4.056   5.862 -0.2546 -0.3973  0.2501
 6918W        W23052   9.231   7.219   1.661 -0.1166  0.0551 -0.1785
 6919W        W23053  14.844   1.138  11.102  0.0757 -0.0436 -0.0364
 6920W        W23054   8.349   2.021   3.988 -0.1045 -0.0850  0.1923
 6921W        W23055  10.069  10.249   1.076  0.2013 -0.0875  0.0534
 6922W        W23056  17.207   0.448   3.019 -0.1917 -0.0200  0.1108
 6923W        W23057  15.607   3.615   0.393 -0.0254 -0.0260  0.2870
 6924W        W23058   9.455  14.094  15.435  0.0641 -0.0120  0.0625
 6925W        W23059   6.561  17.220   4.140  0.0503  0.0385  0.1840
 6926W        W23060  17.633   6.045  15.401 -0.0543 -0.3790  0.1155
 6927W        W23061   6.536   4.817   4.817  0.0422  0.0872 -0.0847
 6928W        W23062  15.820  18.373   5.318  0.1117  0.0498  0.1421
 6929W        W23063   9.515  17.742  12.618 -0.0444 -0.0219 -0.1879
 6930W        W23064  15.363  10.059  10.737  0.0272  0.0208 -0.2102
 6931W        W23065   1.758  11.807  14.811  0.0081 -0.2934 -0.0920
 6932W        W23066   4.500   6.325  13.156  0.0471  0.1899 -0.2322
 6933W        W23067   7.150   7.537   6.180 -0.0311 -0.2087 -0.4412
 6934W        W23068   6.483  18.493  14.003  0.0383 -0.0745 -0.0895
 6935W        W23069   7.264   0.638  14.294  0.2234 -0.2782 -0.4433
 6936W        W23070   3.441  16.695   2.857 -0.1811 -0.0566  0.0018
 6937W        W23071  15.821  16.913   3.404 -0.2122  0.1067  0.2221
 6938W        W23072   0.977  15.948  12.280 -0.3990  0.1104  0.0708
 6939W        W23073  12.782   3.013  11.728  0.0820 -0.1333 -0.0330
 6940W        W23074   2.663  12.280   0.688 -0.0603 -0.2748  0.1588
 6941W        W23075   8.677   8.341  12.949  0.0894 -0.0009  0.2727
 6942W        W23076  17.757   2.514   3.231 -0.1233  0.4072  0.0075
 6943W        W23077   5.995   6.623   0.882 -0.1238  0.2460 -0.1708
 6944W        W23078   1.654   7.202  14.457 -0.3914 -0.2656  0.0635
 6945W        W23079   4.953  10.677  14.773 -0.0221  0.0054  0.3997
 6946W        W23080  17.490  10.060   3.951 -0.0593 -0.2296 -0.0604
 6947W        W23081  12.524   2.488  14.854  0.0303 -0.0461  0.0152
 6948W        W23082   8.099   4.325   1.913 -0.0485 -0.2824  0.0354
 6949W        W23083   2.914   4.771   0.973 -0.0595  0.1862 -0.1123
 6950W        W23084  15.401   1.720  14.458  0.0006  0.1792 -0.3368
 6951W        W23085  17.094  17.625   1.787 -0.4341 -0.0545 -0.0644
 6952W        W23086   0.497   5.561   4.062  0.5853 -0.1175 -0.0492
 6953W        W23087  15.995  17.305   2.581 -0.2016  0.2569  0.1451
 6954W        W23088   3.647  15.026   3.801 -0.1202  0.0904  0.0910
 6955W        W23089   5.406   2.429  13.005  0.4236  0.0420  0.0089
 6956W        W23090   5.857  16.191  11.563 -0.1786  0.0195 -0.2299
 6957W        W23091  17.927   8.654   2.698 -0.1242  0.0257  0.1926
 6958W        W23092  12.044  11.875  15.521 -0.4008 -0.2116 -0.1847
 6959W        W23093   9.570   1.429  13.653 -0.0551 -0.2007 -0.1330
 6960W        W23094  11.131   7.524   1.076  0.2371 -0.0138  0.4223
 6961W        W23095   2.836  14.967   0.521  0.0878 -0.1281  0.0049
 6962W        W23096   6.903   3.133  15.353 -0.1762  0.3064  0.2595
 6963W        W23097  15.174   9.555  15.932  0.1601 -0.0800  0.2655
 6964W        W23098  14.013   6.046   2.861  0.3089 -0.1643 -0.0712
 6965W        W23099  18.475   0.431   2.798 -0.1786 -0.0778  0.0651
 6966W        W23100  15.393  12.789   5.704  0.2135  0.1703  0.0395
 6967W        W23101   3.283  12.263  14.807  0.0341 -0.2589 -0.0506
 6968W        W23102  12.004   6.757   5.269  0.1804 -0.2506  0.2091
 6969W        W23103  12.834  10.283   2.748 -0.0504 -0.3359 -0.0275
 6970W        W23104  13.917  18.088   3.086 -0.0378  0.2734  0.1373
 6971W        W23105  18.253  15.974  15.850  0.1831 -0.2114 -0.3299
 6972W        W23106   4.175  17.101   3.689 -0.0074  0.0189 -0.1499
 6973W        W23107  17.698  11.833   0.126 -0.3123 -0.0352 -0.1191
 6974W        W23108  14.974  10.328   4.346 -0.1904 -0.1380  0.1803
 6975W        W23109  11.289   1.449  15.777 -0.0095  0.1250 -0.0518
 6976W        W23110  12.545   5.474  12.376 -0.1854 -0.2730 -0.0691
 6977W        W23111   2.536   2.927  11.631  0.1023 -0.2175 -0.0281
 6978W        W23112  15.285  11.478   2.108 -0.1634 -0.2451  0.1484
 6979W        W23113   2.861   2.300   0.877 -0.0865  0.1060 -0.0765
 6980W        W23114   3.134   0.179   3.792  0.0897  0.2733 -0.0474
 6981W        W23115   2.549  17.165  13.782  0.0182  0.3890  0.1199
 6982W        W23116   4.339  15.324  11.854  0.3445 -0.0593 -0.2542
 6983W        W23117   3.902  12.378   2.123 -0.1377  0.0307 -0.5050
 6984W        W23118   8.212   3.001  11.840  0.0163  0.0700  0.0374
 6985W        W23119   5.806   8.270  13.390 -0.1460 -0.2075 -0.1063
 6986W        W23120   7.083  17.667   5.110  0.0615 -0.2937  0.0209
 6987W        W23121  11.316   9.696  14.616 -0.0319 -0.1131  0.0289
 6988W        W23122  17.111   8.389  11.103  0.1683 -0.0599  0.0922
 6989W        W23123   6.411   3.182   2.643  0.0986  0.0329  0.4431
 6990W        W23124  17.694  11.008   3.531 -0.2288  0.0594 -0.0303
 6991W        W23125   3.050  16.869  13.601  0.2850 -0.4695  0.0629
 6992W        W23126   6.964   3.081  13.030  0.2256  0.1708  0.0781
 6993W        W23127  17.314  14.230  14.648 -0.2015 -0.2287  0.1574
 6994W        W23128  16.026   4.612  12.505 -0.1949 -0.0353  0.0841
 6995W        W23129   9.096   3.326   5.195  0.1218 -0.1385  0.1752
 6996W        W23130   3.039   9.420   4.997  0.0922  0.0876 -0.1054
 6997W        W23131   3.386  15.016  14.907  0.0685 -0.1561 -0.0270
 6998W        W23132  14.070   2.562   0.332 -0.0534  0.2366  0.0670
 6999W        W23133  10.799   4.602   1.601 -0.0240  0.0037  0.1401
 7000W        W23134  16.403  17.548   1.854 -0.0695 -0.0346  0.3729
 7001W        W23135   3.944   4.813   4.977  0.0719  0.0589  0.1964
 7002W        W23136   6.378   6.477   4.064  0.1215  0.1899 -0.1269
 7003W        W23137  16.578   8.952   3.531  0.1406  0.2075 -0.1024
 7004W        W23138  16.101   2.566   2.102  0.2070  0.3267  0.2752
 7005W        W23139  14.874  15.130  13.701  0.0698 -0.3360  0.2380
 7006W        W23140  10.474  13.125   3.212 -0.1511  0.0618 -0.3213
 7007W        W23141   4.521  14.690  12.429 -0.1762 -0.0585  0.2848
 7008W        W23142   6.224  10.800  14.158  0.1107 -0.0366  0.0908
 7009W        W23143  10.959  13.085  15.727 -0.0806 -0.0004  0.0092
 7010W        W23144  10.997  15.331  11.858 -0.1013  0.0553  0.1477
 7011W        W23145  12.658   0.929   1.202 -0.0506  0.1597  0.1303
 7012W        W23146   7.880   7.555   2.088  0.1804  0.1428 -0.1053
 7013W        W23147   9.352   2.585   0.864  0.1655 -0.2278 -0.3590
 7014W        W23148  12.279   9.246   3.420 -0.0164  0.2975  0.0078
 7015W        W23149   9.526   2.996   6.246  0.0753 -0.2823  0.3079
 7016W        W23150  14.412   6.202  13.216  0.1455  0.2731  0.1879
 7017W        W23151  12.898  16.709   3.972 -0.0695 -0.3838  0.0244
 7018W        W23152   7.954   8.922   3.926 -0.1429  0.0309  0.2670
 7019W        W23153   8.490   4.974   5.041 -0.2119 -0.0491  0.1926
 7020W        W23154   1.016   5.582   2.898 -0.3806  0.2598  0.6381
 7021W        W23155   0.982  12.350   3.015  0.1345 -0.0236 -0.0366
 7022W        W23156  16.266   9.798  14.030  0.0315  0.1745  0.4425
 7023W        W23157   7.816   0.788   1.556  0.0133  0.0622 -0.0330
 7024W        W23158  10.118   7.429  15.974  0.0311 -0.2608  0.0677
 7025W        W23159   1.331   2.316   3.699  0.0156  0.0452  0.3979
 7026W        W23160  16.047   5.243  11.885  0.0883  0.1987 -0.0542
 7027W        W23161  12.315  12.579   5.315 -0.1044 -0.0752  0.2997
 7028W        W23162   0.655  17.272  14.224 -0.0968  0.1764  0.2076
 7029W        W23163   6.874   7.822   4.503 -0.1139 -0.2306  0.0919
 7030W        W23164   1.987  10.617  12.180  0.0736 -0.3304 -0.2738
 7031W        W23165   9.752   6.711   2.987 -0.1235  0.0682  0.1658
 7032W        W23166   6.742   7.694   3.969  0.0042 -0.3502  0.1061
 7033W        W23167  11.425   3.005   1.729 -0.3425 -0.2806  0.0080
 7034W        W23168   6.076  16.113  13.482 -0.3391  0.0117  0.1971
 7035W        W23169  15.914  18.047  12.558  0.0616 -0.2258 -0.2362
 7036W        W23170   5.443   2.209  15.220  0.1405  0.1171  0.2311
 7037W        W23171   9.207   0.392  14.984  0.1048 -0.0534  0.1018
 7038W        W23172  10.827  13.665  14.578  0.1890  0.1080 -0.1605
 7039W        W23173   8.469   5.236  13.046 -0.2055 -0.1320  0.0923
 7040W        W23174   3.002  18.298  15.086 -0.2393 -0.0584 -0.1026
 7041W        W23175  13.898   7.733  14.859  0.4636  0.3281 -0.2855
 7042W        W23176  11.338  16.298   1.123  0.2461  0.0574 -0.2335
 7043W        W23177   8.757   9.267   3.183 -0.2840 -0.0186 -0.2461
 7044W        W23178  11.801  12.754   2.597  0.1705  0.1839  0.0677
 7045W        W23179  15.986  17.182  11.488 -0.2693 -0.0227  0.0629
 7046W        W23180   7.571  11.389  15.681  0.1790 -0.0545 -0.1090
 7047W        W23181  18.354   5.442   1.003  0.4678 -0.0203 -0.4454
 7048W        W23182  15.371   8.973   4.886  0.0652  0.1073  0.1179
 7049W        W23183   8.486   0.001  14.398  0.0349  0.2901 -0.1891
 7050W        W23184   0.276   3.144  15.289 -0.0017 -0.1191 -0.2001
 7051W        W23185  10.105   7.521  12.069 -0.3928 -0.1486  0.3320
 7052W        W23186   6.089  13.957  11.900 -0.2302 -0.2056 -0.4683
 7053W        W23187  10.094   3.025   0.472  0.3309  0.2060 -0.2041
 7054W        W23188   4.004   2.961   0.510  0.1283  0.0986 -0.0461
 7055W        W23189   2.110  12.777   2.820 -0.1082  0.2705 -0.1778
 7056W        W23190  16.875  13.434  14.158 -0.1801  0.2212  0.1054
 7057W        W23191   9.048  16.039   4.554  0.0748  0.0787  0.4133
 7058W        W23192   1.947   9.780  16.006  0.2079 -0.2262  0.1227
 7059W        W23193   3.436   1.994  15.628  0.2358 -0.0110 -0.3949
 7060W        W23194   9.522   1.998   2.693 -0.1130  0.3709 -0.2188
 7061W        W23195   8.647  11.305   6.167 -0.0278 -0.2279 -0.0742
 7062W        W23196   2.786   4.172  15.877  0.1068  0.0284 -0.1858
 7063W        W23197   3.585   3.069   3.324  0.1945  0.0391  0.0449
 7064W        W23198  18.418   0.627  14.775 -0.1097 -0.2164  0.0149
 7065W        W23199  15.042   1.138  14.824 -0.0240  0.5453 -0.2503
 7066W        W23200  13.288   7.499  14.171  0.0787  0.0370 -0.2472
 7067W        W23201  11.292  10.191   4.713 -0.3630  0.0887 -0.2632
 7068W        W23202   7.164   6.344   1.555  0.1211 -0.0665 -0.1282
 7069W        W23203  11.304   8.229  13.305 -0.0961  0.0154 -0.0084
 7070W        W23204   7.423   3.636  11.896 -0.0975 -0.0470 -0.0121
 7071W        W23205   5.440  17.357  15.297 -0.0394 -0.2350 -0.3401
 7072W        W23206  15.469  16.390  10.916  0.2375  0.4082 -0.0186
 7073W        W23207   4.005   2.319  11.308  0.2880  0.0972  0.3478
 7074W        W23208   9.919  17.112   5.682 -0.1730  0.0897  0.2906
 7075W        W23209   3.776  16.935   5.322 -0.0273  0.2678 -0.0685
 7076W        W23210   7.881  18.435  11.416 -0.1462 -0.0645  0.1487
 7077W        W23211   0.260  14.825  12.759  0.0114 -0.0001  0.2098
 7078W        W23212   6.737  14.634  15.175  0.3397  0.1833  0.1397
 7079W        W23213   4.176   2.836  15.497  0.0512 -0.0677  0.2972
 7080W        W23214  14.330   0.442   4.408  0.0963  0.4250 -0.2910
 7081W        W23215  17.127   1.889   1.548 -0.0948  0.0782 -0.2154
 7082W        W23216   2.171   7.992   3.588  0.2019 -0.0604 -0.3505
 7083W        W23217  11.818   8.499   0.608  0.3642 -0.1706  0.2920
 7084W        W23218  15.759  15.454  10.482  0.0370  0.0300 -0.2633
 7085W        W23219   2.002   0.474   4.727  0.1472  0.1949  0.1464
 7086W        W23220  17.707   9.772   1.619 -0.1742  0.2421  0.4159
 7087W        W23221   1.391  17.730   5.338 -0.1267  0.2205  0.0121
 7088W        W23222   6.186  11.646  15.008  0.1621 -0.0200 -0.1282
 7089W        W23223   5.631  14.429   4.601  0.2605  0.0490 -0.0792
 7090W        W23224  16.940   6.269   4.793 -0.0122 -0.1154  0.1878
 7091W        W23225   0.610  17.482   0.691 -0.1545  0.2316 -0.1240
 7092W        W23226  14.206   2.401   2.575 -0.0918  0.1762  0.1077
 7093W        W23227  12.117  13.921  14.474  0.0665  0.2249 -0.2351
 7094W        W23228  11.254  16.033  12.621 -0.0503  0.0312  0.2415
 7095W        W23229  18.352  17.757  16.091  0.0691  0.0923  0.0462
 7096W        W23230  17.651  14.071   3.738  0.1738  0.4153  0.0929
 7097W        W23231   7.669   3.962  12.807 -0.4357 -0.0299 -0.1748
 7098W        W23232   6.549  13.999  15.893  0.1328  0.1205 -0.0448
 7099W        W23233   6.814  14.605  12.486 -0.0055  0.3746  0.1630
 7100W        W23234  16.284   5.818  10.995  0.1293 -0.1420  0.0005
 7101W        W23235  16.119  14.415   2.922  0.1415  0.0072  0.0339
 7102W        W23236  14.085   9.972  14.011  0.0974  0.0963 -0.3621
 7103W        W23237   2.559   2.926   0.101  0.2837  0.1890  0.0927
 7104W        W23238   0.167  11.199  10.320 -0.1152 -0.0574  0.2154
 7105W        W23239   3.767   8.296   3.696  0.0793 -0.0462 -0.0217
 7106W        W23240   9.256  10.826   1.859  0.0261 -0.1495  0.0519
 7107W        W23241  14.498  16.678   2.049 -0.0567 -0.0879  0.0582
 7108W        W23242  15.091   3.848  11.918  0.0666  0.1235  0.1609
 7109W        W23243   5.574   5.431  10.872  0.0833 -0.0774 -0.2822
 7110W        W23244   7.546   1.089  11.033  0.1705  0.0465 -0.1122
 7111W        W23245   2.168   3.347   0.130  0.0735 -0.2597  0.2405
 7112W        W23246  15.789   5.732  13.019  0.1113  0.3027 -0.0587
 7113W        W23247  17.629   6.528  14.455 -0.0575 -0.0614 -0.0574
 7114W        W23248  10.570  17.785  11.751  0.1585  0.2847 -0.0165
 7115W        W23249  16.828   0.463   3.441 -0.0903  0.0324  0.4012
 7116W        W23250   4.424   4.856   2.491 -0.0836 -0.0031  0.1464
 7117W        W23251  16.704   4.712  10.774  0.1276 -0.0413 -0.2014
 7118W        W23252  16.118   0.035   3.010  0.1812 -0.2798 -0.0173
 7119W        W23253  15.212  10.295  15.348 -0.0985  0.0582  0.0244
 7120W        W23254  16.553  15.102   1.150 -0.1777  0.1692 -0.3945
 7121W        W23255   5.407  10.545   2.667  0.0570  0.2544  0.0814
 7122W        W23256   3.099  18.328   1.069 -0.2085 -0.0781  0.2671
 7123W        W23257   4.655  15.611  12.062 -0.2985  0.0549  0.2726
 7124W        W23258   3.161   4.839   3.237 -0.1172  0.1242  0.0243
 7125W        W23259   4.522   2.195  15.656  0.3600  0.1430  0.0392
 7126W        W23260   1.641  17.406   2.374  0.2649 -0.3979  0.0522
 7127W        W23261   6.289   7.876  14.403  0.1693  0.0536  0.0260
 7128W        W23262   6.453  11.230   2.622  0.0452 -0.0723  0.1196
 7129W        W23263   3.099   0.985   0.351 -0.0083  0.1151 -0.1408
 7130W        W23264  12.011  17.562  11.545  0.3729  0.0347 -0.0665
 7131W        W23265   4.650   9.287  13.141  0.2879  0.1298 -0.0622
 7132W        W23266  17.081  14.980   1.154  0.0328  0.1543  0.0934
 7133W        W23267  14.512  15.279   1.631  0.1326  0.2149 -0.0818
 7134W        W23268   5.455  13.988   4.396 -0.1495 -0.0173 -0.0625
 7135W        W23269   1.740   4.663  11.714  0.2272  0.3380 -0.0807
 7136W        W23270   3.125  18.024  16.036 -0.0954 -0.0408  0.1559
 7137W        W23271   7.296   5.765   3.187  0.0677 -0.0989  0.1372
 7138W        W23272   3.406  13.681  10.943 -0.2657  0.2968 -0.2229
 7139W        W23273  15.254   4.344   3.814 -0.3557  0.0863  0.4498
 7140W        W23274   1.574  10.775  12.460  0.1245  0.2739  0.0125
 7141W        W23275  16.657  18.364  15.106 -0.2432 -0.0323 -0.1026
 7142W        W23276   4.653  17.964   5.471  0.0835  0.2272  0.1149
 7143W        W23277   7.890  11.769  11.581  0.3520  0.1152  0.0118
 7144W        W23278  14.552   7.605   1.070  0.2632  0.1576  0.3892
 7145W        W23279   3.048   2.763  11.372 -0.2327 -0.2652  0.0314
 7146W        W23280  17.200   8.365   0.496  0.1015  0.0185 -0.3278
 7147W        W23281   4.611   3.234   5.470 -0.0817 -0.1346 -0.3162
 7148W        W23282  11.324  16.558  12.307  0.1186 -0.1133  0.1397
 7149W        W23283  13.120  14.968  11.409  0.0499 -0.3408 -0.0237
 7150W        W23284   1.810   8.461   1.963  0.2266  0.3042  0.3681
 7151W        W23285  18.423  10.040  15.744  0.0664  0.3766 -0.1118
 7152W        W23286  11.587  10.825   3.528  0.1810 -0.1433  0.4011
 7153W        W23287   9.520  15.315   3.696  0.1659  0.0528 -0.0252
 7154W        W23288   7.757  11.364   4.834  0.3113 -0.0196  0.0723
 7155W        W23289   2.321  17.216  14.883 -0.1340 -0.0822 -0.5136
 7156W        W23290  16.595  18.281  11.024 -0.1069 -0.1008  0.0852
 7157W        W23291   9.113   7.143  14.712  0.1482 -0.2115 -0.2145
 7158W        W23292  10.810   4.765  12.419  0.1405  0.0051  0.0973
 7159W        W23293  16.185   2.093  14.751 -0.0560  0.0562  0.0260
 7160W        W23294   0.336  14.595  10.845 -0.1607  0.0769 -0.5138
 7161W        W23295  11.652   5.125  12.744 -0.0673 -0.1619 -0.1819
 7162W        W23296  12.850  16.946  14.358  0.1950 -0.0119  0.2065
 7163W        W23297  16.379   9.658   3.015  0.0957 -0.1336 -0.1744
 7164W        W23298   0.229   9.480  10.777  0.0496 -0.0014 -0.1610
 7165W        W23299   0.801   2.197   5.829 -0.0980 -0.0003  0.2535
 7166W        W23300  17.557  13.304  13.081 -0.4838 -0.0471  0.0902
 7167W        W23301  12.419   2.802   0.163  0.1839  0.1898  0.0238
 7168W        W23302   2.929  14.577   0.959  0.3678 -0.0260  0.2689
 7169W        W23303   9.467   0.543   6.245  0.0761  0.0998  0.3261
 7170W        W23304   8.222  14.259   1.431 -0.0728  0.0271  0.2846
 7171W        W23305   6.437   6.441   0.142  0.1033  0.1460 -0.2849
 7172W        W23306  11.736   9.786  12.663  0.2765  0.2070  0.0692
 7173W        W23307   8.352  15.093  12.362  0.3388 -0.3978 -0.0345
 7174W        W23308  10.853   0.324   3.379  0.1807 -0.1618 -0.0867
 7175W        W23309   1.150  17.416  14.715  0.1165 -0.2777  0.1294
 7176W        W23310  12.666   3.368  14.685  0.1510  0.2549  0.0877
 7177W        W23311  14.796  11.472   1.843 -0.2896 -0.0770  0.1269
 7178W        W23312   4.323  10.846  12.720 -0.0475  0.3848  0.3439
 7179W        W23313   6.598  17.832  11.403 -0.1558 -0.0523 -0.2828
 7180W        W23314  12.302   5.568   2.984  0.2950 -0.0766 -0.0194
 7181W        W23315   6.151  16.725  14.841  0.3052  0.3046 -0.5442
 7182W        W23316  10.397   8.779   5.180  0.1394  0.2632 -0.0252
 7183W        W23317   8.345  13.033   6.168 -0.1768  0.0129 -0.0717
 7184W        W23318   7.295  15.200   0.826 -0.1149  0.1616  0.1588
 7185W        W23319   5.818   4.440  13.645 -0.1081 -0.1377 -0.0531
 7186W        W23320  10.874  11.408  15.113  0.1059 -0.1226 -0.1051
 7187W        W23321   1.296  11.339  13.012 -0.1537  0.1697 -0.0536
 7188W        W23322   6.846  16.537   0.469 -0.2246 -0.0080  0.1267
 7189W        W23323  14.242   2.790  14.816 -0.1303 -0.1272 -0.0932
 7190W        W23324   3.892  17.464   2.024  0.1879  0.1687 -0.1756
 7191W        W23325   1.803   8.294   1.037 -0.0523 -0.0598 -0.1253
 7192W        W23326   1.593  18.251  13.162 -0.0273  0.0627  0.0692
 7193W        W23327   3.087   3.045   2.934  0.2921  0.5234 -0.1967
 7194W        W23328  14.025   5.254   2.113  0.2133  0.0266  0.0031
 7195W        W23329  12.112  12.994   1.768 -0.1217  0.0318  0.0078
 7196W        W23330  18.359  18.329  11.104 -0.2316 -0.2422  0.1497
 7197W        W23331  14.484  14.744  14.055 -0.3697 -0.0898 -0.2109
 7198W        W23332   2.975  17.778   4.492  0.0405 -0.0381 -0.3285
 7199W        W23333   6.318   0.381  12.328  0.1146  0.0277 -0.1804
 7200W        W23334  17.021   4.461   5.225 -0.0252 -0.0236 -0.2392
 7201W        W23335   4.834   1.157  11.914  0.1063 -0.1866  0.1586
 7202W        W23336  11.692   5.957   5.254  0.0798 -0.3116 -0.1963
 7203W        W23337  16.820   1.713   1.189 -0.0009 -0.0407  0.1470
 7204W        W23338   2.799  14.867   1.869 -0.1309 -0.2143 -0.2287
 7205W        W23339   6.361   3.595   5.652  0.0701  0.2297 -0.0915
 7206W        W23340  13.871   6.525   4.232  0.3865  0.1526  0.0824
 7207W        W23341   3.528   4.598  13.793 -0.2323  0.3990  0.3741
 7208W        W23342  12.667   3.120   1.854 -0.1784  0.0607  0.1735
 7209W        W23343  17.496   0.589  10.741  0.0025 -0.0763 -0.0843
 7210W        W23344   6.114   1.554  16.030 -0.0077 -0.0569  0.2066
 7211W        W23345  12.850   0.150   4.778 -0.1364  0.0351 -0.5552
 7212W        W23346  17.286  17.184   3.089  0.0445  0.1322  0.0129
 7213W        W23347   4.540   9.326   3.700  0.1079 -0.2736  0.2521
 7214W        W23348  14.575   9.037   0.392 -0.3022 -0.0612 -0.0683
 7215W        W23349   9.237  10.359  13.021  0.2003  0.2583 -0.3532
 7216W        W23350  13.954  11.234   1.988 -0.0179  0.3239  0.2851
 7217W        W23351   2.925  15.455   3.918  0.0400 -0.0620  0.0806
 7218W        W23352  10.648  18.100  12.533  0.2120 -0.0100  0.0240
 7219W        W23353   6.686   6.876   5.976 -0.3663  0.1365  0.1411
 7220W        W23354   5.217   4.881  12.347  0.0298 -0.2338  0.0811
 7221W        W23355   3.978   2.948   3.036  0.0582 -0.2949 -0.0194
 7222W        W23356   6.525  12.007  14.850 -0.2453  0.0352 -0.0922
 7223W        W23357  11.893  10.656   0.156 -0.0790 -0.2604  0.0971
 7224W        W23358  13.213  14.433  14.172  0.4164  0.0517  0.0660
 7225W        W23359  12.112   4.315   3.572  0.0129 -0.0320  0.2442
 7226W        W23360  14.747   1.204   1.238  0.0753 -0.0332 -0.0675
 7227W        W23361  14.222  11.197  12.359  0.1675 -0.0424  0.2317
 7228W        W23362   5.769   9.632  12.539  0.2520  0.0682 -0.1978
 7229W        W23363   7.956  10.512  14.256 -0.0633 -0.0358 -0.0153
 7230W        W23364  17.492   9.196  12.460 -0.2700  0.1211  0.1325
 7231W        W23365  10.877  17.166   6.166 -0.2424 -0.0303  0.0933
 7232W        W23366  12.715   3.005  12.814 -0.2050  0.0803  0.0106
 7233W        W23367   2.518  15.329  14.453  0.1978  0.0844 -0.0179
 7234W        W23368  14.796  12.761   2.599 -0.3271 -0.1497  0.3443
 7235W        W23369   1.851  10.364   1.805 -0.1162  0.1198  0.2715
 7236W        W23370  18.040  16.028  11.745  0.1391 -0.2289  0.3983
 7237W        W23371  18.224  10.763   0.842 -0.2580 -0.0622  0.2243
 7238W        W23372  16.085  12.501   2.385  0.0214 -0.0328 -0.0869
 7239W        W23373  13.927  10.849   5.730 -0.0791  0.1831  0.0635
 7240W        W23374   5.568   8.730   3.275 -0.1164  0.1751 -0.0543
 7241W        W23375  14.975  17.508   1.973  0.0644  0.1986 -0.0946
 7242W        W23376   1.749  16.986   4.947 -0.3659  0.0428  0.2132
 7243W        W23377   7.804  11.699  14.525  0.4590 -0.4221 -0.1936
 7244W        W23378  11.041   0.083   0.275 -0.2308  0.3962 -0.1355
 7245W        W23379   8.661   4.058   2.837  0.2639 -0.1571  0.2830
 7246W        W23380   3.990   2.681  14.534  0.1581 -0.0775  0.2988
 7247W        W23381  16.203  11.836   4.188  0.0147  0.1370  0.2124
 7248W        W23382  11.257   6.658   2.165  0.2164  0.2766  0.0299
 7249W        W23383  10.190  17.705  11.999 -0.1325  0.0653 -0.1911
 7250W        W23384   0.311  15.236   5.141 -0.0770  0.2985  0.0185
 7251W        W23385   5.986  13.140   2.751  0.1347 -0.3648 -0.0172
 7252W        W23386  12.236  12.571   2.672  0.2251 -0.0708 -0.0906
 7253W        W23387   5.474   0.907   2.414 -0.1826  0.1322 -0.0417
 7254W        W23388  16.240   6.956   4.928 -0.2975 -0.0389  0.1992
 7255W        W23389  10.608   1.407  13.445 -0.1529 -0.0562  0.0730
 7256W        W23390  11.550   9.908   3.801 -0.0933  0.1690 -0.0162
 7257W        W23391  14.031   1.508   3.266  0.1101 -0.2639 -0.2157
 7258W        W23392  17.870   8.576   3.251  0.1902  0.1206  0.1481
 7259W        W23393   3.633  17.610   0.623 -0.3331  0.0068 -0.1114
 7260W        W23394   3.332   4.953  15.439  0.0257  0.0708 -0.2498
 7261W        W23395  13.700  13.178  13.938 -0.1129  0.1357  0.0861
 7262W        W23396  13.485   7.374   5.973  0.0009  0.3143  0.0886
 7263W        W23397  15.048  16.429  11.274  0.0343 -0.1368  0.0765
 7264W        W23398   1.562  12.459  12.999 -0.5126 -0.0314 -0.1516
 7265W        W23399  14.319   6.940  12.433  0.1080 -0.2316 -0.0188
 7266W        W23400   5.334   2.645   1.190 -0.3934  0.1436  0.0194
 7267W        W23401  11.572  11.653   4.703 -0.0642  0.4374 -0.2801
 7268W        W23402  18.418  13.805   0.478  0.0349 -0.0030  0.1393
 7269W        W23403  10.261  15.302  14.135 -0.0050 -0.0327 -0.4836
 7270W        W23404  15.274   6.783  11.460 -0.1088  0.3878  0.1129
 7271W        W23405   3.236   3.125  15.052 -0.1278 -0.2918  0.0641
 7272W        W23406   0.473   2.212   4.188 -0.2405  0.0080  0.0847
 7273W        W23407  15.486   5.842  12.212 -0.0312  0.1791  0.4377
 7274W        W23408   4.300  15.317  13.695  0.1942  0.0027  0.2737
 7275W        W23409   0.515   5.894   0.998  0.0945 -0.0158  0.1172
 7276W        W23410  17.088  10.551  10.710  0.2376  0.2754 -0.2528
 7277W        W23411   2.230  14.117   0.825  0.2656 -0.0324  0.0709
 7278W        W23412   5.438  14.150  15.239 -0.2487 -0.2136 -0.3310
 7279W        W23413  16.310  13.427  11.250 -0.0185 -0.1224 -0.2423
 7280W        W23414   4.415   0.598  15.745  0.1029  0.0200 -0.1469
 7281W        W23415  17.436   7.867  11.126 -0.4498 -0.1089 -0.2182
 7282W        W23416   0.515   7.011   1.231  0.3766 -0.0289 -0.0189
 7283W        W23417   2.521   6.950   0.013  0.0902  0.0336  0.3605
 7284W        W23418   6.932   5.487   3.395 -0.0883 -0.0969  0.1629
 7285W        W23419   0.359   9.861   4.261  0.0914  0.1379 -0.3234
 7286W        W23420  12.818   1.002  11.825 -0.2515  0.3185 -0.0839
 7287W        W23421   1.102  18.132  10.591 -0.0008 -0.0055  0.0598
 7288W        W23422  12.583   0.521   4.993 -0.0969  0.0951 -0.3418
 7289W        W23423  17.820   2.473  13.414  0.1116  0.1213  0.1167
 7290W        W23424  18.244  17.725   4.067  0.2178 -0.1441 -0.1731
 7291W        W23425   6.467   1.228  14.771 -0.1161  0.3931 -0.3166
 7292W        W23426   5.065  11.353   2.107  0.3646  0.1218  0.5461
 7293W        W23427   9.961  10.224   0.028  0.0530 -0.1277  0.1793
 7294W        W23428   3.140  10.737   2.089  0.0997 -0.2058  0.0982
 7295W        W23429   1.719   9.796  15.144  0.2108  0.0453 -0.1957
 7296W        W23430  15.247   4.637   0.068 -0.3295 -0.0242 -0.0403
 7297W        W23431   2.546  14.223   1.214 -0.0080  0.0344 -0.0221
 7298W        W23432  16.931  12.914   2.830  0.3314  0.2488  0.0128
 7299W        W23433  16.758  11.077   3.512  0.1268 -0.2387  0.0727
 7300W        W23434  17.078  12.095  13.880 -0.0314 -0.2097 -0.0462
 7301W        W23435   4.088  18.115  13.076  0.2052 -0.0429 -0.1912
 7302W        W23436  15.031   1.030  12.522  0.1173 -0.1100 -0.2408
 7303W        W23437   5.047   9.673   2.900 -0.0852  0.3767  0.2115
 7304W        W23438   3.650  13.135   1.263  0.4101  0.0337  0.1488
 7305W        W23439  10.152   7.191  12.920  0.0808 -0.0492  0.0447
 7306W        W23440  17.021   2.289   5.070  0.2724  0.3225  0.3672
 7307W        W23441  14.810  11.223   4.203  0.1496  0.0119  0.2290
 7308W        W23442  14.531  12.810   4.097 -0.2016 -0.2923  0.0145
 7309W        W23443   4.113  14.940   3.592  0.5079  0.0652 -0.3675
 7310W        W23444  17.286  18.305   0.223 -0.0201 -0.0468  0.1994
 7311W        W23445   2.540   4.865  11.253  0.5537 -0.1648 -0.1663
 7312W        W23446   1.925  10.676   2.267 -0.0528 -0.1586 -0.0994
 7313W        W23447  15.709  11.654  14.743 -0.1013  0.0796  0.0441
 7314W        W23448  11.404   4.262  15.880  0.0752 -0.0553  0.0789
 7315W        W23449  16.378  15.858  12.772  0.0377 -0.0683  0.0636
 7316W        W23450  14.066  17.002  16.053 -0.2813  0.0415 -0.1386
 7317W        W23451   6.222  17.112  15.580  0.1808  0.2984 -0.0356
 7318W        W23452   0.463   7.136  13.710 -0.0779  0.0505 -0.0747
 7319W        W23453   0.186   8.843  12.319 -0.0200  0.1048  0.1133
 7320W        W23454   8.414   9.485   0.868  0.2060 -0.0685 -0.1399
 7321W        W23455   1.115   6.730  13.617 -0.0370  0.1520  0.1067
 7322W        W23456   7.391   6.072  13.488 -0.3499  0.0436  0.0964
 7323W        W23457   0.869  16.965  15.708  0.4699 -0.1739  0.0867
 7324W        W23458  17.230   3.173  10.731  0.0972 -0.0814  0.3621
 7325W        W23459  10.161  14.814  14.361 -0.0656 -0.0955  0.2200
 7326W        W23460   6.786   8.095  12.197 -0.0090  0.1834  0.0306
 7327W        W23461  11.474   7.223  13.333 -0.1863  0.0319 -0.3069
 7328W        W23462  11.424   4.204  15.349  0.2105  0.2464 -0.0398
 7329W        W23463   5.742  12.729   0.284  0.3993  0.0671  0.0698
 7330W        W23464  18.486   2.889  13.335  0.2941  0.0079  0.1006
 7331W        W23465   3.587  13.349   0.776  0.0761  0.0440 -0.1282
 7332W        W23466  15.617  17.203  13.807 -0.0217 -0.0761  0.1222
 7333W        W23467  11.901  12.600   0.900 -0.0958  0.0277  0.1091
 7334W        W23468   7.097  18.414   2.765  0.3002 -0.0193 -0.1645
 7335W        W23469  14.511  11.439   3.735  0.0617  0.2457  0.0655
 7336W        W23470   7.941  17.948  12.940  0.0451  0.0166 -0.1576
 7337W        W23471   6.056   7.117  11.330 -0.1501 -0.1459 -0.0810
 7338W        W23472  14.806  15.622   0.158  0.0354  0.1896 -0.3340
 7339W        W23473   7.092  15.496   3.509  0.1966  0.1290 -0.5263
 7340W        W23474   6.002   3.323   2.141  0.1163  0.0016  0.0090
 7341W        W23475  13.677   9.705  14.148 -0.1826 -0.0700  0.0719
 7342W        W23476   0.274   6.501  15.670  0.1995  0.0131  0.2334
 7343W        W23477   5.571   3.716  14.823  0.1050 -0.0979 -0.0089
 7344W        W23478   6.339  17.073  12.551  0.0054 -0.0849 -0.2202
 7345W        W23479  13.377  14.356   2.775  0.0739  0.0057 -0.1943
 7346W        W23480  17.143   0.876  14.286 -0.0408  0.2774  0.0389
 7347W        W23481   3.693   9.802   3.230 -0.2843  0.0551 -0.1117
 7348W        W23482   4.150  14.991  11.502  0.3356  0.1078 -0.3045
 7349W        W23483   1.519   6.284   0.542 -0.0222 -0.1052 -0.0154
 7350W        W23484  13.930   6.410   0.367 -0.1920  0.1727  0.1269
 7351W        W23485   7.803   8.133   5.429  0.0779  0.0767 -0.2946
 7352W        W23486   3.112   4.664  15.121 -0.2131 -0.1019  0.0746
 7353W        W23487  17.674  15.772  13.398 -0.0832 -0.0677 -0.3548
 7354W        W23488   0.256  16.116   2.567  0.1817  0.0261  0.0418
 7355W        W23489   4.574   5.522  10.616  0.0300 -0.2511 -0.3068
 7356W        W23490  16.082  13.818  14.636  0.1996  0.2807 -0.0596
 7357W        W23491   5.506  18.474   4.816 -0.2563  0.1283 -0.3691
 7358W        W23492  15.128  12.151   2.105 -0.1786  0.3434 -0.0186
 7359W        W23493   3.448   7.135  15.797 -0.0891  0.1261  0.1031
 7360W        W23494  11.749  13.240   0.665  0.0275  0.1573  0.0371
 7361W        W23495   9.910   1.494  12.712  0.2702 -0.0269 -0.0163
 7362W        W23496   6.491  16.497   3.522 -0.1146 -0.1836  0.2452
 7363W        W23497  13.997   6.038   5.682  0.2113 -0.2214  0.0618
 7364W        W23498   3.346   7.980   0.970  0.1098  0.1615 -0.2160
 7365W        W23499   9.355   9.627   1.256 -0.0698  0.0976  0.1396
 7366W        W23500   2.736  16.104  13.249 -0.1816  0.1462 -0.3540
 7367W        W23501   2.971   7.257  15.873  0.1247 -0.0373 -0.0841
 7368W        W23502  14.358  15.770  15.140 -0.1900 -0.3567  0.1908
 7369W        W23503  13.160  16.522   5.535 -0.0475 -0.1461 -0.2263
 7370W        W23504  11.963   8.448   3.293 -0.0402 -0.0574 -0.3859
 7371W        W23505   0.694   7.517   0.947  0.1371 -0.2860 -0.2874
 7372W        W23506  10.662  10.872   0.480 -0.0986  0.1389 -0.1420
 7373W        W23507   0.603  15.406   2.115 -0.2095  0.1513 -0.0553
 7374W        W23508   2.083   0.972   2.953  0.2830  0.0738  0.0007
 7375W        W23509   6.038  16.552   5.258 -0.1840 -0.2250 -0.2961
 7376W        W23510  11.358   5.542   2.609  0.1669 -0.1779 -0.1579
 7377W        W23511   8.362  15.266   2.225 -0.3377  0.4282  0.1822
 7378W        W23512  15.327   2.037  11.341 -0.3448 -0.3321  0.0318
 7379W        W23513   2.200   7.239  11.176  0.2746  0.2836 -0.1330
 7380W        W23514   5.538   8.842  13.216  0.0784  0.2270 -0.2490
 7381W        W23515   9.720   7.546   1.327  0.1493 -0.0468  0.1842
 7382W        W23516  10.300  18.027  16.016  0.2440 -0.1060 -0.0936
 7383W        W23517  11.746  11.849   5.209  0.0479  0.1378  0.1898
 7384W        W23518  18.433  17.962  13.396  0.0453 -0.0793  0.0438
 7385W        W23519   5.373  12.621   3.221  0.0161 -0.2267 -0.1541
 7386W        W23520   0.172  13.986  13.402 -0.1991 -0.1099  0.2350
 7387W        W23521   9.987  13.649   4.067 -0.1819  0.0915  0.1230
 7388W        W23522   5.195  11.369  13.815 -0.0376  0.2161  0.0221
 7389W        W23523   2.864   2.746   1.250 -0.0060 -0.1695 -0.2192
 7390W        W23524  16.817   9.279  14.616  0.2295  0.0832  0.1402
 7391W        W23525   1.305   5.920  13.681 -0.3820  0.0604  0.0079
 7392W        W23526  15.813   4.925  11.578  0.0949  0.2476  0.0255
 7393W        W23527  15.173  11.670  14.490 -0.2601  0.0849  0.1832
 7394W        W23528  15.621   6.816   1.779  0.1832  0.1912 -0.0811
 7395W        W23529   8.601  13.541   2.506  0.3156  0.0274  0.1214
 7396W        W23530  14.746  17.842  12.606 -0.1054 -0.0258 -0.0854
 7397W        W23531   2.540  10.620  14.686  0.1550 -0.2588 -0.0526
 7398W        W23532   3.048  14.195  11.671 -0.3108  0.1166  0.0029
 7399W        W23533   1.579  15.749  11.696 -0.1961  0.2932 -0.0186
 7400W        W23534   8.264  14.509  12.991 -0.0800 -0.0343 -0.0559
 7401W        W23535  17.479   0.170  16.040 -0.0743 -0.1589 -0.2165
 7402W        W23536  15.970   5.137  14.929  0.0802 -0.0812  0.1519
 7403W        W23537   9.932   0.421  15.899 -0.0715  0.1193 -0.0150
 7404W        W23538   2.311  12.713   0.641  0.2596 -0.2128 -0.0599
 7405W        W23539   1.396  15.843  15.893 -0.2036 -0.0524 -0.1977
 7406W        W23540   8.468  15.923  14.651 -0.2542 -0.0832  0.0627
 7407W        W23541   1.146   2.123  12.656  0.0483 -0.1207 -0.0179
 7408W        W23542   0.780  15.716   4.346  0.2762 -0.1378  0.0302
 7409W        W23543   9.040  12.930  13.828  0.0951  0.1837  0.1567
 7410W        W23544  12.542   0.944  13.741 -0.3220  0.2802 -0.0390
 7411W        W23545   4.891  10.065  14.574  0.1890  0.1523 -0.1201
 7412W        W23546  10.835  16.704   5.197 -0.0527 -0.3038 -0.1458
 7413W        W23547   8.968   9.911  12.957  0.1595 -0.0615  0.1440
 7414W        W23548  10.972   1.710  14.900 -0.4960  0.0379 -0.0362
 7415W        W23549   9.552   0.965  13.242 -0.4787  0.0960  0.0205
 7416W        W23550   6.209   7.510  12.676  0.1582  0.0983 -0.2013
 7417W        W23551   0.000   8.159   9.993  0.0969  0.0274 -0.1575
 7418W        W23552  13.558   0.010   1.775  0.0337  0.0267 -0.1417
 7419W        W23553   0.434  13.823   0.419 -0.0764  0.0767  0.0731
 7420W        W23554  10.145   2.342   3.886  0.0252 -0.1162  0.2602
 7421W        W23555  10.698  12.634   5.322 -0.4050 -0.1570 -0.0038
 7422W        W23556   7.601  11.949  12.003 -0.0527  0.2979 -0.2275
 7423W        W23557   2.208   7.759  12.783 -0.1832  0.4258 -0.0980
 7424W        W23558   8.305   0.631   4.756 -0.0635 -0.0444  0.1771
 7425W        W23559  17.037   7.712   3.361 -0.0177  0.1966  0.4321
 7426W        W23560   4.680   9.489   4.718  0.1240  0.3405  0.1453
 7427W        W23561   3.136   7.985  13.715  0.0614  0.1065 -0.1156
 7428W        W23562   1.625   6.311  12.516 -0.1211 -0.2928 -0.2840
 7429W        W23563  11.453  16.797   3.886  0.0674  0.0381 -0.1179
 7430W        W23564   0.957   2.462  15.595  0.3676  0.0295 -0.1013
 7431W        W23565  11.367   6.651   0.348  0.0387  0.1672 -0.1198
 7432W        W23566  15.824   8.496   4.143  0.2042 -0.0038  0.0949
 7433W        W23567   1.153   4.926   4.814 -0.0275 -0.0197  0.0006
 7434W        W23568   5.642  17.080  15.705  0.0072  0.2547  0.1111
 7435W        W23569  15.709   6.649   2.259 -0.0355 -0.1647 -0.1610
 7436W        W23570  18.022   8.478   1.144  0.1732  0.2325 -0.0803
 7437W        W23571  12.743   1.483   5.291 -0.1120 -0.1159  0.1152
 7438W        W23572   9.308  14.876  12.454  0.5842 -0.4860  0.2616
 7439W        W23573  13.164   9.775   3.674  0.3501 -0.0403 -0.0735
 7440W        W23574  12.550   5.113   0.193 -0.2847 -0.1802 -0.1391
 7441W        W23575   3.213   2.666  12.961 -0.1666 -0.4580  0.1376
 7442W        W23576   5.368  11.725   1.963 -0.2220 -0.2972  0.2897
 7443W        W23577   3.641   6.486   5.141 -0.0104 -0.3685 -0.3077
 7444W        W23578  16.695  13.797  13.323 -0.0740  0.0322  0.1631
 7445W        W23579  10.806  13.589  15.440  0.1312  0.3876 -0.1004
 7446W        W23580   7.448   1.742   4.230  0.1109  0.0575  0.1043
 7447W        W23581   7.371   4.752   6.261  0.2043 -0.0279  0.0339
 7448W        W23582   8.063   9.554  11.975  0.2201 -0.1196 -0.1408
 7449W        W23583  16.050  14.530  15.398  0.2904  0.1875 -0.0319
 7450W        W23584  11.515  13.005   5.236 -0.0777  0.0985  0.0464
 7451W        W23585  13.232   2.181  12.012  0.3459  0.1464  0.0352
 7452W        W23586  11.052  11.502  12.700 -0.2618 -0.2057  0.1181
 7453W        W23587  10.068  12.039  16.039 -0.0208 -0.1028 -0.0841
 7454W        W23588  12.125  14.623   0.875 -0.0903 -0.0540  0.0043
 7455W        W23589  10.452  16.657  15.884 -0.1163  0.3455 -0.0510
 7456W        W23590   4.484   6.891   5.405 -0.2328  0.0351  0.4760
 7457W        W23591  12.955   4.128   3.096 -0.3054  0.2033 -0.1533
 7458W        W23592   1.724   1.896   0.276 -0.0455 -0.0691  0.3042
 7459W        W23593   5.271   7.190   1.340  0.0263  0.2053  0.0355
 7460W        W23594  11.099  16.346  14.702 -0.1457 -0.0121  0.2103
 7461W        W23595   6.907   8.557  14.719 -0.4138  0.1668 -0.1523
 7462W        W23596   4.273  13.323  15.235  0.1609  0.0573  0.2482
 7463W        W23597  11.766  13.052   3.012  0.1723  0.1348  0.0961
 7464W        W23598  16.085   6.987  13.408  0.0926  0.0064 -0.1264
 7465W        W23599  12.814   0.678  11.392 -0.1139 -0.0966  0.0152
 7466W        W23600   2.045  11.998  14.392  0.0676 -0.0297  0.2053
 7467W        W23601  12.144   0.745   3.764 -0.1470 -0.1570 -0.0189
 7468W        W23602  11.001   7.989  15.168  0.1968  0.1501 -0.1098
 7469W        W23603   7.066  10.850  11.732 -0.1544 -0.1215 -0.0210
 7470W        W23604  16.795  14.279  14.753  0.0277  0.1532  0.1639
 7471W        W23605  13.962  14.808   1.331 -0.1457  0.1329 -0.1385
 7472W        W23606   2.119   9.085   3.627  0.0951  0.1692  0.0545
 7473W        W23607   5.084  12.957  13.014 -0.3014  0.1449 -0.3282
 7474W        W23608  12.542  14.046   2.745  0.2826  0.0866 -0.1696
 7475W        W23609  11.823  15.542  12.357 -0.7047 -0.0587 -0.1053
 7476W        W23610   8.848   3.315   0.878 -0.1114 -0.1104  0.0089
 7477W        W23611  11.345   3.545   2.987  0.0317  0.0672 -0.0395
 7478W        W23612  11.330  14.611   4.421 -0.0101 -0.1940 -0.1412
 7479W        W23613   8.749  10.637   0.006 -0.0511  0.1138  0.0137
 7480W        W23614   1.911   4.720  15.770  0.2027 -0.0713  0.0046
 7481W        W23615   3.858  16.515   0.934 -0.0676 -0.1622  0.0231
 7482W        W23616   0.853  12.842  13.646  0.0395  0.0272  0.0787
 7483W        W23617   8.599  18.081   4.259 -0.0269 -0.1466  0.3234
 7484W        W23618   5.725   8.752  11.654 -0.2682  0.1908  0.2689
 7485W        W23619   8.397  16.282  15.149  0.0513  0.2071 -0.0004
 7486W        W23620  17.286   5.019  15.813 -0.1290  0.1443 -0.0715
 7487W        W23621  16.356  10.010  12.278  0.0056  0.2782  0.0740
 7488W        W23622   9.473  11.665  13.976 -0.1939 -0.3262  0.1580
 7489W        W23623  12.956   6.063  11.590  0.1352 -0.3180 -0.0883
 7490W        W23624   5.892  14.477   1.778 -0.1807  0.1483 -0.3362
 7491W        W23625  14.318   9.568   0.136  0.1771  0.0728  0.1065
 7492W        W23626   0.790   5.543   9.845 -0.4679 -0.0446 -0.2041
 7493W        W23627  18.365  16.063   2.870  0.0280  0.5261  0.0276
 7494W        W23628  10.354   4.747  12.028 -0.1558  0.1118  0.1344
 7495W        W23629  14.270  15.272   1.145  0.3979  0.3204 -0.2558
 7496W        W23630   7.648   7.924   1.014 -0.0764  0.3495  0.1185
 7497W        W23631  14.920   0.671  13.425 -0.1799  0.2842  0.2864
 7498W        W23632  15.640   4.503  15.947 -0.1508  0.2112  0.4778
 7499W        W23633  11.560   9.866  13.301  0.3186  0.4082  0.1446
 7500W        W23634   4.518   6.479   1.616  0.1108 -0.1988 -0.0301
 7501W        W23635   4.597  15.077   1.428 -0.1812  0.3231  0.1210
 7502W        W23636   3.818   3.186  12.490 -0.3433 -0.4590 -0.1364
 7503W        W23637   7.427   1.493  11.459  0.1413  0.1742  0.0191
 7504W        W23638   3.232   0.733  10.161  0.2567  0.0185  0.2776
 7505W        W23639  11.540  17.055  14.642 -0.1721 -0.1261 -0.0246
 7506W        W23640   3.183   8.276  13.100  0.0428 -0.2039 -0.0752
 7507W        W23641  12.400  10.385  13.457 -0.0355  0.0319  0.0933
 7508W        W23642   5.658  17.034   0.745  0.1627  0.1235  0.3267
 7509W        W23643   6.083  11.011  13.505  0.0763 -0.4590  0.0172
 7510W        W23644  18.407  16.468   2.540  0.0297 -0.2341 -0.0515
 7511W        W23645   0.741  18.275  11.315 -0.2225 -0.1040  0.3949
 7512W        W23646  11.721  12.482  15.554 -0.0713  0.1229 -0.0225
 7513W        W23647  16.750   9.539   5.626 -0.2145 -0.2576  0.0858
 7514W        W23648   3.804   8.216   2.399  0.0759  0.3587  0.1221
 7515W        W23649   7.044   9.384  15.949 -0.1363  0.0808  0.0056
 7516W        W23650   0.563  12.906  11.510 -0.1942 -0.3680 -0.0321
 7517W        W23651  10.667   1.509   3.951  0.0664  0.1959 -0.3214
 7518W        W23652   9.049   1.453  14.329  0.1966 -0.0179 -0.2377
 7519W        W23653   6.746  16.313   0.901 -0.0117  0.3181 -0.0634
 7520W        W23654  15.561   3.134  12.969 -0.2359 -0.0093 -0.0911
 7521W        W23655  14.331  11.259  15.577  0.0296  0.1939  0.0211
 7522W        W23656  10.182   1.015  12.594 -0.1027 -0.0761 -0.1309
 7523W        W23657   9.577   1.793  12.665 -0.1208 -0.3154  0.0746
 7524W        W23658  16.758  15.547   2.265  0.3537  0.0669  0.1072
 7525W        W23659  14.221   1.644   1.959  0.0728  0.1572  0.3903
 7526W        W23660   6.235  10.998   3.537  0.3666  0.1597 -0.0846
 7527W        W23661  18.247   1.168   0.565 -0.0326 -0.1681 -0.0796
 7528W        W23662  10.992   9.439  15.488  0.0246  0.2584 -0.0459
 7529W        W23663   4.753  16.959   5.380 -0.2991 -0.1545  0.3559
 7530W        W23664  11.707  11.467  13.821  0.0565 -0.1059  0.2511
 7531W        W23665  11.058   4.304  15.037  0.2132  0.1048  0.0825
 7532W        W23666   8.492  16.863  13.943  0.4975 -0.2490 -0.1514
 7533W        W23667   2.511  17.544   3.001  0.1105  0.2989 -0.1382
 7534W        W23668  11.831   4.138  15.604  0.0713 -0.5427 -0.1383
 7535W        W23669  11.650   8.599   1.783 -0.0578 -0.0356 -0.1484
 7536W        W23670  10.100   1.325   5.137 -0.0896  0.1619 -0.2010
 7537W        W23671   5.025  15.168  11.026  0.0917  0.1537 -0.2092
 7538W        W23672  16.727   4.925   1.656  0.2895  0.0002  0.1525
 7539W        W23673  16.036   0.365   2.549  0.2428 -0.1405  0.1980
 7540W        W23674  14.502   5.096  14.164 -0.2817  0.0614  0.0729
 7541W        W23675   5.133   7.620   0.216 -0.2546 -0.1993  0.0075
 7542W        W23676   8.137  12.157   4.043 -0.0954 -0.1841 -0.0636
 7543W        W23677   5.999   3.229  11.175 -0.0166  0.0496 -0.1882
 7544W        W23678   6.667   8.099   5.528  0.1480  0.2273 -0.2745
 7545W        W23679  10.037  16.121  13.946  0.1996  0.1338  0.1256
 7546W        W23680  16.703   3.767  15.880 -0.1164 -0.0387 -0.0735
 7547W        W23681   2.462   1.561   5.431 -0.0995  0.1509  0.0257
 7548W        W23682   3.686   3.135  11.406 -0.1065  0.0582  0.0461
 7549W        W23683   4.471  14.722   1.117  0.3466  0.0853 -0.1135
 7550W        W23684   2.538   3.525   5.102  0.1324  0.1974  0.1641
 7551W        W23685   4.289  12.864   3.705 -0.2051  0.1478  0.0997
 7552W        W23686  10.785   6.392  11.459 -0.2601  0.0634  0.0477
 7553W        W23687  11.998   8.355  12.178  0.2435  0.1604  0.0989
 7554W        W23688   4.207  11.265   1.236  0.4599 -0.4949  0.1757
 7555W        W23689  10.143   3.588  15.603 -0.0544 -0.2001 -0.1154
 7556W        W23690   7.841  14.310  15.749 -0.0706 -0.3881 -0.0497
 7557W        W23691  17.321  18.488   5.426  0.2648 -0.1701  0.1967
 7558W        W23692  10.466  18.127   0.416  0.1270  0.4482 -0.3783
 7559W        W23693  11.401  10.593  12.656 -0.0000  0.0328 -0.0805
 7560W        W23694   4.167   4.566   2.894  0.0535  0.2318  0.1599
 7561W        W23695  17.749   7.319  15.371 -0.0618  0.0590 -0.0878
 7562W        W23696   6.811   1.449   1.511 -0.0911 -0.0983 -0.0964
 7563W        W23697   8.626   0.589  15.078 -0.2564 -0.0344 -0.3682
 7564W        W23698  13.954  12.094   3.550 -0.1009 -0.1526 -0.2529
 7565W        W23699  16.010  16.236   2.698 -0.0713 -0.1968 -0.1163
 7566W        W23700   8.274   5.669  15.258 -0.3862  0.1095  0.0878
 7567W        W23701   3.408  10.970   1.065  0.1594 -0.2056 -0.1895
 7568W        W23702   7.963   9.992   2.549  0.1002 -0.0147 -0.2519
 7569W        W23703   1.835   0.622   0.199 -0.4009 -0.1237 -0.0427
 7570W        W23704  12.494  15.158   2.007  0.1638 -0.0193 -0.0856
 7571W        W23705  13.933   2.184   1.146  0.1263 -0.2545  0.0031
 7572W        W23706   0.090   6.549   0.563 -0.3139 -0.1855  0.5066
 7573W        W23707  10.419  17.847   3.796  0.2203  0.1990 -0.0260
 7574W        W23708  16.381   5.887   3.367 -0.1963  0.3464 -0.2365
 7575W        W23709  15.872  15.972   2.289 -0.2082  0.0098 -0.0880
 7576W        W23710  18.320  13.209   4.202  0.0806 -0.0122  0.1886
 7577W        W23711   0.267  17.530   4.468 -0.0901  0.1540 -0.3572
 7578W        W23712  10.541  14.301   1.337 -0.3280 -0.1280  0.0228
 7579W        W23713   7.847   2.981   3.996 -0.1099  0.0568  0.1225
 7580W        W23714  13.160  11.387   0.686  0.1596 -0.4097 -0.0221
 7581W        W23715   0.009   0.340   3.246 -0.0482 -0.0066 -0.2942
 7582W        W23716   8.415   4.379  12.781 -0.3101 -0.1067  0.2832
 7583W        W23717   6.231  18.394   3.503 -0.0128  0.1343 -0.0087
 7584W        W23718   8.126   7.932   1.259  0.0975  0.3314 -0.1590
 7585W        W23719  13.026  15.180  16.071  0.0032  0.0260  0.1286
 7586W        W23720  11.353  17.192  14.218 -0.0664 -0.1676  0.1692
 7587W        W23721  16.672   6.367   1.610  0.0676  0.1690 -0.3329
 7588W        W23722  15.831   2.302   2.489 -0.2487  0.0440  0.2323
 7589W        W23723   7.911   5.513   3.017 -0.2901  0.1740 -0.0227
 7590W        W23724  17.748   0.586   5.663 -0.3543 -0.1994 -0.0131
 7591W        W23725   5.887  11.704  12.031 -0.0806  0.3889  0.0302
 7592W        W23726   2.189   0.043   4.531 -0.0650  0.0019  0.0387
 7593W        W23727   3.116   0.477  15.768  0.3063  0.1006  0.0800
 7594W        W23728  17.329   4.149  10.757 -0.0210  0.1420 -0.0151
 7595W        W23729   7.961   4.395   1.105  0.0734 -0.0038 -0.0799
 7596W        W23730   6.882   6.691   1.802 -0.0242  0.0297 -0.3682
 7597W        W23731   1.678  17.317  15.031 -0.1456 -0.1956 -0.2049
 7598W        W23732   9.558   8.322  12.430 -0.3003 -0.4952  0.0692
 7599W        W23733   2.728   9.567  11.005 -0.0832 -0.0505 -0.0865
 7600W        W23734  15.781  16.457   5.102 -0.2951 -0.1342  0.1254
 7601W        W23735   2.215  12.536  14.314  0.0288 -0.1459  0.0121
 7602W        W23736   1.207   0.123   0.792  0.0197  0.0646  0.0369
 7603W        W23737  15.381  12.866   1.086 -0.2747  0.0301 -0.2323
 7604W        W23738   5.472   4.358   0.708 -0.0438 -0.5946 -0.1483
 7605W        W23739  12.183   8.133   5.278  0.0772  0.1877  0.0075
 7606W        W23740  11.566  17.275   0.634 -0.1300  0.1632  0.2405
 7607W        W23741  11.428   9.652   3.419 -0.1866 -0.0323 -0.2508
 7608W        W23742  14.714  13.262   2.683 -0.0345  0.2730  0.1321
 7609W        W23743   0.838  14.667  12.740 -0.1484 -0.2552 -0.0282
 7610W        W23744  18.348   4.721   4.315  0.3822  0.1481 -0.4459
 7611W        W23745   2.307  14.797  11.670  0.0159 -0.0179 -0.0164
 7612W        W23746   2.301  11.449   3.531  0.0368  0.0948 -0.2350
 7613W        W23747   6.814   8.062  14.400  0.0078  0.2974  0.3069
 7614W        W23748  12.086  11.239  13.070  0.0768  0.4258 -0.0255
 7615W        W23749   5.058   5.653   4.391 -0.0863  0.0528 -0.0704
 7616W        W23750   6.623   9.485   0.690 -0.0421  0.1285 -0.1189
 7617W        W23751  14.052   8.180   3.845 -0.0063  0.0033 -0.0808
 7618W        W23752   9.636   2.520   6.376 -0.1153  0.1732 -0.1304
 7619W        W23753  18.144   5.727  14.729  0.1956 -0.0622 -0.0028
 7620W        W23754   6.737  16.976   2.226 -0.0182  0.0367  0.4327
 7621W        W23755   1.530   9.213   0.890 -0.1005  0.1827  0.0634
 7622W        W23756   5.627   9.322  13.716 -0.0018 -0.0196 -0.1392
 7623W        W23757  13.688   1.913   3.052 -0.1636 -0.1152  0.2010
 7624W        W23758   8.527  13.239   1.169 -0.0485  0.0507 -0.0535
 7625W        W23759  14.048  14.945   3.329  0.2031  0.0087  0.0237
 7626W        W23760   1.632   8.916  11.859  0.1317  0.2833 -0.1328
 7627W        W23761   5.431   3.914   1.063  0.0374 -0.1038  0.0467
 7628W        W23762  18.486  17.323   4.903 -0.0475  0.0510  0.0582
 7629W        W23763  12.442   6.493  14.267 -0.0614  0.5521 -0.2423
 7630W        W23764   7.834   4.048   5.298  0.1615  0.0320  0.1771
 7631W        W23765  17.875  10.704  15.535 -0.0433  0.1835 -0.4641
 7632W        W23766  11.592  12.225  11.732  0.1153  0.0279 -0.0109
 7633W        W23767   1.110   6.722  13.091  0.3114 -0.2838 -0.0481
 7634W        W23768  18.158   1.477   3.409 -0.0375  0.2172 -0.0714
 7635W        W23769   1.364   5.696   4.251  0.0064  0.0482  0.1081
 7636W        W23770   0.097  11.515   1.162  0.0483 -0.3918 -0.1785
 7637W        W23771  17.877  13.506  14.160 -0.2220 -0.0073  0.0282
 7638W        W23772   5.553   7.985   0.082  0.3178 -0.3796  0.2864
 7639W        W23773   4.090  16.667  11.255  0.0668 -0.0845  0.0243
 7640W        W23774  12.197   5.660  11.944 -0.1351 -0.1852  0.0800
 7641W        W23775   7.917  15.052  15.867  0.0641  0.2271  0.0262
 7642W        W23776   2.630  15.894   4.863  0.1219 -0.1949  0.0033
 7643W        W23777   0.036  16.376  10.573  0.2883  0.2629  0.4122
 7644W        W23778  11.526  14.525   3.390  0.0984 -0.0003  0.1024
 7645W        W23779  15.374   9.911   0.257  0.3310 -0.0337  0.1207
 7646W        W23780   8.383   4.665  15.413  0.1616 -0.0185  0.2209
 7647W        W23781   8.113   7.129   0.176  0.1962 -0.1398  0.2288
 7648W        W23782  11.011   7.809   2.976 -0.0274 -0.0877 -0.1415
 7649W        W23783   8.385   0.494   5.665 -0.1283 -0.0976  0.1627
 7650W        W23784   5.501   7.330   4.516  0.0327  0.4399  0.0672
 7651W        W23785   6.298  10.865  12.354 -0.3622  0.2453  0.3541
 7652W        W23786  17.481  17.853   0.327 -0.1316  0.2344 -0.3695
 7653W        W23787   9.554  14.086  14.465  0.2345 -0.2476 -0.3392
 7654W        W23788   4.616  11.474  12.193  0.0517  0.3135  0.0076
 7655W        W23789   9.272   5.139  14.145  0.1644  0.1029 -0.0758
 7656W        W23790  12.268  11.078  11.755  0.2218  0.2070  0.0689
 7657W        W23791   4.247   7.488   2.763 -0.3647 -0.2698  0.0609
 7658W        W23792   9.694   8.257   5.564 -0.2423 -0.0583  0.0867
 7659W        W23793   7.238   9.974   4.448 -0.0276 -0.1890 -0.2560
 7660W        W23794  10.400  11.696  14.969 -0.2321 -0.0455  0.1548
 7661W        W23795  15.790   0.268  13.211 -0.1279  0.0484 -0.1062
 7662W        W23796   9.779   5.374   0.709  0.2730 -0.2045  0.1134
 7663W        W23797   4.550   0.405  12.357  0.1231 -0.0038 -0.0788
 7664W        W23798  16.776  18.106   3.012  0.0122 -0.1732 -0.1035
 7665W        W23799   5.042   2.141   2.827  0.1842  0.0463  0.0127
 7666W        W23800   0.417   9.344  15.199 -0.0873 -0.1871  0.2556
 7667W        W23801   5.184   1.019  14.731 -0.1230  0.2256  0.1729
 7668W        W23802   6.073  12.424  12.559  0.0814  0.4899  0.4628
 7669W        W23803   0.618  17.144   1.493 -0.2121  0.0441  0.0573
 7670W        W23804   8.106   3.638   0.084 -0.2981 -0.1137  0.1934
 7671W        W23805  15.843   7.399   2.283 -0.1579 -0.1029 -0.2382
 7672W        W23806   0.898  17.481  15.616 -0.0939 -0.3575 -0.0698
 7673W        W23807  12.550   0.161   1.223 -0.1572  0.1985 -0.0828
 7674W        W23808   2.833   7.917   4.204 -0.2749  0.0354  0.0463
 7675W        W23809   6.416   7.533   4.283 -0.5498  0.0786  0.0789
 7676W        W23810   9.618   0.104   5.300 -0.1118 -0.0186  0.1605
 7677W        W23811   8.463   4.575   3.066  0.1117 -0.0594 -0.5427
 7678W        W23812  10.651   0.349  13.517  0.1693 -0.2424 -0.1287
 7679W        W23813  13.700  17.724  11.618 -0.4391 -0.1952 -0.0082
 7680W        W23814  10.335  10.084   2.647  0.1792  0.2957 -0.1737
 7681W        W23815   0.782   5.444   0.965 -0.2045  0.1184  0.0231
 7682W        W23816   6.753   0.623  11.633 -0.0035 -0.2737 -0.0048
 7683W        W23817  15.683   4.736  15.499 -0.0853 -0.2028 -0.0601
 7684W        W23818  11.509   6.388   5.994  0.2156  0.1941  0.2767
 7685W        W23819   5.912   2.344  12.179  0.0010 -0.1177 -0.3271
 7686W        W23820   9.531   0.742   5.778 -0.0213  0.1228  0.0629
 7687W        W23821  12.451  11.940  14.280 -0.1262  0.0640 -0.2929
 7688W        W23822   9.810   5.131  13.087 -0.1683  0.0787 -0.0329
 7689W        W23823  11.034   9.026   4.453  0.2317 -0.0357  0.2558
 7690W        W23824  10.365   9.481   2.322  0.1846  0.0681  0.0334
 7691W        W23825  12.407   2.258   3.236  0.0728  0.4088 -0.0430
 7692W        W23826   9.139  12.919   2.832  0.6317  0.0288 -0.1214
 7693W        W23827   3.473  10.602   4.836 -0.0129 -0.1855  0.3830
 7694W        W23828   5.250  16.144  12.519  0.2970 -0.3435  0.0351
 7695W        W23829   5.793  16.558   2.319 -0.0435 -0.3524 -0.1053
 7696W        W23830   7.478   7.636  11.118 -0.0777 -0.1519  0.0992
 7697W        W23831   7.820  18.050   2.508 -0.0615 -0.4598 -0.0688
 7698W        W23832   3.168  16.675  14.044  0.1554  0.0520  0.2301
 7699W        W23833   5.138   7.930   3.196 -0.0638  0.4394 -0.3363
 7700W        W23834  15.911  14.859  13.119 -0.2045  0.0734  0.0456
 7701W        W23835  15.560   8.994  13.265  0.2374  0.1509 -0.0075
 7702W        W23836   3.039   2.891   2.040  0.3532  0.0431 -0.3479
 7703W        W23837   8.093  11.628   3.882  0.1202 -0.3250  0.2146
 7704W        W23838   1.701   9.700   0.877 -0.0465 -0.1568  0.0111
 7705W        W23839   0.046   2.312   3.879  0.0691 -0.0427  0.1471
 7706W        W23840   2.385  10.902  12.240 -0.0752 -0.0189  0.2744
 7707W        W23841  10.006   1.795   0.092 -0.0626  0.2340  0.0492
 7708W        W23842   4.047   2.760  13.968 -0.2942 -0.3608 -0.0783
 7709W        W23843  13.479   9.836   4.027  0.2730 -0.0439  0.0350
 7710W        W23844   2.433  18.429  11.660 -0.5229 -0.2656 -0.2752
 7711W        W23845   7.579   7.600   0.632  0.1365  0.0600  0.0907
 7712W        W23846   2.088  14.195  14.795 -0.2850 -0.0149 -0.0119
 7713W        W23847  13.789   3.403  12.578  0.3520  0.1030 -0.2451
 7714W        W23848   2.036  11.128  15.358 -0.0569 -0.0121 -0.0572
 7715W        W23849   4.363  12.761  10.422 -0.3424  0.0494  0.0746
 7716W        W23850   5.210   8.823  11.524 -0.3381  0.0657  0.3269
 7717W        W23851  17.734  15.906   0.655  0.0926 -0.1365  0.1101
 7718W        W23852  15.351  14.916  10.994 -0.2332  0.0065 -0.0860
 7719W        W23853   9.648   8.478   1.826  0.0993  0.3192 -0.1073
 7720W        W23854   4.034  14.999  13.453 -0.0905 -0.0290  0.1151
 7721W        W23855  17.230   7.349  15.650 -0.1020 -0.0430 -0.0062
 7722W        W23856   9.744  13.492  11.226  0.3355  0.2276  0.0066
 7723W        W23857  11.758   8.297   2.857 -0.2563  0.0031 -0.0991
 7724W        W23858   9.257   0.346   5.478  0.1478  0.4090 -0.1365
 7725W        W23859   5.720  10.083  12.234  0.0381  0.5710  0.0937
 7726W        W23860  15.684   8.526  15.122  0.1404  0.0571  0.1598
 7727W        W23861   8.679  17.848   2.146  0.2566  0.1018 -0.0503
 7728W        W23862   2.862  13.756   2.917  0.0755  0.1228  0.1522
 7729W        W23863   6.082   9.780   5.197 -0.0458 -0.0319 -0.1604
 7730W        W23864   5.589   1.837   0.789 -0.1901 -0.0267  0.1732
 7731W        W23865   6.177  16.426   4.220  0.2348  0.1297  0.0736
 7732W        W23866  15.896  10.667   3.830 -0.0234  0.3263 -0.0028
 7733W        W23867   5.955  12.044  15.952 -0.2057 -0.1282  0.0776
 7734W        W23868  18.200   4.266   4.468 -0.0802 -0.2625  0.2228
 7735W        W23869   8.550   6.474  15.918 -0.1452 -0.1279  0.0364
 7736W        W23870  16.655   2.614   5.188  0.1207  0.0329 -0.0154
 7737W        W23871  11.273   1.300   0.601  0.2335  0.3146  0.2563
 7738W        W23872   7.420   6.173  14.932  0.1050 -0.0391 -0.0752
 7739W        W23873  17.324  12.757  14.732  0.0580  0.0040  0.2555
 7740W        W23874   5.270   2.966   0.207  0.0040  0.0173 -0.3478
 7741W        W23875   5.933   0.149  14.686 -0.1570  0.0114 -0.1142
 7742W        W23876   0.613  10.260  12.384  0.1428  0.1527  0.2059
 7743W        W23877   5.384   3.094   6.188 -0.0725 -0.0991  0.2081
 7744W        W23878   0.237   9.334   4.053  0.0389  0.0354  0.2024
 7745W        W23879  14.805   7.045   3.728 -0.1882 -0.1741 -0.0504
 7746W        W23880   6.312  14.457   1.395 -0.4090  0.3998  0.0786
 7747W        W23881   3.200  18.460  13.476 -0.1578 -0.2750 -0.4519
 7748W        W23882   4.455   4.589  11.336  0.0680 -0.1097 -0.0971
 7749W        W23883   7.072   6.547   4.657 -0.2796 -0.0336  0.2883
 7750W        W23884  11.971  10.279   5.948  0.0586  0.1688 -0.0033
 7751W        W23885   3.319  14.154  10.249  0.0964 -0.0848  0.2077
 7752W        W23886   7.986  12.105   2.659 -0.2007 -0.1998  0.0768
 7753W        W23887  18.029  10.195  11.792 -0.2581 -0.1566  0.0237
 7754W        W23888  16.035   1.924   5.478 -0.0528 -0.3171 -0.2821
 7755W        W23889  13.335   1.670  12.097 -0.0075 -0.0900  0.0622
 7756W        W23890  14.512   9.045   2.625  0.2010 -0.1798 -0.1060
 7757W        W23891  10.765  10.916   1.992 -0.3394 -0.1661  0.3167
 7758W        W23892  11.431  15.275  13.635  0.1050  0.0764  0.1207
 7759W        W23893   0.889  11.744  10.728  0.0297 -0.2702  0.0274
 7760W        W23894   5.223   5.842   5.056 -0.1510  0.0133  0.0057
 7761W        W23895  14.484   5.421  15.597  0.1329 -0.1167 -0.1614
 7762W        W23896   1.850   6.119   4.892 -0.0061 -0.2135  0.1677
 7763W        W23897  12.956   2.263   1.645 -0.2719 -0.5746  0.1421
 7764W        W23898   3.151  11.213  12.778 -0.2142  0.1075 -0.1326
 7765W        W23899   1.299   3.513  12.421 -0.1611  0.2277 -0.2782
 7766W        W23900  10.938   7.796  13.265 -0.1069  0.1172  0.2673
 7767W        W23901   9.369  14.371   0.879 -0.0103 -0.0713 -0.2157
 7768W        W23902  16.453   1.668  14.695 -0.1015  0.1573  0.2023
 7769W        W23903  11.890  12.491   5.075 -0.0928 -0.1192 -0.1607
 7770W        W23904  11.127  16.981   1.415  0.2729  0.0240  0.1284
 7771W        W23905  10.032  12.745   1.705  0.3365 -0.0454 -0.0301
 7772W        W23906   8.819   8.726   3.093 -0.3149 -0.3527  0.0266
 7773W        W23907   8.120  17.573   1.786 -0.0887  0.1609 -0.1502
 7774W        W23908  16.632   5.755  13.807 -0.0252 -0.1851 -0.1836
 7775W        W23909   1.033   0.319   1.680  0.4259  0.3203  0.1872
 7776W        W23910  11.578  18.495   1.359 -0.0183  0.1174  0.0527
 7777W        W23911   2.998  16.380   3.286 -0.0094 -0.1988  0.1525
 7778W        W23912   3.238   6.777  14.929  0.1730  0.1182 -0.2350
 7779W        W23913   2.709   5.356   4.529  0.1807 -0.1462  0.0082
 7780W        W23914   1.224   4.715  11.609  0.2595 -0.0808 -0.2866
 7781W        W23915   8.051   8.884   1.699  0.1360  0.3208 -0.1481
 7782W        W23916  13.876   9.225   4.471 -0.0349  0.0391 -0.2381
 7783W        W23917  10.796  12.542  14.258  0.1035 -0.2013  0.3084
 7784W        W23918   1.421   5.918  15.613 -0.2309 -0.4278  0.1384
 7785W        W23919   7.907  10.943  13.856  0.0228 -0.1946 -0.0122
 7786W        W23920  10.530   0.533  15.868  0.2310 -0.2843 -0.0106
 7787W        W23921   8.992  10.394   1.714  0.2125  0.1852 -0.0575
 7788W        W23922   9.145   4.658   4.152 -0.1130  0.0626  0.4507
 7789W        W23923  11.418   1.422   2.275 -0.3052 -0.1144  0.0062
 7790W        W23924   2.110  16.184   3.756 -0.0841 -0.1017 -0.0710
 7791W        W23925   9.829   1.954   3.994  0.0289 -0.4076  0.0361
 7792W        W23926  12.814  16.613  13.460 -0.0869 -0.2996  0.0431
 7793W        W23927   7.984   2.983   2.201  0.0190  0.1376  0.0837
 7794W        W23928  14.967  18.201  11.364  0.1718  0.0783 -0.0434
 7795W        W23929  17.374   3.961   2.114  0.0515 -0.2996  0.0142
 7796W        W23930   6.427   2.282   2.873  0.1738 -0.4081  0.0449
 7797W        W23931   5.780  12.017   1.153  0.3333 -0.1299 -0.1594
 7798W        W23932  15.582   1.906   4.679  0.0764  0.0147  0.0793
 7799W        W23933   1.921   6.929   1.656 -0.0842  0.2824  0.1938
 7800W        W23934  17.740  18.185  10.918 -0.0273 -0.1690 -0.1507
 7801W        W23935   3.618  12.049   1.839 -0.2048  0.0550 -0.1189
 7802W        W23936   5.267   6.146  15.384  0.0864 -0.0466  0.2625
 7803W        W23937   2.695  18.406   3.625  0.2268 -0.2328 -0.1351
 7804W        W23938  16.144  14.958  15.114  0.1683 -0.1847 -0.0312
 7805W        W23939  12.933  15.779   1.597 -0.2419  0.2017 -0.0678
 7806W        W23940  13.031  10.497  13.002  0.0798 -0.2987  0.2315
 7807W        W23941   2.843  10.964  15.321 -0.3897 -0.0976  0.0131
 7808W        W23942   7.912  18.221   0.400  0.3191 -0.1271 -0.0470
 7809W        W23943   1.874   5.558  10.199 -0.0777 -0.0731 -0.0870
 7810W        W23944   6.780   9.008  13.721 -0.3808  0.0699  0.3953
 7811W        W23945   3.096  16.422   5.353 -0.0875 -0.1825 -0.2639
 7812W        W23946  17.786  17.439  14.589 -0.1736 -0.0143 -0.0890
 7813W        W23947   4.008  17.441  15.371 -0.2347  0.0465  0.0239
 7814W        W23948   0.045  16.355   0.623 -0.1665  0.1057 -0.4226
 7815W        W23949  11.736  16.942   2.001  0.1645  0.0930  0.0082
 7816W        W23950  17.666  17.037   1.417  0.1426  0.2473 -0.0740
 7817W        W23951   1.806   7.519   4.553 -0.2067 -0.2593  0.4180
 7818W        W23952   3.657  13.076  13.224 -0.2292 -0.2620  0.1644
 7819W        W23953  15.961   6.382   5.064 -0.0311  0.0267  0.0321
 7820W        W23954   3.141  11.357  14.513 -0.0678  0.1901 -0.2853
 7821W        W23955   9.713   5.882   4.656 -0.1866  0.1066  0.1527
 7822W        W23956   8.196   8.886   2.188 -0.0639  0.2798  0.0516
 7823W        W23957   0.773  13.841   3.437  0.1468  0.1286  0.1260
 7824W        W23958   7.055   3.452  14.060 -0.4190 -0.2049 -0.0014
 7825W        W23959   4.842  17.326   0.976  0.1321  0.0048  0.2668
 7826W        W23960   3.046   8.470   4.185 -0.1258 -0.2841  0.2002
 7827W        W23961  15.508   0.156  14.559 -0.1050 -0.4392 -0.0108
 7828W        W23962   8.516  14.685   4.882 -0.1958  0.0880 -0.0755
 7829W        W23963  10.393   9.927   1.721  0.0356 -0.1583 -0.0470
 7830W        W23964  15.211   5.549  13.500 -0.2505  0.1537  0.0280
 7831W        W23965  14.802   2.908   1.958 -0.0989  0.2796  0.2619
 7832W        W23966  11.717  16.761  12.596  0.0930  0.1122 -0.1147
 7833W        W23967   5.676  12.399  11.266  0.2177 -0.4026  0.3747
 7834W        W23968  14.182   6.654  10.729 -0.1381  0.2239  0.0591
 7835W        W23969   5.406  11.423  14.316  0.0312 -0.1025 -0.0130
 7836W        W23970   3.837  11.655   1.342  0.4344 -0.0514  0.1796
 7837W        W23971  18.395   6.048  11.845  0.0443  0.1023  0.1713
 7838W        W23972   8.319   1.214  12.858  0.4033 -0.1227 -0.1416
 7839W        W23973  12.252   1.109   4.048 -0.0650  0.1628 -0.0985
 7840W        W23974   0.823  16.856   3.642 -0.0313 -0.0512 -0.0312
 7841W        W23975   6.776  17.270  13.786  0.2364 -0.0283 -0.2182
 7842W        W23976  17.622   8.079   2.836  0.1536  0.0541 -0.0053
 7843W        W23977  17.411   9.569  14.209 -0.1456 -0.0443 -0.0065
 7844W        W23978  11.588   0.511   1.170  0.0068  0.2570 -0.1199
 7845W        W23979  14.370  14.436  11.682  0.0064  0.0757  0.2377
 7846W        W23980   4.533   1.474   3.585  0.2683  0.1812  0.0069
 7847W        W23981  10.636  12.727  14.694 -0.2135  0.0721 -0.0820
 7848W        W23982  16.766  14.528   4.923  0.1759  0.0192  0.0953
 7849W        W23983   7.609   9.545  13.749  0.0409  0.1911 -0.2306
 7850W        W23984  18.338   4.853  11.068 -0.1910  0.0436 -0.2278
 7851W        W23985  11.228  18.500   3.608 -0.1387  0.2003 -0.3082
 7852W        W23986   1.616   9.449   0.406  0.0846 -0.0044 -0.1499
 7853W        W23987   9.108   8.214   0.581  0.3360  0.1225 -0.1526
 7854W        W23988  18.425  13.165  13.635  0.0495 -0.0828 -0.3087
 7855W        W23989   7.636  14.492   3.846  0.1890 -0.0296  0.1268
 7856W        W23990  14.635   6.416  11.632  0.0481 -0.2416 -0.1344
 7857W        W23991   6.240   3.769   1.162 -0.2544  0.1032  0.0707
 7858W        W23992  14.979  13.166  15.945  0.2943 -0.3722  0.3039
 7859W        W23993  16.636   7.942  11.171 -0.0587 -0.1062 -0.0267
 7860W        W23994  15.493  11.687  15.211  0.0484 -0.1731  0.0205
 7861W        W23995   7.473  16.444   2.594  0.0049  0.0109 -0.2187
 7862W        W23996   9.504   9.168  11.788  0.2280  0.1253 -0.2843
 7863W        W23997   9.508  10.897  15.042 -0.0303  0.1541  0.3418
 7864W        W23998  13.795  10.183  14.912  0.0014 -0.1037  0.3184
 7865W        W23999   2.372  16.127   4.523  0.2250  0.2794  0.2800
 7866W        W24000  10.466   8.009  12.230  0.0587 -0.1520  0.1561
 7867W        W24001   3.506   2.793   1.266 -0.2983 -0.0494 -0.0355
 7868W        W24002   8.207  15.455   0.979 -0.0576  0.3643 -0.0316
 7869W        W24003  17.283   8.637  13.031 -0.1473  0.0001 -0.2469
 7870W        W24004  17.409  16.201   1.605 -0.1048 -0.1145 -0.4002
 7871W        W24005   8.090   3.069   1.369 -0.1375  0.2329 -0.4931
 7872W        W24006   2.057  15.507  14.345 -0.0088  0.0162  0.1407
 7873W        W24007   5.360   8.364  11.518  0.1368  0.2491 -0.0057
 7874W        W24008   7.421  11.170  11.523  0.0739 -0.4712 -0.1552
 7875W        W24009   7.153  17.201  13.369 -0.0618 -0.1935  0.0127
 7876W        W24010  10.242   1.514   2.410 -0.1719 -0.1255 -0.0423
 7877W        W24011   9.489  16.116  15.702  0.0238 -0.1940  0.0461
 7878W        W24012   9.924   3.306  12.917  0.1970  0.1819  0.0144
 7879W        W24013  13.666   7.829  14.079  0.0263  0.0377 -0.0414
 7880W        W24014  14.350  16.870  10.686  0.0868  0.0074 -0.0308
 7881W        W24015  18.038  12.341   1.146  0.4817  0.4135  0.1415
 7882W        W24016  12.630  10.907  14.931 -0.4672  0.4292 -0.1877
 7883W        W24017  10.898   9.997   4.958  0.2615 -0.0964  0.2137
 7884W        W24018   6.126  15.095  13.669  0.0301 -0.1346 -0.2835
 7885W        W24019   4.550   4.339  13.105  0.1579  0.0780 -0.1665
 7886W        W24020   1.560   9.593   9.425  0.2540 -0.4246  0.2503
 7887W        W24021  17.761   0.522  11.710 -0.1264  0.0967  0.2572
 7888W        W24022   4.015   7.122  13.474 -0.2443 -0.0198 -0.0759
 7889W        W24023   2.944   6.327  11.370  0.0075  0.1619 -0.1505
 7890W        W24024   3.329  12.751  15.155 -0.0896  0.0785  0.1512
 7891W        W24025  11.640  14.216   1.687  0.0678 -0.1087 -0.1088
 7892W        W24026   8.405  10.580   3.502  0.2218  0.1189 -0.2854
 7893W        W24027  15.492   3.535  14.772 -0.4247 -0.2754 -0.0101
 7894W        W24028   0.695  16.893  11.846  0.3056 -0.0831  0.0805
 7895W        W24029  10.592   4.724   0.039 -0.2306  0.2230  0.4662
 7896W        W24030  18.485   1.597   2.001  0.0095  0.2331  0.0785
 7897W        W24031   8.600   1.114   2.035 -0.2277 -0.2866  0.2549
 7898W        W24032   2.945  11.258  14.007 -0.0200 -0.0772  0.1337
 7899W        W24033   6.166  15.749  11.448  0.0177 -0.1035 -0.1042
 7900W        W24034   2.005   1.090  13.437 -0.3091  0.2101  0.0037
 7901W        W24035  14.971   3.118  14.383 -0.2374  0.3804 -0.0371
 7902W        W24036   8.292   1.397  14.518  0.2085 -0.1080  0.0067
 7903W        W24037   6.113   2.463   3.264  0.1705 -0.1508  0.1400
 7904W        W24038   3.006   9.176  15.261 -0.0034  0.0449  0.3404
 7905W        W24039   3.862   2.034  10.945  0.0903  0.0942  0.2235
 7906W        W24040   4.321   8.497   3.126 -0.0963 -0.0191  0.0767
 7907W        W24041   0.214  17.398  14.919 -0.5435 -0.2158  0.1317
 7908W        W24042  14.282   5.511   5.357  0.2101 -0.2139  0.1725
 7909W        W24043  12.863   0.198  13.173  0.2083  0.0675  0.0248
 7910W        W24044  11.340  10.236  14.559  0.0703 -0.0730  0.1837
 7911W        W24045   2.102   3.005  11.311 -0.0127 -0.2042  0.1032
 7912W        W24046  18.394   3.800  15.669 -0.1796 -0.3061  0.1613
 7913W        W24047   1.676   0.172   4.569 -0.0519 -0.2874 -0.1561
 7914W        W24048  12.363   5.145   1.059  0.2083  0.1413 -0.2383
 7915W        W24049   2.597  18.380  12.700 -0.0541  0.0352  0.0209
 7916W        W24050  12.251  16.612  13.141 -0.0028  0.0438 -0.1794
 7917W        W24051   4.071   4.183   1.964  0.0895 -0.1726  0.0107
 7918W        W24052  17.183  16.709   5.708  0.1052 -0.3005 -0.0503
 7919W        W24053  10.086   0.639   1.115 -0.0797 -0.3104  0.0243
 7920W        W24054  10.170  18.037   4.230 -0.3062  0.0103  0.2059
 7921W        W24055   8.736   8.561   1.717  0.3030  0.1905  0.1639
 7922W        W24056   7.777   3.903   3.111 -0.0153  0.0771 -0.0183
 7923W        W24057  13.129  13.036  14.823  0.2403  0.0674 -0.2190
 7924W        W24058  11.199   9.709  12.336  0.1382  0.1635 -0.0392
 7925W        W24059  18.503   0.815   3.893  0.0484 -0.0106  0.3088
 7926W        W24060  17.817   8.579  12.751  0.0872  0.2164 -0.0468
 7927W        W24061  17.281  11.625   5.101 -0.1242 -0.2293 -0.0133
 7928W        W24062   5.237   1.835   6.299  0.0969  0.1285 -0.1949
 7929W        W24063   5.965   4.774   2.330  0.0790 -0.1091  0.2374
 7930W        W24064  17.597   3.185   1.661 -0.0380  0.2308  0.2940
 7931W        W24065   1.570  12.359  14.950  0.2839 -0.3696  0.2183
 7932W        W24066   8.692  16.189   5.794 -0.0646  0.0667  0.1185
 7933W        W24067   8.186  17.651   0.445  0.0227  0.1161  0.0987
 7934W        W24068   9.417  16.463  16.041  0.0946  0.0606 -0.1268
 7935W        W24069  10.604  11.151   3.663 -0.3857 -0.2064  0.0826
 7936W        W24070  10.633   4.828  12.866 -0.0547  0.3310  0.0926
 7937W        W24071  10.449   0.132   5.736  0.0618 -0.2488  0.1566
 7938W        W24072  13.470  13.899   4.552 -0.2225  0.1971  0.3945
 7939W        W24073   1.765   6.184   2.165 -0.0979  0.2937  0.1912
 7940W        W24074   5.882  14.015   3.489 -0.4941 -0.3141  0.1687
 7941W        W24075  10.582   7.992  15.421  0.0251  0.2856  0.0281
 7942W        W24076   3.111  12.725   0.551 -0.2228  0.3672  0.3640
 7943W        W24077  10.023  10.205  11.443 -0.2773 -0.3592  0.1464
 7944W        W24078  13.719  11.973   1.354 -0.0465 -0.0218 -0.0223
 7945W        W24079  14.121   3.961   5.467  0.0362  0.1038  0.4525
 7946W        W24080   2.878   0.365  12.499  0.0708  0.3532  0.1330
 7947W        W24081   6.395   5.711  11.900 -0.1120 -0.1124 -0.0791
 7948W        W24082  11.723   8.358  16.049 -0.0303 -0.2523  0.1434
 7949W        W24083   4.494   0.472   2.791  0.1350  0.3596  0.2471
 7950W        W24084   2.332   9.745  11.282  0.0743  0.2809 -0.1019
 7951W        W24085   0.759  15.483  12.150 -0.0939  0.4234  0.0319
 7952W        W24086  11.215  14.974  16.004 -0.3509 -0.2380 -0.0951
 7953W        W24087   3.938   5.294  14.183 -0.2237 -0.1109 -0.2507
 7954W        W24088   8.037   4.521   3.299 -0.0137 -0.0014 -0.2933
 7955W        W24089   4.984  12.210   3.280 -0.0709 -0.3234 -0.1514
 7956W        W24090  14.273  17.570  12.822  0.0143  0.0376  0.0175
 7957W        W24091  11.831   0.097   5.519 -0.0771  0.1131 -0.1713
 7958W        W24092  13.109  17.896   3.377 -0.2458 -0.0489 -0.2997
 7959W        W24093   9.488   4.278  12.838  0.0936  0.0630  0.1680
 7960W        W24094   7.667  12.719  12.679  0.2129 -0.1696  0.3942
 7961W        W24095  12.778  18.245   0.298 -0.1433  0.1639 -0.0065
 7962W        W24096   5.026   9.358  11.645  0.1437  0.1222 -0.0046
 7963W        W24097   1.043   5.563  14.457  0.0178  0.2659  0.1535
 7964W        W24098   2.411  14.075  10.821  0.2470 -0.3304 -0.2816
 7965W        W24099   9.403  15.151  15.911 -0.0909  0.0943  0.0560
 7966W        W24100  11.902   7.986  14.667  0.1677 -0.0347  0.4709
 7967W        W24101   1.213  16.774   0.724  0.0983  0.5072 -0.1392
 7968W        W24102   4.794   9.241  15.796  0.1368  0.2869  0.3178
 7969W        W24103   1.825  18.261   1.382 -0.0108 -0.1442 -0.3214
 7970W        W24104  13.929   3.177   2.958  0.2487  0.0945 -0.0046
 7971W        W24105  14.237   4.592   2.253 -0.1170 -0.0425  0.1192
 7972W        W24106   9.275   4.714  13.161 -0.1310 -0.0233 -0.0748
 7973W        W24107  17.139   2.377  11.269 -0.0008 -0.1373 -0.1955
 7974W        W24108   4.712   6.110   3.103 -0.0347 -0.3053  0.0882
 7975W        W24109  10.737  10.415   4.010  0.4036 -0.1568 -0.1694
 7976W        W24110  16.555   2.454   1.200 -0.0505  0.2551  0.0454
 7977W        W24111  10.282   4.454   0.437 -0.0447 -0.4829 -0.1348
 7978W        W24112  13.066   6.553   5.078  0.0091  0.1424 -0.1892
 7979W        W24113  10.232  12.841  13.124 -0.3757  0.1147 -0.0849
 7980W        W24114   7.866   2.028  14.520  0.1072 -0.0541 -0.0264
 7981W        W24115  15.472  14.964  13.328  0.0323 -0.2326  0.0197
 7982W        W24116   3.799   6.861   9.972 -0.2962  0.2312 -0.0710
 7983W        W24117   3.673   0.525   5.031  0.0737 -0.1657  0.1624
 7984W        W24118   1.552  11.956  14.113 -0.0113 -0.0083 -0.0122
 7985W        W24119   4.383   0.284  15.081  0.0525  0.2349 -0.1803
 7986W        W24120   0.475   8.939  13.779  0.3382 -0.1131 -0.4940
 7987W        W24121  15.333   8.492   5.290  0.2982  0.1518 -0.2524
 7988W        W24122   0.051   9.828   0.959  0.1456  0.1473  0.0822
 7989W        W24123   1.152  17.309  16.040 -0.2831  0.1194  0.4036
 7990W        W24124   6.476  10.784   2.975  0.3649  0.1088  0.1864
 7991W        W24125   6.804   6.970  14.933  0.1579  0.3254  0.2139
 7992W        W24126   2.218   0.868  15.813  0.0808  0.3449  0.0667
 7993W        W24127   1.096  16.316   1.051 -0.1681  0.0648  0.0649
 7994W        W24128   0.466   2.567   2.651 -0.2644 -0.2741 -0.0504
 7995W        W24129  16.044  16.001   5.134 -0.0634  0.2070 -0.0609
 7996W        W24130  16.608  11.330   2.620 -0.0140  0.0551 -0.3954
 7997W        W24131   4.393   1.790  13.424  0.2358  0.1935  0.1041
 7998W        W24132   7.189   0.865  13.357 -0.0492 -0.0917 -0.3572
 7999W        W24133   0.570   4.901   1.426  0.0679 -0.2678 -0.0132
 8000W        W24134   8.357  14.109  15.600  0.1425  0.1176  0.1395
 8001W        W24135  11.269  11.749   4.137 -0.3517  0.5136  0.0973
 8002W        W24136   5.223   4.640   4.989 -0.1561  0.0948  0.1707
 8003W        W24137   6.905   7.818   2.049  0.1544  0.0409  0.0610
 8004W        W24138  10.390   6.519   3.717  0.1851 -0.0027  0.7974
 8005W        W24139  11.902  13.578   3.687  0.1926 -0.2375  0.1172
 8006W        W24140   5.520   1.335   3.378 -0.0546 -0.0618  0.2578
 8007W        W24141  12.394  17.373   5.120 -0.1407  0.5968 -0.2494
 8008W        W24142  17.812  13.274  10.692 -0.1013 -0.1364 -0.0228
 8009W        W24143  15.676  10.948  13.226  0.3222  0.1106  0.0980
 8010W        W24144   5.260  10.964  12.349 -0.0048  0.0774 -0.0870
 8011W        W24145  16.023   5.347  10.917  0.0557 -0.3150 -0.1486
 8012W        W24146   2.373  11.336   4.343  0.1222  0.1299 -0.3036
 8013W        W24147  17.667   7.643   4.651  0.2494  0.0449  0.1723
 8014W        W24148  11.615  17.399   0.163 -0.0621 -0.4654 -0.1300
 8015W        W24149  12.688   9.482   5.212 -0.2513 -0.1622 -0.2117
 8016W        W24150   4.527   2.710   5.457 -0.1513  0.1062  0.0097
 8017W        W24151   2.064  15.894   1.328 -0.1013  0.0400 -0.3904
 8018W        W24152  12.061  11.079   0.400 -0.6487  0.2205  0.3280
 8019W        W24153   0.220   1.094  15.601  0.1256  0.0417  0.5573
 8020W        W24154  10.996  17.981   6.066  0.1926 -0.1647  0.4837
 8021W        W24155   1.959  10.766  16.006  0.0157 -0.2017 -0.1095
 8022W        W24156   6.761   2.551   3.896 -0.0934 -0.0629  0.1605
 8023W        W24157  14.635  15.234  14.102 -0.0776 -0.2239  0.1659
 8024W        W24158   4.275  10.395  15.940 -0.2406  0.0745 -0.3265
 8025W        W24159   7.896  13.869   1.617  0.2818  0.0792 -0.0722
 8026W        W24160  16.358   7.293  13.831 -0.1457 -0.0022 -0.0169
 8027W        W24161   7.208   1.582  14.118  0.1153 -0.3032 -0.0599
 8028W        W24162  13.496  12.153  15.966 -0.2990  0.3240 -0.3705
 8029W        W24163  14.073  12.274  15.263 -0.2484 -0.1430 -0.1162
 8030W        W24164   1.703   1.589  13.484 -0.0824 -0.0996  0.0268
 8031W        W24165   7.583   7.116  14.517  0.2079  0.2083  0.0402
 8032W        W24166  15.753   0.595   1.183  0.1060  0.2416 -0.0578
 8033W        W24167   4.353   1.097  15.902 -0.2049 -0.0246 -0.1892
 8034W        W24168  10.216   0.655  13.428 -0.1697 -0.0425  0.1010
 8035W        W24169   7.304  11.673  11.432  0.0722 -0.2063  0.1122
 8036W        W24170   3.872  15.937   1.640  0.2001 -0.3016 -0.0427
 8037W        W24171   0.037  11.862  12.944  0.0982 -0.4012 -0.0366
 8038W        W24172   6.693   8.072  14.920 -0.2925  0.1595  0.3178
 8039W        W24173  14.591   6.382  14.512  0.2030 -0.1514 -0.2626
 8040W        W24174   0.331   0.458  11.546  0.1220  0.1164 -0.0420
 8041W        W24175   0.463  14.758  12.332  0.0234  0.0516  0.0494
 8042W        W24176   0.662   7.720  10.990  0.3377  0.1863 -0.0941
 8043W        W24177   3.104  17.414   4.828  0.0794 -0.2707 -0.0070
 8044W        W24178   6.548  12.261   0.601  0.1297  0.0825  0.2582
 8045W        W24179   5.217  14.714   5.374  0.1746  0.1704  0.6957
 8046W        W24180   6.412  12.272   1.191  0.0301 -0.1623 -0.0519
 8047W        W24181  16.803  14.992   2.982  0.0215 -0.3844  0.0455
 8048W        W24182  18.096  11.686  13.146 -0.2566  0.2138  0.0483
 8049W        W24183  15.137   5.586  12.024  0.1496  0.0437 -0.1834
 8050W        W24184  17.441   8.648  12.442 -0.4588  0.1352 -0.1406
 8051W        W24185   2.723   9.395  14.130  0.1359  0.0238  0.1919
 8052W        W24186  10.612  18.317   4.005  0.2125 -0.1166 -0.0035
 8053W        W24187  12.550  10.779  12.501 -0.3499  0.2222  0.2565
 8054W        W24188   6.782   4.762  15.084 -0.0196 -0.1562  0.0994
 8055W        W24189   9.996   0.821   4.995  0.2174  0.1796  0.1587
 8056W        W24190   8.089  12.863   3.274  0.0022  0.0430 -0.3594
 8057W        W24191  16.821   7.760  12.941  0.0703 -0.1128  0.2190
 8058W        W24192   7.378  16.349   2.114 -0.0317 -0.3021  0.2572
 8059W        W24193   3.610  15.775  13.638 -0.4112  0.1735 -0.2431
 8060W        W24194  18.384  11.382   3.062  0.0515 -0.0638 -0.3656
 8061W        W24195   7.974   5.502  13.751  0.0437  0.0296  0.2078
 8062W        W24196   6.474  12.259   2.488 -0.0426 -0.1516  0.1245
 8063W        W24197   2.969   5.695   1.241 -0.0990 -0.0931 -0.1648
 8064W        W24198  10.413   5.918   5.490  0.0241 -0.1103  0.1915
 8065W        W24199  13.061  14.751   1.381 -0.0835  0.1075 -0.2553
 8066W        W24200   7.487   3.532  12.823 -0.0969  0.0344  0.0401
 8067W        W24201  11.427  18.216   0.531 -0.1034 -0.0409  0.1403
 8068W        W24202   0.135   7.625  15.501  0.5571 -0.0299  0.2634
 8069W        W24203   0.713   5.492  11.943  0.0668 -0.2824  0.2118
 8070W        W24204   6.902  16.866   4.363 -0.0661 -0.0656 -0.1513
 8071W        W24205   5.872  14.445  15.913  0.4452  0.1221  0.0823
 8072W        W24206  15.439  17.356   5.462 -0.0828 -0.0653 -0.2065
 8073W        W24207  14.808   7.697  13.928 -0.2614 -0.0084 -0.1705
 8074W        W24208  14.827  13.208   0.627 -0.0933  0.2639 -0.0229
 8075W        W24209  18.472  14.597   3.738  0.0856  0.1004  0.0155
 8076W        W24210   9.239  13.926   0.771 -0.0909 -0.0858  0.0545
 8077W        W24211  15.940   1.417   4.542  0.0453 -0.1498  0.1255
 8078W        W24212  11.912   7.068  12.886  0.0152  0.0037  0.0357
 8079W        W24213  12.510   6.012  14.490  0.1925 -0.0797 -0.1670
 8080W        W24214  10.273  11.630   0.864 -0.3150 -0.0903  0.1647
 8081W        W24215   7.635   7.486   2.596 -0.0328  0.1784  0.4439
 8082W        W24216  18.360  10.156   2.936 -0.0026  0.3440  0.0691
 8083W        W24217  14.293  18.425   3.814 -0.2006  0.1363 -0.2201
 8084W        W24218  16.786   8.731  13.062  0.1300 -0.0004 -0.0346
 8085W        W24219  18.411  17.512  13.165  0.0160  0.2691  0.0935
 8086W        W24220   0.100   3.122   3.993  0.0116 -0.0303  0.1299
 8087W        W24221   7.209   8.816  16.000 -0.1235 -0.0217  0.0550
 8088W        W24222   8.722   4.999   2.825 -0.1445 -0.0509 -0.0363
 8089W        W24223  14.938   2.418  12.496  0.1618 -0.1906  0.1988
 8090W        W24224  15.997  16.952   4.927 -0.1378 -0.0791 -0.4070
 8091W        W24225  11.752  10.056   4.540  0.0938 -0.1746  0.1166
 8092W        W24226  11.042  12.350  14.806 -0.0236 -0.0027 -0.0935
 8093W        W24227   6.614  13.339   0.454  0.1369 -0.2409  0.1915
 8094W        W24228   7.818   7.578   1.514  0.0638  0.0877  0.2320
 8095W        W24229  12.751  14.492   2.593 -0.2715  0.1182 -0.1739
 8096W        W24230   7.857   1.743  11.651  0.1478 -0.0576 -0.1021
 8097W        W24231   1.102  17.164   1.526  0.0173 -0.1096  0.1623
 8098W        W24232   2.354   1.890  10.617  0.1181 -0.0166 -0.1653
 8099W        W24233   4.749  12.244  15.984 -0.1848 -0.1666  0.0168
 8100W        W24234   1.953   5.784  14.412  0.1191  0.1517 -0.1583
 8101W        W24235   6.124   3.854  12.173  0.0412 -0.1997 -0.0770
 8102W        W24236   4.846   2.893   4.576 -0.1022  0.0035  0.2695
 8103W        W24237   5.112   1.526   4.043  0.3521  0.2709  0.0598
 8104W        W24238   3.880   8.292   1.816  0.1304 -0.0196 -0.0824
 8105W        W24239   3.281   0.104   0.691  0.2403  0.0793  0.1492
 8106W        W24240   0.551   0.190  13.983 -0.1534  0.0058 -0.0598
 8107W        W24241   8.674  14.003   1.370 -0.0300  0.0876 -0.4401
 8108W        W24242  11.837  18.491   0.036 -0.3583 -0.3090 -0.1525
 8109W        W24243   3.154   2.607   1.678  0.0932  0.0117  0.1908
 8110W        W24244   5.065   6.576  12.419 -0.2119 -0.0658  0.0199
 8111W        W24245  10.757  17.033  16.016 -0.1333  0.0583  0.3000
 8112W        W24246  13.764   9.131   4.932 -0.2930  0.4101 -0.1693
 8113W        W24247   7.237  10.094   0.557  0.2416  0.0659 -0.1921
 8114W        W24248  12.995   1.860  11.679 -0.1279 -0.0620  0.0899
 8115W        W24249   8.835  10.136   2.666 -0.0465  0.1737 -0.1901
 8116W        W24250  15.050  18.239   4.251  0.0271 -0.1538 -0.0571
 8117W        W24251  10.158   4.904   5.643 -0.1443  0.2008 -0.1081
 8118W        W24252   0.984  14.835   2.789 -0.1150 -0.2814 -0.4945
 8119W        W24253   2.392  13.904  10.101 -0.4330 -0.2945  0.2486
 8120W        W24254   5.167   2.065   4.764 -0.1722 -0.3286 -0.2235
 8121W        W24255  11.069  10.094   2.072 -0.0049 -0.0511  0.0408
 8122W        W24256  12.005   5.406  14.992  0.3314  0.1588 -0.1438
 8123W        W24257   1.037   5.406   4.823 -0.2414 -0.1922 -0.0848
 8124W        W24258   9.102  13.674   2.581 -0.0376 -0.0097 -0.2878
 8125W        W24259   3.958  12.610   4.015  0.3234  0.2112  0.3738
 8126W        W24260  15.368   1.193   3.125 -0.1520 -0.1156  0.1098
 8127W        W24261   4.543   5.339  12.904 -0.0610  0.2363  0.0003
 8128W        W24262   0.077  13.490   0.809  0.1604  0.1281  0.1129
 8129W        W24263   4.991   1.139   1.614  0.1017 -0.0672 -0.1740
 8130W        W24264  16.009  16.429  15.617  0.0792 -0.2195 -0.3137
 8131W        W24265   8.361   3.600  14.846 -0.0933 -0.3213 -0.1890
 8132W        W24266   9.081  12.089   3.772 -0.1108  0.3666 -0.2044
 8133W        W24267  15.706  11.163   1.802  0.0022 -0.0047  0.2850
 8134W        W24268   9.190   2.843  12.389 -0.0340 -0.1453  0.1401
 8135W        W24269  14.662   2.915  14.050  0.3923  0.1550  0.0155
 8136W        W24270  14.694  11.941   1.977  0.0085  0.0045 -0.0587
 8137W        W24271   7.621   1.390   3.754  0.1805  0.0753 -0.2139
 8138W        W24272   7.723   9.635   4.525  0.0069 -0.3516  0.0620
 8139W        W24273  11.755   8.837  15.282  0.1543 -0.1128  0.0867
 8140W        W24274  10.076   7.371   3.157  0.1337  0.1198 -0.2807
 8141W        W24275  10.422   4.973  14.949  0.1710 -0.1924 -0.2448
 8142W        W24276  15.687  12.525  14.687 -0.0550 -0.0600 -0.0269
 8143W        W24277   5.949   3.052  15.628 -0.4134 -0.4404  0.1353
 8144W        W24278  14.213   7.885  15.926 -0.0202 -0.0891 -0.1974
 8145W        W24279   6.882   8.327   0.704  0.1130  0.3118 -0.0201
 8146W        W24280  13.437  12.152  11.817 -0.2479 -0.0980  0.1845
 8147W        W24281   2.271   4.634  11.600  0.2141 -0.0442 -0.0166
 8148W        W24282  16.465   5.867  14.307  0.2419 -0.1506 -0.3685
 8149W        W24283   4.584   9.495  13.754  0.1111 -0.1321  0.4537
 8150W        W24284   6.207   3.800  14.039 -0.2164 -0.1417  0.0638
 8151W        W24285   4.211   3.719  11.973 -0.0418 -0.0771  0.1984
 8152W        W24286  14.592   1.999  11.482 -0.0254  0.1537 -0.0818
 8153W        W24287  16.036  14.655   0.353  0.1429 -0.1966  0.1880
 8154W        W24288  10.067   0.146   1.133 -0.0666 -0.3734 -0.1065
 8155W        W24289   9.221   6.033  12.281  0.1009  0.2041  0.0321
 8156W        W24290   0.261   1.571  15.270 -0.2282  0.1022  0.1482
 8157W        W24291   1.227  10.027  15.162 -0.1923  0.0206  0.1893
 8158W        W24292  17.902   4.409   1.411  0.1281  0.0002 -0.1715
 8159W        W24293  12.332  17.735  15.179 -0.1453  0.1232  0.1303
 8160W        W24294  13.434  16.288   4.570 -0.1300  0.0379 -0.2673
 8161W        W24295  14.138  12.077  12.393 -0.0985 -0.2298  0.2051
 8162W        W24296   6.834  10.325   2.153 -0.1815 -0.1323  0.0098
 8163W        W24297   0.619   5.556  11.476 -0.1367 -0.0627  0.0935
 8164W        W24298  16.939   8.368  14.652  0.0945 -0.2374  0.1489
 8165W        W24299  10.836  14.150  15.527  0.2909  0.1201  0.2397
 8166W        W24300   7.650  17.784   0.407  0.0125  0.3811 -0.1863
 8167W        W24301  13.268   6.112  15.282 -0.1263  0.1647  0.1226
 8168W        W24302   6.963  10.923   4.743  0.2683  0.1326 -0.0327
 8169W        W24303  11.071  18.435   6.365 -0.0033  0.1656 -0.0190
 8170W        W24304   4.126   4.206  10.857 -0.0851 -0.2539  0.0231
 8171W        W24305  13.128  13.537   0.588  0.0889 -0.1368 -0.0583
 8172W        W24306   2.378   1.122   6.181 -0.1760  0.0526 -0.0338
 8173W        W24307  12.297  13.402   1.859  0.0908 -0.1170 -0.1851
 8174W        W24308  17.545   8.712   1.356 -0.1916  0.0550  0.0758
 8175W        W24309   1.728  16.506  12.887 -0.0473  0.1603 -0.1290
 8176W        W24310   4.316   6.115  14.196 -0.0612 -0.0937 -0.0086
 8177W        W24311  17.858   6.985   1.732  0.0635 -0.2788 -0.2131
 8178W        W24312   8.818  10.816   1.518 -0.2345  0.0760  0.0270
 8179W        W24313   5.495  15.198  13.587 -0.0776  0.1832  0.1764
 8180W        W24314  18.157   7.887  10.358 -0.0282 -0.0019  0.3305
 8181W        W24315  17.231   2.369  13.888  0.1274 -0.2556  0.0763
 8182W        W24316   0.303  14.050  14.358  0.1977 -0.1281 -0.3545
 8183W        W24317  17.917   1.745   1.188 -0.0757  0.0088 -0.2025
 8184W        W24318   7.550  17.073   4.654  0.1161  0.0683  0.1603
 8185W        W24319  11.462   7.086  13.810  0.3350 -0.0919 -0.0651
 8186W        W24320   3.349   8.325  11.025 -0.0144  0.4832 -0.0032
 8187W        W24321   8.451  15.379   4.172 -0.2346 -0.0438  0.0330
 8188W        W24322   6.133  14.447   5.275 -0.2807  0.1150  0.1095
 8189W        W24323   8.469   3.515  12.461 -0.1587  0.2330  0.0464
 8190W        W24324   0.413   1.203   3.855 -0.0800  0.2797  0.1031
 8191W        W24325   9.319   1.069   2.729 -0.1339  0.0980  0.1541
 8192W        W24326  12.874   3.917   4.952 -0.0477 -0.0213 -0.2591
 8193W        W24327   3.682  17.966  12.149  0.0792 -0.2488 -0.0259
 8194W        W24328   7.255  12.730   3.166 -0.2891  0.1438  0.0564
 8195W        W24329   5.489  13.870  14.855 -0.2263  0.3336  0.1022
 8196W        W24330  11.004  14.523   5.431 -0.2593 -0.0444  0.0133
 8197W        W24331   5.688   3.487  13.897  0.0968  0.2018 -0.0002
 8198W        W24332   0.593   0.658  14.183  0.1341  0.3570  0.0365
 8199W        W24333  10.869  13.356   2.598 -0.0962  0.1390  0.3479
 8200W        W24334   7.503   7.180   5.368 -0.2223  0.0306  0.1753
 8201W        W24335  10.946  11.304   5.161  0.1965 -0.1605  0.1516
 8202W        W24336  10.654  10.732   4.386 -0.0406 -0.0645  0.3733
 8203W        W24337   1.789  15.477  14.782  0.2184  0.0061 -0.2602
 8204W        W24338   8.875  15.265   5.417  0.0175 -0.2397  0.1304
 8205W        W24339   2.328  15.216  14.898 -0.1702 -0.2646  0.0990
 8206W        W24340  15.260   0.055  15.585 -0.1564 -0.2938 -0.1232
 8207W        W24341   7.487   6.739   3.318  0.3385  0.1608  0.0676
 8208W        W24342  15.325   8.870   3.531  0.1218 -0.2083  0.0100
 8209W        W24343  12.086  12.086  13.751  0.0035  0.0561 -0.2452
 8210W        W24344  10.859   5.708   2.795 -0.3038  0.4243 -0.2370
 8211W        W24345   8.328   7.535  15.479 -0.1012 -0.4225  0.3327
 8212W        W24346   2.824   0.590   4.763 -0.2395  0.5116 -0.0451
 8213W        W24347   3.895  15.444   2.304 -0.1473  0.2484  0.0006
 8214W        W24348   0.012   1.124   3.234 -0.5159  0.1139 -0.2499
 8215W        W24349   3.898  10.874  15.644 -0.1826 -0.0008 -0.0345
 8216W        W24350   4.562   3.717   5.501  0.1355 -0.2466  0.0600
 8217W        W24351   3.113   5.311   5.328  0.1655 -0.1797  0.2783
 8218W        W24352   8.221  14.773  15.679 -0.0131  0.0738  0.1350
 8219W        W24353  15.379   6.256   5.617 -0.2180  0.1975 -0.1691
 8220W        W24354   1.673   8.764  13.508 -0.0389 -0.2909  0.2975
 8221W        W24355  10.032   1.220   2.807 -0.0697  0.0582 -0.1457
 8222W        W24356   9.030  11.728  14.417 -0.0004  0.2210 -0.2390
 8223W        W24357  15.954  17.310   3.189  0.0257 -0.1482  0.0863
 8224W        W24358   1.959  14.861  13.674  0.2750  0.2100 -0.3394
 8225W        W24359   6.228   3.878   0.040  0.0640 -0.0629  0.0084
 8226W        W24360   5.070  16.824   3.541  0.5886  0.3167 -0.1606
 8227W        W24361   3.099  15.336  14.402 -0.1842 -0.2823 -0.2562
 8228W        W24362   0.830   8.308   2.385  0.2495 -0.0282 -0.1054
 8229W        W24363  16.535   4.766   4.068  0.0355 -0.3518  0.0960
 8230W        W24364   4.399   1.794   1.627 -0.3302 -0.0925  0.0122
 8231W        W24365  16.292   3.198   1.907  0.3322  0.0161 -0.0749
 8232W        W24366   3.537   5.810  11.782 -0.0118 -0.0313 -0.1173
 8233W        W24367  13.480  14.328   4.198  0.2624  0.0937 -0.1871
 8234W        W24368  15.664  16.260  15.261  0.0103 -0.0651 -0.2558
 8235W        W24369   8.261   2.435   5.306 -0.1934  0.0125  0.3813
 8236W        W24370   1.230   1.368   1.553 -0.2255 -0.2147  0.1099
 8237W        W24371  17.494  11.715   2.863 -0.2653  0.1438 -0.3645
 8238W        W24372  10.625   4.708   5.203 -0.1179 -0.0820 -0.1892
 8239W        W24373  13.252  18.437   2.417 -0.4101 -0.0125 -0.1033
 8240W        W24374   1.201  12.239   0.206 -0.0479  0.1247  0.3485
 8241W        W24375  11.782   1.070   0.170  0.1364  0.2278  0.1787
 8242W        W24376   0.035   2.188   4.415 -0.1043  0.2297  0.0402
 8243W        W24377  12.341  10.374   5.137  0.1273 -0.3802 -0.1741
 8244W        W24378  10.467   5.605   3.124  0.1977  0.1739 -0.0351
 8245W        W24379  17.776  18.312  14.028 -0.0615 -0.1513  0.1058
 8246W        W24380  15.265   8.620   1.485  0.1261 -0.1427  0.2317
 8247W        W24381   2.215   0.855   0.410  0.2245 -0.2175 -0.1303
 8248W        W24382  10.356   7.829   4.326  0.2214  0.2052  0.2182
 8249W        W24383  17.738  13.793   1.123 -0.1164 -0.0901 -0.3169
 8250W        W24384   1.900  15.710  10.526 -0.2382  0.0886  0.0603
 8251W        W24385  13.938   6.769  15.228  0.0658 -0.0597 -0.1408
 8252W        W24386  15.605  10.524  11.561  0.0871 -0.1406 -0.2913
 8253W        W24387   4.805  12.085   3.757  0.2329 -0.1421 -0.0874
 8254W        W24388   9.962  17.195  15.267  0.2808  0.1460  0.0558
 8255W        W24389   9.324  18.383   0.532 -0.1419 -0.0120 -0.1638
 8256W        W24390  10.779   4.517   2.926  0.0052 -0.0405  0.0219
 8257W        W24391   0.476   0.826   0.132 -0.0495 -0.1509 -0.0257
 8258W        W24392  11.098   7.721  16.014 -0.1219 -0.1919  0.2847
 8259W        W24393  13.567   6.177  14.021  0.1427  0.0267  0.0256
 8260W        W24394  15.329  13.808   4.170  0.0552 -0.4380 -0.1082
 8261W        W24395   3.681   3.026  15.372 -0.2527 -0.4223 -0.2539
 8262W        W24396   8.729  10.994   5.855  0.1019  0.0758 -0.0791
 8263W        W24397  12.501   8.478  14.033  0.1331  0.2362 -0.0658
 8264W        W24398   6.350  14.453   2.704  0.2677  0.0823  0.0017
 8265W        W24399   7.092  14.146   4.505  0.1315 -0.4998 -0.4598
 8266W        W24400   6.016   6.430   2.113  0.0116 -0.1625 -0.0949
 8267W        W24401  15.294   0.107  14.099 -0.0662 -0.1767  0.2511
 8268W        W24402   4.680  14.518   1.542 -0.0101 -0.3418 -0.4511
 8269W        W24403   5.060   0.188   1.777  0.1097  0.0600  0.0214
 8270W        W24404   3.333   5.757   0.578  0.2710  0.1572  0.2921
 8271W        W24405   3.215   0.624   3.470 -0.0126 -0.1322 -0.0159
 8272W        W24406   1.514   2.257  12.991 -0.0453 -0.0628 -0.1843
 8273W        W24407   6.199   6.605  12.745 -0.1435  0.2156 -0.0029
 8274W        W24408   6.067   2.506   1.734 -0.2889 -0.0744 -0.1335
 8275W        W24409  16.618   8.479   3.322 -0.5521  0.2908 -0.0487
 8276W        W24410  12.914  15.597   0.275  0.0981  0.3007 -0.2668
 8277W        W24411  17.507  13.252  11.161 -0.0052  0.0669  0.1361
 8278W        W24412   8.484   0.143   4.349 -0.2734  0.0811  0.2486
 8279W        W24413   2.151   5.004   2.656  0.0120  0.0577  0.0626
 8280W        W24414  10.425  16.809  14.225 -0.1127  0.0050 -0.0040
 8281W        W24415   9.518   0.726   1.928  0.0745 -0.2596 -0.1752
 8282W        W24416   8.573  18.109   5.004  0.2861 -0.2017  0.0440
 8283W        W24417   1.609  17.405   1.273  0.1440  0.3510 -0.0029
 8284W        W24418   0.840  11.758   2.123 -0.3604 -0.0580 -0.0173
 8285W        W24419   7.467   5.946   2.129 -0.0240 -0.1306 -0.0413
 8286W        W24420  17.768   1.243  15.818  0.0201 -0.3102  0.0064
 8287W        W24421  11.735   7.184   5.499 -0.4026 -0.2717 -0.3010
 8288W        W24422  16.805  10.546   4.710 -0.2913 -0.0554  0.0851
 8289W        W24423  17.412   0.126  14.116  0.1241 -0.1336  0.0948
 8290W        W24424  14.236   8.996  15.258  0.0353  0.1801  0.2397
 8291W        W24425  11.152   5.101   2.996 -0.2940 -0.0801  0.1682
 8292W        W24426   1.903  13.349  11.572  0.0394  0.0417 -0.1871
 8293W        W24427  11.282   2.661   0.792  0.4946 -0.1380  0.0412
 8294W        W24428   1.780   8.170  11.328  0.1565  0.0176 -0.0324
 8295W        W24429  10.391   1.945  12.299  0.3057  0.1060 -0.2738
 8296W        W24430  13.541   5.878   5.852  0.2619 -0.1241  0.1758
 8297W        W24431  15.477  10.948  15.388  0.2260 -0.3699 -0.2408
 8298W        W24432   6.971   7.345  13.842  0.5989 -0.0294 -0.1703
 8299W        W24433   1.872   7.524  13.860  0.1477 -0.0819  0.4603
 8300W        W24434  17.307  18.441   2.324 -0.0676 -0.0970  0.1281
 8301W        W24435   8.135   9.900   1.013 -0.2046  0.0168 -0.2840
 8302W        W24436   7.624   1.279   1.542  0.0493  0.0200  0.0953
 8303W        W24437  16.721   7.493  15.871  0.0103  0.3288  0.1108
 8304W        W24438   4.055   6.736   0.817  0.0630  0.1486 -0.0618
 8305W        W24439   2.467   9.616   1.504 -0.2209  0.1539  0.2374
 8306W        W24440   1.351   1.546   9.784  0.2705 -0.1129 -0.1781
 8307W        W24441  17.258  16.848   2.653  0.3074 -0.1694  0.0998
 8308W        W24442  11.530   5.403  15.053 -0.2727  0.0475 -0.2660
 8309W        W24443  14.899  11.251  11.585  0.1253 -0.0766  0.2917
 8310W        W24444   8.989  14.311  15.213 -0.0342 -0.0444  0.2116
 8311W        W24445  14.798  16.644   1.095 -0.4656 -0.1983 -0.1380
 8312W        W24446   4.669  15.549   1.280 -0.2579  0.0690  0.0534
 8313W        W24447   3.140  15.439   5.305 -0.0706  0.1915  0.3131
 8314W        W24448  14.552  16.153   1.252 -0.1888 -0.4815  0.0915
 8315W        W24449   2.937   8.033  14.197 -0.2272  0.3581 -0.0370
 8316W        W24450  11.683   9.863   6.224 -0.0954 -0.3495  0.1486
 8317W        W24451  15.335  14.494  14.733 -0.3569  0.0214  0.0326
 8318W        W24452   7.661   3.835   6.222 -0.3647  0.0373  0.2200
 8319W        W24453   4.892   4.006   4.569  0.0070 -0.2931 -0.1004
 8320W        W24454  12.726   5.714   2.189 -0.3417 -0.1848  0.1733
 8321W        W24455   6.403  13.841  14.927 -0.0310 -0.0780  0.0824
 8322W        W24456   9.795  16.946   0.927 -0.1649  0.3984 -0.0027
 8323W        W24457   7.302  12.085   5.526 -0.2228 -0.2367  0.2626
 8324W        W24458  14.166  10.496   0.316  0.3330 -0.0018 -0.1342
 8325W        W24459   3.980   4.111  12.193 -0.0954 -0.1070 -0.1088
 8326W        W24460   3.947  13.015  11.947  0.3064 -0.0818  0.2099
 8327W        W24461   0.881  18.232   2.557 -0.0362 -0.1005  0.1045
 8328W        W24462   7.267   0.189  14.467 -0.0775  0.1046  0.0650
 8329W        W24463   0.855   0.250  14.429 -0.1181 -0.0481  0.0827
 8330W        W24464  13.404   9.526  13.277  0.0054 -0.1614 -0.1207
 8331W        W24465   2.583  14.326   2.216 -0.1628  0.0654  0.0345
 8332W        W24466   5.439   7.081   4.048 -0.1829  0.0122 -0.2820
 8333W        W24467   2.354   3.538  12.553 -0.1723  0.0777  0.2327
 8334W        W24468   4.360   8.624   4.183 -0.2974 -0.0134  0.2294
 8335W        W24469   8.467   5.620   2.987 -0.1738 -0.3498 -0.2543
 8336W        W24470   3.032   2.161   3.476 -0.2318 -0.2024  0.2558
 8337W        W24471   0.136  17.289  12.437  0.2649  0.0777 -0.2358
 8338W        W24472   5.002  15.734   4.578  0.1419  0.2163 -0.0018
 8339W        W24473   6.881  16.994  14.210 -0.1824 -0.2693 -0.1703
 8340W        W24474  11.688  14.781  15.326 -0.1734 -0.0791  0.1133
 8341W        W24475  12.283   3.694  14.382 -0.0020 -0.1098 -0.1845
 8342W        W24476  17.598   1.157   1.404  0.1066 -0.1031  0.2559
 8343W        W24477   6.250   8.472   4.611 -0.0450  0.0095  0.1264
 8344W        W24478   8.535   4.379  13.808  0.1516  0.3343 -0.0109
 8345W        W24479  13.781   2.095   2.501 -0.0737 -0.0856 -0.1288
 8346W        W24480  13.999  10.073   4.829 -0.2566 -0.0354 -0.1783
 8347W        W24481   5.234   8.216   1.001  0.1600  0.1630  0.0038
 8348W        W24482  11.127   0.392   0.653 -0.2412  0.0742  0.0736
 8349W        W24483   1.736  11.293  14.857  0.0727  0.0124  0.0192
 8350W        W24484   5.377  12.273  11.956 -0.1672 -0.2015 -0.0121
 8351W        W24485   8.125   9.925   4.909 -0.0001  0.1928  0.3076
 8352W        W24486   7.191  12.259  14.933 -0.2634  0.1862 -0.2020
 8353W        W24487  14.857   9.223   0.015  0.0146 -0.2972 -0.1184
 8354W        W24488   8.559  14.051   0.032  0.1591 -0.0317  0.2084
 8355W        W24489  17.629   7.426  14.022 -0.0053 -0.1809 -0.4814
 8356W        W24490  10.079  17.283  11.561  0.0564  0.1457  0.0093
 8357W        W24491  10.756  18.295   3.496 -0.1744 -0.4011  0.0442
 8358W        W24492  17.930  17.990   4.817 -0.4211 -0.0943 -0.1599
 8359W        W24493   3.325  13.830  13.120  0.2898  0.0827  0.0874
 8360W        W24494   4.102   3.771   2.215  0.0237 -0.1190  0.0437
 8361W        W24495   9.385   5.720  15.384 -0.3283  0.0113 -0.1301
 8362W        W24496  18.501  16.981   2.361 -0.5371 -0.3244 -0.0051
 8363W        W24497   5.551  17.216   4.252 -0.2285 -0.0346  0.0024
 8364W        W24498  11.415  15.989   2.539 -0.2040  0.4295  0.0530
 8365W        W24499  11.029  17.988   5.573  0.0733 -0.2622  0.3037
 8366W        W24500  14.055  16.521   2.111 -0.1214 -0.0329  0.0522
 8367W        W24501  13.258  15.499  12.701 -0.0741 -0.2282  0.1037
 8368W        W24502  10.801   5.146   6.101  0.0758 -0.4691 -0.2048
 8369W        W24503  11.765   9.071   4.021 -0.3865 -0.1588  0.3722
 8370W        W24504   4.662  18.437   2.748 -0.2591  0.0886  0.0184
 8371W        W24505  10.048   4.279  12.067  0.2340  0.1014 -0.0715
 8372W        W24506  15.268   0.881   4.649 -0.1526  0.5039 -0.0587
 8373W        W24507  18.388   2.194   2.472 -0.1409 -0.0007 -0.1774
 8374W        W24508   0.661  17.378   3.564 -0.4816 -0.1674  0.1433
 8375W        W24509   3.511  17.006   2.503 -0.1841  0.2907 -0.1121
 8376W        W24510   3.884  14.488  14.795 -0.1341  0.4001 -0.0209
 8377W        W24511   6.112   0.041   0.639 -0.1383 -0.1816 -0.0622
 8378W        W24512   5.330   8.592   5.737  0.0284  0.1000 -0.1850
 8379W        W24513  10.499  15.825  12.987 -0.1477  0.0262 -0.1727
 8380W        W24514   4.468  14.207   2.959 -0.1145 -0.1297 -0.3222
 8381W        W24515   3.646   9.258   0.752  0.0333 -0.0336  0.1212
 8382W        W24516   0.836   6.986   2.178  0.1779 -0.2263 -0.0495
 8383W        W24517   0.465  15.285   1.249 -0.2465 -0.2866  0.1563
 8384W        W24518   2.837  11.510  10.969  0.0633 -0.3527 -0.1738
 8385W        W24519   9.653   5.486   3.797 -0.1884 -0.0246  0.2078
 8386W        W24520  13.880   1.930  12.160  0.0020  0.0640  0.3239
 8387W        W24521   4.891  18.242  13.611 -0.1362  0.1787  0.1338
 8388W        W24522  13.974   8.752  15.736 -0.0925 -0.3353  0.2745
 8389W        W24523  10.218  15.831   3.134  0.4166  0.1432 -0.0510
 8390W        W24524   4.486   3.221   3.370  0.3384 -0.1327  0.2689
 8391W        W24525   6.704   1.019  11.890  0.0565 -0.0293  0.3915
 8392W        W24526  15.981   1.387  15.529  0.0147 -0.2861  0.3361
 8393W        W24527  13.726   7.389  14.386  0.2167  0.0231 -0.0172
 8394W        W24528  13.135   5.546   5.885 -0.0858 -0.0811 -0.0789
 8395W        W24529   1.797   2.504   1.717  0.1077 -0.2142 -0.0449
 8396W        W24530  11.061  12.975  14.480  0.3413  0.0548 -0.0395
 8397W        W24531   3.971   1.666  11.938  0.2646  0.2331 -0.0937
 8398W        W24532  16.234   5.941  13.015 -0.2753 -0.0017 -0.1880
 8399W        W24533  15.319   1.392   4.648  0.0553 -0.3983 -0.2317
 8400W        W24534   1.776   4.592   4.392  0.0805 -0.0151  0.0616
 8401W        W24535   8.088  14.825   2.135  0.1147 -0.1121  0.0680
 8402W        W24536  13.072   9.162  13.029 -0.2016  0.3901  0.0434
 8403W        W24537   3.097  16.639   1.337 -0.2601 -0.1550 -0.1840
 8404W        W24538   2.356  12.281   0.222  0.0516 -0.0117  0.0438
 8405W        W24539   6.839  14.845   0.045 -0.0118 -0.1217  0.1751
 8406W        W24540  11.169   5.953  13.010  0.0317 -0.0498  0.1814
 8407W        W24541  10.752   8.184   4.097  0.0760  0.2575  0.1595
 8408W        W24542   4.564   3.494  12.709  0.1258  0.0378 -0.2568
 8409W        W24543  10.108   8.037  15.187 -0.7328  0.0160 -0.0319
 8410W        W24544   4.105   6.628   3.027 -0.0948 -0.0947  0.0757
 8411W        W24545   2.512   7.788  13.707 -0.1260 -0.0873 -0.0732
 8412W        W24546   7.170  15.880  11.891  0.1692  0.1272  0.3685
 8413W        W24547   9.586  14.054  15.993  0.1672  0.3237 -0.0472
 8414W        W24548   2.647   1.790   1.871 -0.0327 -0.1193  0.0964
 8415W        W24549   0.596  10.647  13.984  0.2373 -0.0236  0.3663
 8416W        W24550   2.995   3.971  10.831  0.4120 -0.0312  0.0342
 8417W        W24551  13.908  14.020  16.018 -0.1029  0.0105  0.1671
 8418W        W24552  11.670   9.446   5.184 -0.4850  0.0895 -0.2549
 8419W        W24553  15.859   1.992   1.191 -0.1068  0.1953  0.0715
 8420W        W24554  14.447  12.254   5.079 -0.1374  0.0044  0.1386
 8421W        W24555   1.568  11.241  13.463  0.3207 -0.0768  0.3024
 8422W        W24556   4.671  11.054   1.624 -0.1122 -0.0593 -0.0602
 8423W        W24557  14.165   4.992   5.531  0.0443  0.2281 -0.1358
 8424W        W24558  10.876  15.426  11.305  0.1803 -0.1655 -0.4215
 8425W        W24559  14.277  15.948  15.624 -0.0348  0.2361  0.3450
 8426W        W24560  18.383   3.524   0.480  0.1893  0.1376 -0.2366
 8427W        W24561   0.261   3.102  12.987 -0.0340  0.0593  0.1172
 8428W        W24562   8.838   0.503   4.750 -0.1504 -0.2493 -0.3851
 8429W        W24563  10.483   4.181  14.333  0.3285 -0.1860 -0.3179
 8430W        W24564  16.532  16.118   4.854 -0.3836 -0.0139 -0.1408
 8431W        W24565   2.824   5.535   0.657 -0.1297 -0.0955 -0.0900
 8432W        W24566  14.916   7.489   2.506  0.0778 -0.2384 -0.0712
 8433W        W24567   7.949   4.084  11.936 -0.0301 -0.1137 -0.2468
 8434W        W24568   2.928   3.123  15.461 -0.0820  0.0778  0.1103
 8435W        W24569   2.727   4.349   0.301  0.0371  0.2671 -0.1439
 8436W        W24570   4.304   2.956   4.669  0.0616  0.0065 -0.0677
 8437W        W24571   0.312   1.294   2.438 -0.0017  0.2171  0.1771
 8438W        W24572   3.272   7.077   3.935  0.1974  0.2325 -0.1099
 8439W        W24573  16.858  13.484  13.647 -0.1994  0.0481 -0.1092
 8440W        W24574  12.908   7.207   0.995 -0.0137 -0.1517  0.4241
 8441W        W24575   9.595  12.080   4.760  0.1863 -0.3055  0.2059
 8442W        W24576  14.168   1.347  14.926 -0.1098  0.2619  0.2755
 8443W        W24577   4.686   1.369   3.085 -0.1259  0.2391 -0.1858
 8444W        W24578   1.767  15.502   1.998 -0.1036 -0.2123  0.0757
 8445W        W24579   3.166  16.266  15.516 -0.0560 -0.1020 -0.4068
 8446W        W24580  15.955  14.526   3.647  0.2714 -0.0060 -0.0312
 8447W        W24581  17.328   3.306  14.149 -0.1502 -0.1128 -0.0283
 8448W        W24582  16.595   7.835   4.390  0.1160  0.1673  0.2228
 8449W        W24583   5.819   8.602  14.700 -0.0487 -0.3555  0.2771
 8450W        W24584   7.098  12.634  13.879  0.1318  0.0327  0.0802
 8451W        W24585   0.282  15.681  13.758 -0.4147 -0.2783 -0.0498
 8452W        W24586  10.956   3.956   0.822 -0.2086 -0.1118  0.0922
 8453W        W24587  16.707   8.188  15.263 -0.3567 -0.0065  0.2165
 8454W        W24588   3.138   5.477  11.456  0.1897 -0.0208 -0.2279
 8455W        W24589   0.984  15.719  14.461  0.1912  0.3294  0.1721
 8456W        W24590  16.144   7.724   2.059  0.1515  0.1208  0.1110
 8457W        W24591  11.785   4.758   4.711  0.2567  0.1465 -0.0308
 8458W        W24592   4.516   1.853   2.338 -0.0533 -0.2247  0.1184
 8459W        W24593   6.206   4.747  13.735 -0.3780 -0.1704 -0.0588
 8460W        W24594   7.839   9.365   0.924 -0.2388  0.1374  0.0779
 8461W        W24595   3.838  15.716   0.697  0.0069 -0.1792 -0.2815
 8462W        W24596  18.389   8.317  11.277  0.0311 -0.1935 -0.0154
 8463W        W24597  10.558   9.971  13.056  0.0126  0.1089 -0.1610
 8464W        W24598  13.529   0.708   4.784 -0.0720  0.1400 -0.1783
 8465W        W24599   2.794   4.761   1.569 -0.0488  0.1377 -0.5801
 8466W        W24600   7.619   2.678  10.236  0.3279  0.5243 -0.3581
 8467W        W24601   7.376   2.513  12.695 -0.1159  0.2952 -0.1716
 8468W        W24602   5.823  14.447   2.503  0.2499  0.0549 -0.1713
 8469W        W24603   8.465   8.110  14.150 -0.1255  0.4291  0.1309
 8470W        W24604  16.371  16.828  12.815  0.1637 -0.1020 -0.1750
 8471W        W24605   6.666  15.687   4.987  0.1247 -0.0688 -0.0391
 8472W        W24606  10.372  17.299   3.257 -0.2661  0.0275  0.2317
 8473W        W24607  10.965  12.582   2.509  0.0830 -0.0582  0.0052
 8474W        W24608  11.070  12.881   5.003  0.0955 -0.1565  0.1543
 8475W        W24609   5.084  15.528  12.695 -0.1430  0.1712  0.0403
 8476W        W24610  13.127   0.843   6.413 -0.3376  0.1185 -0.0204
 8477W        W24611   5.498  12.487   2.426 -0.2459 -0.2022  0.1626
 8478W        W24612   9.155  10.451   0.208 -0.4009 -0.0855 -0.1965
 8479W        W24613   3.316  12.494   1.781 -0.1994  0.2457 -0.1997
 8480W        W24614  18.138  16.479  11.942 -0.2955  0.1862  0.0589
 8481W        W24615   8.253   3.056  12.309  0.1389 -0.1142  0.0179
 8482W        W24616   4.189  17.180  13.248  0.0965 -0.0197  0.3966
 8483W        W24617  11.299   1.020  13.393  0.2377  0.0297  0.1750
 8484W        W24618  11.358   3.584   0.710 -0.0091 -0.1804  0.0553
 8485W        W24619  17.979  12.956  12.194 -0.1925  0.0127 -0.1637
 8486W        W24620  15.302  17.008  13.047  0.1747 -0.0544 -0.0843
 8487W        W24621  15.174   2.202   4.924 -0.3302  0.4519 -0.0216
 8488W        W24622  14.104   9.573   4.775 -0.0765  0.0124 -0.1826
 8489W        W24623   4.300   8.459   2.415  0.0720 -0.0875  0.3831
 8490W        W24624  13.962   4.900   1.019  0.1894 -0.0013  0.2359
 8491W        W24625  14.209   0.675   0.049 -0.0765 -0.0988 -0.0004
 8492W        W24626   2.377   6.691   1.370 -0.7088 -0.1112  0.1696
 8493W        W24627  18.020  15.564  15.849 -0.3644  0.1539  0.1909
 8494W        W24628   7.637   9.075  15.100  0.2346  0.1744  0.2078
 8495W        W24629   3.813  16.993  13.529  0.2687 -0.0851  0.1963
 8496W        W24630   3.609   5.700  13.150  0.2223  0.0932 -0.0017
 8497W        W24631   1.006   2.832   5.293 -0.0765 -0.2007  0.1478
 8498W        W24632   3.047  13.640  11.331 -0.2638 -0.1143  0.1038
 8499W        W24633   9.258   4.756   5.928  0.0864 -0.2513 -0.1916
 8500W        W24634  17.085   2.045  15.280  0.1579 -0.2152 -0.0956
 8501W        W24635   2.082   4.237   1.543  0.1498 -0.3389 -0.0196
 8502W        W24636   6.606   7.678  12.990  0.3269 -0.0607  0.0827
 8503W        W24637  14.179   3.027   3.476  0.2879 -0.1113 -0.0184
 8504W        W24638  14.083   0.907   1.856 -0.0073  0.0837  0.1416
 8505W        W24639   5.936   4.107   0.952 -0.0231 -0.0525 -0.1554
 8506W        W24640   1.495  13.757   1.886  0.1898 -0.3945 -0.4027
 8507W        W24641   1.611  17.445   0.236  0.2449  0.1440  0.2395
 8508W        W24642  15.311   2.684   1.937  0.1248  0.2050 -0.1940
 8509W        W24643   1.180   8.728   2.782  0.0243 -0.2405 -0.0178
 8510W        W24644   5.674   9.110   1.829 -0.0758 -0.0543  0.0141
 8511W        W24645   6.400  16.628  15.812  0.1968  0.2138  0.1733
 8512W        W24646  11.166   9.188  14.570 -0.2909  0.0701  0.2231
 8513W        W24647  16.683   0.152   4.329  0.3870 -0.0630 -0.0542
 8514W        W24648   2.306  11.822   0.502  0.2359 -0.0992  0.3494
 8515W        W24649  15.372   6.242  14.167 -0.2837 -0.1201 -0.2521
 8516W        W24650  16.399  11.297  11.525  0.1247 -0.0947  0.2357
 8517W        W24651  10.645  17.419   3.664 -0.4692  0.1308  0.0738
 8518W        W24652   6.171  12.133   5.368  0.0176  0.3317 -0.0461
 8519W        W24653  10.798   4.270   0.358  0.1382  0.3203 -0.0914
 8520W        W24654   5.764   7.433  13.006  0.0456  0.2961 -0.0042
 8521W        W24655   3.940  16.393   1.425  0.1247  0.0119  0.0538
 8522W        W24656   4.547   7.676  12.369  0.3870 -0.1546 -0.0657
 8523W        W24657  10.084   9.762  12.459  0.0293  0.2351  0.1545
 8524W        W24658  13.689   5.624   4.372  0.0569  0.0237  0.3040
 8525W        W24659   1.002   0.381  13.907  0.0274  0.1986 -0.0704
 8526W        W24660  16.584   7.201  11.971 -0.1832 -0.2067 -0.1784
 8527W        W24661   0.925  15.002   0.039  0.0114  0.3020  0.2042
 8528W        W24662  14.979  17.905  13.880  0.3338 -0.0095 -0.0834
 8529W        W24663   2.147   0.560  13.650 -0.3256  0.1518 -0.0625
 8530W        W24664   4.471   9.344  12.659 -0.2884 -0.1670 -0.0987
 8531W        W24665   6.565   1.112   2.162  0.0152  0.0064  0.2938
 8532W        W24666   8.403  12.365  13.104 -0.2667 -0.0361 -0.0298
 8533W        W24667  11.101  15.167   1.496 -0.1081 -0.1022 -0.3474
 8534W        W24668   1.674   2.205  13.932 -0.1112 -0.1517 -0.0860
 8535W        W24669  16.891   6.390   4.032 -0.2294  0.1897  0.1137
 8536W        W24670  14.151  16.530  11.388 -0.1868  0.0229 -0.2020
 8537W        W24671  14.062   2.535  11.125  0.1287  0.0300 -0.1158
 8538W        W24672   2.817  14.373   1.697 -0.1417  0.3967  0.3829
 8539W        W24673   8.575  12.780  13.594 -0.2585 -0.1970  0.0016
 8540W        W24674  17.136  13.225   0.980 -0.3046  0.3643  0.1647
 8541W        W24675   9.752   1.914   1.070  0.2965 -0.0246  0.1549
 8542W        W24676  13.347   6.740  11.719 -0.3695  0.1015  0.2511
 8543W        W24677   7.243   2.368   1.231  0.0447 -0.0891 -0.1812
 8544W        W24678  15.892   1.004  12.314 -0.3702 -0.2026  0.0576
 8545W        W24679  16.881  11.912  15.227  0.0054 -0.0152  0.1709
 8546W        W24680   1.842   4.806   3.839  0.2439  0.2266 -0.1191
 8547W        W24681   1.970   8.715  10.451  0.0535 -0.2335  0.1656
 8548W        W24682  12.316  18.073   5.979  0.3435 -0.0001 -0.0139
 8549W        W24683  10.404  13.539  14.353 -0.0892 -0.2180  0.2667
 8550W        W24684   7.639   1.221   4.829 -0.2873 -0.0815 -0.1235
 8551W        W24685   1.946   8.207   1.539  0.0084 -0.0597  0.0691
 8552W        W24686   3.638  17.851  11.646  0.2270  0.0079  0.1858
 8553W        W24687   8.561   7.197   2.442  0.1414  0.0529  0.2274
 8554W        W24688   6.500  10.099  11.106 -0.2545 -0.1068 -0.4340
 8555W        W24689   0.123  15.084  14.482 -0.0851  0.0297 -0.0253
 8556W        W24690  11.253   2.913   2.960  0.3858 -0.2060 -0.2537
 8557W        W24691  10.358  11.428  13.412 -0.2265  0.1325  0.0454
 8558W        W24692  10.988  10.163   0.071 -0.2930 -0.0364 -0.1773
 8559W        W24693   8.892   0.185  14.680 -0.2319  0.2347  0.0637
 8560W        W24694   2.328   4.002   1.095  0.0932 -0.1887 -0.2974
 8561W        W24695  11.057  15.617  13.800  0.0082  0.1520  0.1969
 8562W        W24696  15.277  15.634   0.377 -0.0005  0.3943  0.0237
 8563W        W24697  15.331   6.943   1.391 -0.0729  0.0173  0.0230
 8564W        W24698  10.124   5.389  13.614 -0.0580  0.1964  0.0308
 8565W        W24699   9.065  17.051  13.014 -0.0893  0.1826  0.0002
 8566W        W24700  17.776  16.421  12.535 -0.0702  0.1987  0.0711
 8567W        W24701  10.580   6.064  11.884 -0.2258  0.0089  0.0521
 8568W        W24702  11.489  17.148   3.491 -0.1875 -0.0625 -0.0294
 8569W        W24703   5.197   2.182  11.318  0.0316 -0.1818  0.2827
 8570W        W24704  15.293   0.670   5.379 -0.0202 -0.1856 -0.0725
 8571W        W24705  18.200  12.377   9.731 -0.1407 -0.0621 -0.0984
 8572W        W24706  14.451   3.756  13.192  0.0092  0.1807  0.0151
 8573W        W24707   2.888   6.750   3.871 -0.0828  0.1335  0.4087
 8574W        W24708   2.343   5.559  13.955 -0.2056 -0.2799  0.1722
 8575W        W24709  16.519  16.335   1.168  0.0800 -0.0697 -0.0357
 8576W        W24710  12.428   4.481   0.397 -0.0201  0.2325  0.3271
 8577W        W24711  16.854  11.523  11.791 -0.2518  0.2382 -0.3015
 8578W        W24712  11.270   4.015   2.786  0.1490 -0.2404  0.0071
 8579W        W24713   3.861   8.772   3.368  0.1702  0.0699  0.2272
 8580W        W24714   2.413  13.571   2.631 -0.2129  0.0671 -0.1906
 8581W        W24715  13.556   1.662   0.537 -0.0053 -0.3560 -0.2071
 8582W        W24716  16.147  14.065   3.711 -0.2687  0.0461 -0.2872
 8583W        W24717  13.838   6.523   1.441 -0.1341  0.0367 -0.1912
 8584W        W24718  12.322   8.221   0.515 -0.0087 -0.2874 -0.0155
 8585W        W24719  12.385   6.540   0.356 -0.0219 -0.4005 -0.0329
 8586W        W24720  10.259   8.261  14.577  0.0254 -0.0255 -0.1682
 8587W        W24721   0.111   0.826  11.993  0.5384 -0.2549  0.1397
 8588W        W24722  17.322   5.620  14.613 -0.1673 -0.0762  0.1804
 8589W        W24723  10.968  18.127  11.593 -0.0191  0.0255 -0.0784
 8590W        W24724  15.735   3.549   5.242 -0.1326 -0.1328 -0.0121
 8591W        W24725   3.204  15.192   1.736  0.1941 -0.0228  0.1167
 8592W        W24726  17.036   1.408   0.869 -0.0481 -0.1050  0.0176
 8593W        W24727   4.245  17.989  13.627  0.3162 -0.1623 -0.0721
 8594W        W24728   3.759  17.892   2.172  0.2473  0.5515 -0.0280
 8595W        W24729   2.053   1.555  14.554 -0.1608 -0.2257 -0.1797
 8596W        W24730  17.140   4.603   4.043  0.3876 -0.1731  0.0652
 8597W        W24731  11.180  12.764  12.772  0.0394 -0.0086  0.0707
 8598W        W24732  10.234  13.485  15.596  0.0513  0.2957  0.0901
 8599W        W24733   8.217  12.002  15.688  0.2287  0.2120 -0.1108
 8600W        W24734  13.899  13.088   0.754  0.0677  0.1955 -0.1984
 8601W        W24735  11.719   2.822   0.762  0.0036 -0.1788  0.1822
 8602W        W24736   4.276   2.373  15.195 -0.1861 -0.4262  0.1235
 8603W        W24737  14.387  10.774  13.910 -0.0653 -0.0434 -0.1816
 8604W        W24738   6.465  10.842  10.965  0.0382 -0.0652 -0.1145
 8605W        W24739   8.083  12.157   5.953  0.1093 -0.1180  0.1413
 8606W        W24740  13.799  15.752   1.847 -0.4012  0.2164  0.0548
 8607W        W24741  14.372   8.666   2.061  0.1474  0.2022  0.0804
 8608W        W24742   4.823   8.509   9.895 -0.4534  0.1777  0.1035
 8609W        W24743  16.893   5.298  11.470 -0.0862  0.0614  0.0280
 8610W        W24744  17.055  12.946   4.670 -0.0443 -0.2784 -0.3591
 8611W        W24745  11.938   5.943   3.870 -0.0841  0.0786  0.1820
 8612W        W24746  13.313  13.815   2.110  0.1263 -0.0649 -0.1611
 8613W        W24747   1.586  14.769  14.614  0.2562  0.1542 -0.1366
 8614W        W24748  15.656  17.173  15.540  0.1091 -0.2146  0.0401
 8615W        W24749  15.782   9.582   2.390 -0.4174  0.0485 -0.0444
 8616W        W24750  10.827  15.924  14.374  0.0382 -0.1350  0.0245
 8617W        W24751  11.933   8.867  14.801  0.0787 -0.1157  0.4423
 8618W        W24752  12.994  17.085   4.449 -0.1823  0.3121  0.2720
 8619W        W24753   8.901   4.373  12.839 -0.0715 -0.0593  0.1547
 8620W        W24754   6.167  14.938   1.709  0.2589  0.0160  0.1170
 8621W        W24755  16.689  16.412  12.668 -0.0173  0.1089  0.0107
 8622W        W24756   4.668   5.127  11.418 -0.0271 -0.0460 -0.1259
 8623W        W24757   4.784   8.233   3.062 -0.0356 -0.1105  0.1561
 8624W        W24758  15.420  14.915  12.448 -0.1620  0.0788  0.0530
 8625W        W24759   1.851  11.782   5.144 -0.0228 -0.0704  0.2141
 8626W        W24760  10.520   8.483  12.596  0.0890  0.1455 -0.2586
 8627W        W24761   2.087   4.867  10.858 -0.1175 -0.1830 -0.0391
 8628W        W24762  11.948  18.130   3.992  0.1025  0.1456  0.3317
 8629W        W24763   3.380  18.295   0.315 -0.2294 -0.1386 -0.3189
 8630W        W24764  11.719   4.308   1.967 -0.0412 -0.0676 -0.1129
 8631W        W24765  13.827   8.350  12.741 -0.0234  0.3604  0.1690
 8632W        W24766   0.824  14.432   4.563  0.1383 -0.0855 -0.1374
 8633W        W24767  12.228   0.965   1.436 -0.3984  0.0925 -0.2532
 8634W        W24768   4.683  13.583  14.288 -0.1761 -0.1330  0.0102
 8635W        W24769  10.305  17.547   4.361 -0.0582  0.1595  0.1868
 8636W        W24770  16.598   7.447  11.139 -0.2321  0.1655 -0.4290
 8637W        W24771   0.431   6.039  13.094  0.0355 -0.1833 -0.2424
 8638W        W24772   2.094  17.092  15.302 -0.0693 -0.1227  0.2952
 8639W        W24773  18.015  15.040  12.255 -0.2603 -0.4109 -0.1950
 8640W        W24774  16.029   0.340   6.194 -0.3143  0.2662  0.4078
 8641W        W24775  15.219   4.662   1.522 -0.0986 -0.1997 -0.1410
 8642W        W24776   1.840  10.544   3.605  0.0980 -0.3547  0.2500
 8643W        W24777  12.292   5.328   3.460  0.1586 -0.1187 -0.2867
 8644W        W24778   7.552   2.818  13.409  0.0541 -0.3110  0.6620
 8645W        W24779  17.859  13.275  15.944  0.0311  0.0719  0.1728
 8646W        W24780   0.365   8.521  11.429  0.2871  0.1657 -0.4388
 8647W        W24781   8.714   0.793  12.267  0.1518  0.3529 -0.0744
 8648W        W24782   6.064   7.039  12.980  0.0934 -0.2949  0.1830
 8649W        W24783  13.220   4.579   0.779  0.0184  0.0048 -0.0665
 8650W        W24784   0.445  12.264   1.374 -0.0728  0.1263  0.1556
 8651W        W24785   8.293  16.579   2.086 -0.1298 -0.0468  0.3301
 8652W        W24786  17.856  13.788   0.596 -0.2744  0.0414  0.0804
 8653W        W24787   8.121   5.766   0.915  0.3131  0.1798 -0.2640
 8654W        W24788   7.785  17.181  14.479 -0.1582 -0.3296 -0.4608
 8655W        W24789   0.752   6.356  14.396  0.1875 -0.0590 -0.0150
 8656W        W24790   3.258  10.153   0.596  0.1907 -0.2219 -0.1691
 8657W        W24791   9.675  17.452   0.683 -0.1172 -0.1541 -0.0099
 8658W        W24792  13.615   2.507   3.871 -0.2065 -0.2432 -0.0632
 8659W        W24793  18.357  11.993  14.357  0.1113  0.1574  0.0743
 8660W        W24794   1.327  16.887   1.145 -0.3373  0.0382 -0.0112
 8661W        W24795   4.074  14.172  13.773 -0.0098 -0.0439  0.0747
 8662W        W24796  14.127   7.428   3.072 -0.3213  0.0417 -0.4347
 8663W        W24797   5.957   5.590   5.701 -0.0951 -0.2564 -0.0586
 8664W        W24798  18.194   2.234  14.103 -0.0761  0.3413  0.0667
 8665W        W24799  15.180  12.627  15.404  0.0207  0.1326  0.0526
 8666W        W24800   3.094  12.335  13.407 -0.0029  0.2003 -0.0593
 8667W        W24801   3.615   5.066  13.912 -0.0531  0.0541  0.1508
 8668W        W24802   2.136  17.850  15.479 -0.0073  0.0980  0.2949
 8669W        W24803   8.486  14.592  11.542 -0.1798  0.0216  0.1022
 8670W        W24804  15.279  10.749   0.934 -0.1770  0.1688 -0.0091
 8671W        W24805  14.894  12.081  12.269 -0.1714 -0.2092 -0.2017
 8672W        W24806   8.039  12.886  13.927  0.0856  0.0713  0.0962
 8673W        W24807  17.770   3.704  14.873  0.0821  0.1263 -0.0939
 8674W        W24808  17.818   2.693   0.817  0.0298 -0.0685 -0.1114
 8675W        W24809   7.336   5.603  11.964  0.0925 -0.0170 -0.0742
 8676W        W24810   0.904   6.950   0.085 -0.2900  0.0289 -0.1595
 8677W        W24811  12.678  10.277  12.653  0.1931  0.0126 -0.1163
 8678W        W24812   9.030   3.232   2.333 -0.1455 -0.0968 -0.1330
 8679W        W24813  14.426   0.167  15.871  0.0290 -0.0276  0.2979
 8680W        W24814  17.485   3.861  15.390  0.1815 -0.2379  0.1069
 8681W        W24815  15.130   5.350  15.387  0.1080 -0.1832  0.1085
 8682W        W24816   5.288  14.265  14.053 -0.2350  0.1702 -0.2910
 8683W        W24817  18.374   0.054   0.309 -0.3809  0.0703  0.1147
 8684W        W24818   6.970   7.613  14.246  0.1869 -0.1036 -0.0641
 8685W        W24819   9.129   1.039   4.917 -0.1830  0.1983  0.1636
 8686W        W24820   5.048  10.789   5.541  0.1260  0.0093  0.2726
 8687W        W24821   6.829   9.284   1.191 -0.0817  0.1301 -0.1290
 8688W        W24822   7.469  12.628   0.317 -0.1171 -0.0511  0.0093
 8689W        W24823   3.079  14.218   1.266 -0.0171  0.2054 -0.0449
 8690W        W24824   2.506  17.302   1.791  0.0413 -0.1590  0.3234
 8691W        W24825  15.404   1.716   4.249 -0.1014  0.1892  0.2499
 8692W        W24826   2.625  17.977   0.183 -0.0097 -0.1933 -0.1678
 8693W        W24827  12.725   8.790  11.567 -0.0341  0.1340 -0.0246
 8694W        W24828   6.207   7.498   3.394  0.2603 -0.1469  0.2062
 8695W        W24829   0.740   3.033  12.981 -0.1350  0.1377  0.3349
 8696W        W24830   1.207  10.280   2.551 -0.0103  0.2268  0.1031
 8697W        W24831  13.704  12.382  12.928  0.0089 -0.2843 -0.0115
 8698W        W24832  15.267   2.764   1.344  0.1856  0.0063  0.3307
 8699W        W24833  15.050   2.375  11.984 -0.1615 -0.1017 -0.0597
 8700W        W24834  14.492   6.468   5.444  0.0724  0.0153 -0.1554
 8701W        W24835   3.206  12.849   4.444  0.2392  0.1076  0.0225
 8702W        W24836  17.425  16.695  13.985 -0.2128  0.1665 -0.0161
 8703W        W24837   2.811   2.792  13.169  0.1179 -0.1832 -0.1886
 8704W        W24838   1.078   6.089   3.246 -0.1740  0.0668 -0.0250
 8705W        W24839  15.722  14.325  11.654 -0.1720 -0.3408 -0.1329
 8706W        W24840   8.180  15.739   1.974 -0.2151 -0.2930  0.0868
 8707W        W24841  13.385   4.550   6.350  0.2141 -0.2229  0.1117
 8708W        W24842  15.532  18.251   0.380  0.0108  0.2821  0.1229
 8709W        W24843  10.797  15.429   1.938 -0.0872  0.1203  0.1676
 8710W        W24844  11.377   3.042   1.206  0.0708  0.0457  0.0467
 8711W        W24845  15.114   8.283  13.488 -0.0063  0.0663  0.2531
 8712W        W24846  15.843   4.816  12.096 -0.3546  0.3924  0.0430
 8713W        W24847   3.955  12.102   1.076  0.1571 -0.0627  0.0263
 8714W        W24848  15.545  15.334   5.271  0.1236  0.1210  0.0847
 8715W        W24849  13.121   1.162  15.332  0.0916  0.1040  0.0633
 8716W        W24850  11.161   2.269   0.442 -0.0514 -0.0249  0.2439
 8717W        W24851   2.318  10.511   3.779  0.2414  0.0438 -0.3727
 8718W        W24852  12.769   8.803  15.467 -0.2506  0.0590  0.0409
 8719W        W24853   3.611  11.564  10.373  0.2846 -0.0200  0.3355
 8720W        W24854  15.763  13.188   0.248  0.4183  0.0364 -0.2372
 8721W        W24855   1.147  10.900   3.879 -0.2173 -0.3634  0.1416
 8722W        W24856  12.353  15.743  11.565  0.2107  0.2302 -0.0588
 8723W        W24857   9.868   9.548   3.088  0.0798  0.4877  0.1437
 8724W        W24858   2.346  12.097   5.549 -0.1168 -0.3335 -0.0904
 8725W        W24859   6.193   4.572   5.639 -0.2622  0.1541  0.1249
 8726W        W24860   3.140   5.180   3.608  0.1756 -0.4412 -0.1242
 8727W        W24861   4.857   2.812   3.593 -0.0106  0.0527  0.1084
 8728W        W24862   1.237   2.982   2.867 -0.1668  0.0408 -0.3407
 8729W        W24863   7.788   2.736   3.050 -0.2796 -0.1976  0.1595
 8730W        W24864  15.598   6.577  12.621  0.1719  0.0338 -0.0471
 8731W        W24865   3.910  11.489  13.395  0.0123  0.0269 -0.1723
 8732W        W24866   9.605   7.829   5.318 -0.1611 -0.6652  0.0837
 8733W        W24867  18.141  13.033  10.475 -0.1967 -0.0278 -0.3643
 8734W        W24868  11.022  14.545  12.926 -0.0499  0.3074 -0.1581
 8735W        W24869   0.234  18.326  13.691  0.1743 -0.0060 -0.0314
 8736W        W24870   6.864  13.231   1.477  0.0112 -0.0755  0.1922
 8737W        W24871   6.326  13.235  13.047 -0.3514 -0.1679 -0.1943
 8738W        W24872   6.410   1.328   4.478 -0.1703  0.0617 -0.2234
 8739W        W24873   9.119  14.821  15.616  0.1450  0.2728  0.1117
 8740W        W24874  12.440  16.396   1.136 -0.2920  0.1953  0.2522
 8741W        W24875  11.321   0.032  15.530  0.1091  0.1422 -0.2179
 8742W        W24876   9.124  16.531   5.643  0.2699  0.0010  0.3544
 8743W        W24877   5.806   8.584   1.700  0.0411 -0.1490 -0.0182
 8744W        W24878  11.192   3.172   3.368  0.2181 -0.0056  0.2248
 8745W        W24879   4.374  13.722   4.829  0.1201  0.2277 -0.2235
 8746W        W24880   6.461   0.244  11.837  0.2509  0.0006 -0.1143
 8747W        W24881  15.674   8.487   3.646  0.0491 -0.0947  0.0526
 8748W        W24882  12.545  13.811  15.996 -0.1222 -0.2890  0.1663
 8749W        W24883   1.937   0.929  12.469 -0.1138 -0.1043 -0.1082
 8750W        W24884   8.960   3.738   4.023  0.2123 -0.0994 -0.0943
 8751W        W24885   1.399  15.612   5.343  0.0962 -0.2477  0.0577
 8752W        W24886  10.950  12.145   1.184 -0.1872  0.0385  0.3285
 8753W        W24887  15.791   9.989  12.466  0.1890  0.2140 -0.2207
 8754W        W24888  15.868   8.978  14.972 -0.0816 -0.0782  0.2634
 8755W        W24889   1.158   6.795  10.337 -0.1860  0.0716  0.1075
 8756W        W24890  12.250   5.592   1.993  0.1147  0.4060 -0.2405
 8757W        W24891  10.924  14.554   1.104 -0.1055 -0.1502  0.0775
 8758W        W24892   5.025  12.039  10.542  0.1373  0.2493 -0.0185
 8759W        W24893  16.351   4.632   2.051 -0.1595  0.0847  0.0402
 8760W        W24894  13.883  11.505  11.767 -0.1588  0.0500 -0.4090
 8761W        W24895   6.884   4.488  11.799 -0.1135 -0.0398 -0.0758
 8762W        W24896   9.968  11.712  15.594  0.0251  0.1288  0.1854
 8763W        W24897  11.165   2.351   2.126  0.0340  0.0699 -0.0973
 8764W        W24898   3.338   3.498  12.456  0.1728 -0.3223 -0.2479
 8765W        W24899   5.148   4.366   4.375 -0.0849 -0.0069 -0.0036
 8766W        W24900   6.931  11.310  11.399 -0.0660  0.1213  0.1300
 8767W        W24901  10.120   7.520   6.029 -0.1725  0.1554 -0.0385
 8768W        W24902   7.927   0.058  10.469 -0.1215  0.0001  0.2089
 8769W        W24903  16.721  14.157   0.027  0.0349  0.0737 -0.0501
 8770W        W24904   5.649  14.073  14.370  0.1030 -0.2202 -0.2042
 8771W        W24905  11.239  13.781  15.523  0.2274 -0.2564 -0.1573
 8772W        W24906  11.214   4.442  13.772 -0.0402  0.1590 -0.3408
 8773W        W24907  17.384  13.299  15.823  0.4030 -0.1494 -0.0902
 8774W        W24908   9.161   1.112   2.154 -0.1013 -0.0791 -0.2637
 8775W        W24909  12.020   7.529  13.922  0.0758 -0.1691 -0.1823
 8776W        W24910  13.012  16.441  14.728 -0.3050 -0.0580 -0.2321
 8777W        W24911   4.499   7.058   0.644 -0.0541 -0.0156  0.0707
 8778W        W24912   1.448   3.094   1.099  0.2957 -0.0843  0.0558
 8779W        W24913   1.726   0.508  12.041  0.0258 -0.1020 -0.4539
 8780W        W24914   3.395   6.229  14.998  0.1323  0.0621  0.0461
 8781W        W24915   0.985   6.516  11.787  0.1189  0.2227 -0.0885
 8782W        W24916   3.103   2.176   4.398 -0.1602 -0.0084  0.3630
 8783W        W24917   5.986  15.277   1.246  0.2018  0.0325 -0.0941
 8784W        W24918  10.234  14.058   2.436  0.0080 -0.2728 -0.4635
 8785W        W24919   9.006  12.650  14.248  0.2398  0.0649 -0.3332
 8786W        W24920  17.324  13.618   0.626 -0.4611 -0.1412 -0.0028
 8787W        W24921   1.821   9.908  11.507 -0.1573  0.0743  0.1452
 8788W        W24922   1.529  14.200   1.558  0.0632 -0.1644 -0.0653
 8789W        W24923  12.255   9.858   3.548  0.5079  0.0246 -0.0177
 8790W        W24924   8.467  17.185   4.885  0.1136 -0.0227  0.1606
 8791W        W24925  14.176   3.438  15.134 -0.0334  0.0751 -0.1958
 8792W        W24926   8.889  16.454  15.444 -0.2971  0.1041  0.1781
 8793W        W24927  15.064  15.479  14.044 -0.2241  0.0970  0.0303
 8794W        W24928   2.127   2.049   4.092 -0.0904 -0.0420 -0.2777
 8795W        W24929   5.690   1.621   5.044 -0.0546 -0.4114 -0.2497
 8796W        W24930   7.509  13.045   5.138 -0.0524  0.0311  0.1300
 8797W        W24931  13.083  15.448   3.556  0.1853  0.0583  0.0787
 8798W        W24932   8.507  10.775  13.683 -0.1901 -0.0175  0.0913
 8799W        W24933   0.885  12.615   2.541 -0.2909  0.1670  0.0371
 8800W        W24934  11.866  12.640  14.083 -0.2126 -0.0486 -0.1225
 8801W        W24935  10.292   3.286   5.865 -0.2561 -0.0474 -0.1425
 8802W        W24936   3.669  12.533   2.538  0.1100 -0.3605  0.1857
 8803W        W24937  18.208   1.121  14.114 -0.0937  0.3986 -0.2191
 8804W        W24938  15.899   6.799  14.504 -0.1476  0.0979 -0.0706
 8805W        W24939  16.062  13.103   2.434  0.1274 -0.2138 -0.0459
 8806W        W24940  10.631   1.907  14.174  0.1482 -0.0425  0.1669
 8807W        W24941   2.022   3.731  13.490  0.0470 -0.0344 -0.1856
 8808W        W24942  10.520  10.308   5.704  0.2714  0.0333 -0.0251
 8809W        W24943  11.170   7.698  14.148  0.0866 -0.0399  0.2017
 8810W        W24944  12.410   8.147   1.817  0.2130  0.0571  0.2562
 8811W        W24945   4.075   6.149   1.824 -0.1929 -0.0320 -0.2496
 8812W        W24946   2.752  10.700   2.999 -0.2288  0.2440 -0.0925
 8813W        W24947   5.671   3.182  14.629  0.0820 -0.0536  0.0141
 8814W        W24948  18.279  11.155  15.092  0.0852 -0.0239 -0.1368
 8815W        W24949   8.458  17.432  13.570 -0.0172 -0.0780  0.2371
 8816W        W24950   2.018   5.578  14.879 -0.2290  0.1140  0.1518
 8817W        W24951   4.346   2.674   1.937  0.2719 -0.1172 -0.0543
 8818W        W24952  13.220  16.221  15.572 -0.1162  0.1260  0.0512
 8819W        W24953  18.375   6.481  14.034  0.0083  0.0905  0.0605
 8820W        W24954  10.309  17.842  12.976 -0.1523 -0.0320 -0.0773
 8821W        W24955  17.795  11.073  10.784  0.0385  0.1264  0.3052
 8822W        W24956   7.324   4.004   5.168 -0.2391 -0.1416 -0.2649
 8823W        W24957   6.863   6.049  13.273 -0.1776 -0.2885  0.2220
 8824W        W24958  16.844   9.205  11.880 -0.0230  0.1072  0.1897
 8825W        W24959   4.100  12.732   2.428  0.0464  0.0408 -0.0401
 8826W        W24960   0.919   1.835   1.418  0.4228 -0.0240 -0.0559
 8827W        W24961  14.651  12.364   6.088 -0.3309  0.2065 -0.0060
 8828W        W24962  16.564  14.329   0.964 -0.1247  0.3651  0.0571
 8829W        W24963  14.949  11.049  13.090 -0.1940 -0.2439  0.0307
 8830W        W24964   6.247   3.074  11.996  0.1863  0.1243  0.1807
 8831W        W24965   4.587  12.040  13.391  0.2587  0.0608 -0.1205
 8832W        W24966  12.954  10.014   0.868  0.1967  0.2296 -0.0953
 8833W        W24967  10.113  12.803   2.894  0.1626  0.3640 -0.5267
 8834W        W24968   7.275  16.559  13.424 -0.3016 -0.0078  0.2729
 8835W        W24969  16.494  15.154  12.790  0.1177  0.2244  0.2030
 8836W        W24970   7.541  16.248   1.650  0.1701 -0.4185  0.1388
 8837W        W24971   6.020   9.059   0.295 -0.0204  0.1210 -0.2956
 8838W        W24972   0.739  10.412  12.829 -0.4178 -0.1899 -0.0154
 8839W        W24973  13.744  12.074  13.310  0.1997  0.0726  0.2265
 8840W        W24974   6.738   7.896   2.600 -0.0967 -0.2098 -0.0745
 8841W        W24975  16.265  13.364   4.167 -0.3474  0.2271 -0.1344
 8842W        W24976   8.569   8.627   0.711  0.2741  0.5374  0.1661
 8843W        W24977  16.451   2.006   3.333 -0.0902 -0.0494 -0.4278
 8844W        W24978   6.777  18.320   2.343 -0.1501  0.1732 -0.2144
 8845W        W24979   1.961  11.598  14.000 -0.3890 -0.0972 -0.1576
 8846W        W24980   4.889   4.350   2.181  0.2260 -0.0352  0.0722
 8847W        W24981  16.284  16.151  11.192  0.1005 -0.2656  0.2160
 8848W        W24982  14.107  10.334   5.198 -0.0085  0.0160 -0.3102
 8849W        W24983  16.296  14.777  10.799 -0.2028 -0.0332 -0.1569
 8850W        W24984  17.402   3.394  15.066  0.1502 -0.0511  0.4492
 8851W        W24985  17.384   0.921   4.974 -0.1681 -0.0218 -0.0995
 8852W        W24986   7.331  11.817  15.880 -0.0733  0.2850 -0.0297
 8853W        W24987   3.106  17.244   3.920 -0.0259 -0.1286 -0.2497
 8854W        W24988  14.742  17.902   1.839 -0.1476 -0.1323  0.2320
 8855W        W24989   3.081  13.620   2.089  0.3281 -0.0378  0.2551
 8856W        W24990   8.328   0.808  14.040 -0.3591 -0.2486  0.2305
 8857W        W24991  14.980  13.635   0.505 -0.0222  0.1689 -0.0114
 8858W        W24992   2.010  11.321   1.028  0.0638  0.2264  0.4717
 8859W        W24993  10.267   2.847  13.975  0.2532  0.0799 -0.2232
 8860W        W24994   7.286  10.218  15.647  0.3919  0.1426  0.1820
 8861W        W24995  13.552   0.872   1.669  0.0696  0.0210 -0.1105
 8862W        W24996  10.966   5.572  12.447 -0.0675 -0.0216  0.0640
 8863W        W24997   6.654   0.891  15.940 -0.1646  0.0583 -0.3284
 8864W        W24998  17.334   5.464  13.648  0.2816  0.4367  0.0792
 8865W        W24999   9.002   9.336  16.064 -0.0695  0.2209  0.0064
 8866W        W25000  11.388  16.250  15.648 -0.0343  0.0199  0.2538
 8867W        W25001   2.862  11.323   5.589 -0.1827 -0.1337  0.3843
 8868W        W25002  14.896  14.132  14.762 -0.1005 -0.0799  0.2242
 8869W        W25003   1.324  15.046  13.768  0.3607  0.1673  0.2481
 8870W        W25004  13.622  16.886   3.654  0.0234 -0.0178  0.3071
 8871W        W25005   6.495   9.778   1.374 -0.0495 -0.1506  0.3702
 8872W        W25006  14.742  11.509   5.210  0.0204  0.1518  0.0481
 8873W        W25007  13.949   5.491  13.653 -0.1988 -0.1881  0.2558
 8874W        W25008   4.487   2.303  13.572 -0.0097 -0.1409  0.0284
 8875W        W25009   9.370   8.715  14.638  0.1547 -0.1052  0.1568
 8876W        W25010  15.835  10.629  14.165 -0.1140  0.1635  0.0157
 8877W        W25011   5.321  17.717  13.794 -0.1502 -0.1864 -0.3012
 8878W        W25012  16.415  15.034   5.328 -0.3625 -0.3068  0.3211
 8879W        W25013   7.032  10.975  13.204 -0.0718 -0.0185 -0.0398
 8880W        W25014   4.356   5.580  14.403 -0.0052 -0.0024 -0.0625
 8881W        W25015  15.794   9.725   5.157  0.0710 -0.0736 -0.0414
 8882W        W25016   6.251  14.142  15.280  0.1673  0.1958 -0.0558
 8883W        W25017  12.081   5.141  14.490 -0.1975  0.1401 -0.2463
 8884W        W25018  12.341   6.023   4.248 -0.1304 -0.0613 -0.2128
 8885W        W25019   1.514   8.598  11.154 -0.0917  0.0030  0.1694
 8886W        W25020   1.514   5.165   4.043 -0.2595  0.2483 -0.0512
 8887W        W25021   2.986  17.239   4.357  0.1705 -0.0074 -0.0773
 8888W        W25022  18.375   5.323  14.550  0.1702  0.5096 -0.0683
 8889W        W25023   0.989  10.581  14.945 -0.4448 -0.3110 -0.0408
 8890W        W25024  14.052  13.230   3.388 -0.0015 -0.0442  0.2598
 8891W        W25025   8.729  16.554  13.022 -0.0186  0.0624 -0.1323
 8892W        W25026  18.116  10.811   4.587 -0.1154  0.2207 -0.1832
 8893W        W25027   9.987   0.614   2.722  0.1666 -0.0075 -0.0783
 8894W        W25028  11.401   4.819   0.787 -0.2457  0.1666  0.1001
 8895W        W25029   5.471  10.614  13.495 -0.0358 -0.2264 -0.2622
 8896W        W25030  16.515  17.552  13.540  0.2794  0.0954 -0.3069
 8897W        W25031   8.209   2.174  12.948  0.1406  0.2067  0.1626
 8898W        W25032   1.008   1.952   2.460  0.3812  0.1298  0.0679
 8899W        W25033  18.033  16.073   4.960  0.2227  0.0930 -0.2095
 8900W        W25034   0.482   9.840   0.346 -0.1509  0.1204 -0.1281
 8901W        W25035   0.366  15.144  16.013 -0.1075 -0.2129  0.0686
 8902W        W25036   2.330  12.230   2.889 -0.3014 -0.0492  0.0754
 8903W        W25037  16.671  10.190  15.950  0.1202 -0.1906 -0.0222
 8904W        W25038   5.817   1.200  13.394  0.1482 -0.2649  0.0244
 8905W        W25039  14.615   1.906   4.859  0.0944  0.1439 -0.0414
 8906W        W25040   3.226   3.880   2.151 -0.1364  0.3309  0.0701
 8907W        W25041   4.044   6.484  11.613 -0.1946  0.1356 -0.1226
 8908W        W25042   5.058   8.854   0.474  0.4688 -0.1081  0.1380
 8909W        W25043   8.907   9.268  11.536  0.0366 -0.2705  0.3327
 8910W        W25044   1.317  11.405   3.494 -0.2397 -0.0926  0.0037
 8911W        W25045  17.787  13.769   1.652 -0.3660 -0.2203 -0.3232
 8912W        W25046   6.552  11.730   3.550  0.0120  0.0245 -0.2876
 8913W        W25047   2.114   2.103   0.127  0.2443 -0.2188  0.0358
 8914W        W25048   3.656  16.085  10.780  0.1433 -0.1463 -0.0910
 8915W        W25049  10.968   8.895  10.683 -0.0459 -0.0320 -0.0884
 8916W        W25050   6.644  16.389   2.036 -0.0480 -0.1860  0.0016
 8917W        W25051   6.607  16.222  16.063  0.1151 -0.2887 -0.3190
 8918W        W25052   2.561  11.395  10.577 -0.2768  0.1384  0.3077
 8919W        W25053  17.706   7.913   2.084  0.0030  0.0709 -0.0345
 8920W        W25054  11.903   8.193   1.862 -0.0719  0.1217  0.1352
 8921W        W25055  12.119   2.028   5.378 -0.0349  0.3857 -0.0349
 8922W        W25056  15.782   0.264  13.695  0.2125  0.1179 -0.0354
 8923W        W25057  17.528  17.722  14.946  0.0199  0.1309  0.2748
 8924W        W25058   9.110   1.128   4.411 -0.0050  0.0289  0.1884
 8925W        W25059  12.025   5.759  11.136 -0.0297 -0.3824 -0.0916
 8926W        W25060   3.940  18.185  14.922 -0.0043 -0.3788  0.3494
 8927W        W25061   1.980  15.901  11.020 -0.1831  0.0978 -0.0914
 8928W        W25062   4.885   6.871  14.954 -0.3350 -0.1347  0.0187
 8929W        W25063  16.085   8.606   4.571 -0.4352 -0.0276  0.0690
 8930W        W25064  17.193  10.154  12.034  0.0352  0.2416 -0.0173
 8931W        W25065  14.677  16.202   2.350  0.0798 -0.1920  0.3344
 8932W        W25066   5.382   4.000   0.087  0.1772  0.1278 -0.0252
 8933W        W25067   6.964   2.922   2.069  0.1563  0.0139 -0.0995
 8934W        W25068  15.651   8.287  14.029 -0.1683 -0.1144  0.0842
 8935W        W25069   2.605  18.250   4.582  0.1579  0.0607  0.1554
 8936W        W25070   7.240   0.894   1.526 -0.1580  0.0267 -0.0941
 8937W        W25071  15.409   2.699   4.153 -0.0646 -0.0054  0.2152
 8938W        W25072   0.087   0.201   4.704 -0.3285  0.2784 -0.1997
 8939W        W25073  15.110  15.268  13.094  0.3283 -0.1088 -0.1985
 8940W        W25074   6.774  17.493   1.107  0.1891  0.1035 -0.0592
 8941W        W25075   3.581   1.054   3.753  0.1425 -0.1629 -0.1024
 8942W        W25076  10.844   0.044  11.824  0.1988 -0.0825  0.3142
 8943W        W25077   8.445   5.055  14.545 -0.2729  0.0134  0.2352
 8944W        W25078   7.879  13.334   3.407  0.0710 -0.1511 -0.0658
 8945W        W25079   8.156   9.357   1.878  0.0455 -0.1285  0.1308
 8946W        W25080  18.174   0.084  15.587 -0.3272  0.1975  0.1513
 8947W        W25081   7.902   2.811   1.758  0.0062  0.2585 -0.1019
 8948W        W25082  18.316  16.473   2.057 -0.0937 -0.0332 -0.0327
 8949W        W25083   6.498   5.852   0.806  0.1363 -0.1300 -0.2895
 8950W        W25084   6.455  11.353  11.237 -0.0310 -0.2176 -0.1040
 8951W        W25085   7.627  17.070  15.754  0.0818  0.3396  0.0970
 8952W        W25086  13.665   5.638   2.184 -0.1768 -0.1336  0.2069
 8953W        W25087  17.809   6.290  16.001  0.1436 -0.0753 -0.0015
 8954W        W25088   4.828  13.511   4.810 -0.0025 -0.0499 -0.0557
 8955W        W25089   5.819   2.430   5.444 -0.0064  0.1540  0.0265
 8956W        W25090   1.753   4.604  13.914  0.0358  0.0127  0.1313
 8957W        W25091  18.211  14.685  12.880 -0.2807 -0.2476  0.1318
 8958W        W25092   8.609  11.012   3.337 -0.2493 -0.2754 -0.0681
 8959W        W25093  13.796  17.477   4.728  0.0263  0.1596 -0.2066
 8960W        W25094   9.943   8.133   4.322 -0.1748  0.0735 -0.2125
 8961W        W25095   7.787  13.512  12.946  0.0404 -0.0202  0.1170
 8962W        W25096   8.645   4.819  12.603 -0.3464 -0.0291  0.0687
 8963W        W25097   9.732   1.153  14.534 -0.2455 -0.0844  0.0326
 8964W        W25098   0.129  16.051   1.979 -0.0077 -0.0571 -0.0681
 8965W        W25099  15.305   4.962  14.446  0.4022 -0.1397 -0.0826
 8966W        W25100   0.647   3.848   2.332  0.4110 -0.0400 -0.0587
 8967W        W25101   5.166  10.930   1.882  0.0042 -0.0658 -0.3466
 8968W        W25102   6.154  11.204  14.476  0.3754  0.3295 -0.1988
 8969W        W25103   6.532  14.877   2.392  0.0499  0.1650  0.1316
 8970W        W25104   3.217  14.111  13.540 -0.0943  0.2175 -0.0016
 8971W        W25105   5.138   5.694  12.990  0.1515  0.0719  0.1270
 8972W        W25106   4.004  15.449  11.504 -0.1615  0.1616  0.0212
 8973W        W25107   5.042  11.923  12.006 -0.0338  0.0947 -0.2833
 8974W        W25108   2.110  16.114  14.346  0.2575 -0.1434  0.0263
 8975W        W25109   4.121   0.284   0.560 -0.3246 -0.2989 -0.3370
 8976W        W25110   1.125   5.021  10.821  0.0917  0.0038  0.1466
 8977W        W25111  12.326   9.927  14.590  0.0630 -0.1633 -0.0579
 8978W        W25112  14.424  10.266  12.801  0.2564 -0.1307  0.1501
 8979W        W25113  11.937   9.294   1.088 -0.1531 -0.0371 -0.0706
 8980W        W25114   3.493   6.582   4.175  0.2495 -0.0370  0.2583
 8981W        W25115  11.279   6.115   2.172 -0.2497  0.1520 -0.0374
 8982W        W25116  14.068   1.231  11.666  0.1939 -0.2118 -0.3770
 8983W        W25117   2.579   5.089  10.796 -0.0404  0.1673  0.0906
 8984W        W25118   2.147   0.063   5.682 -0.0103 -0.1573 -0.3146
 8985W        W25119  11.041   9.886   0.526  0.1812  0.0765 -0.1279
 8986W        W25120  11.697   7.647  15.367 -0.0278 -0.0673  0.1416
 8987W        W25121   0.680  13.623   1.732 -0.0521  0.1908  0.2027
 8988W        W25122  15.835  12.371   3.634  0.2455 -0.3028 -0.0754
 8989W        W25123  18.252   9.419  13.494 -0.1119 -0.1772 -0.2293
 8990W        W25124  15.301   9.099   1.315  0.2098 -0.0037 -0.0363
 8991W        W25125  10.546  16.258   2.965  0.1502  0.3475  0.0944
 8992W        W25126   0.415  15.415   3.010 -0.3513  0.2244  0.0386
 8993W        W25127  12.747   5.086   1.441  0.1997 -0.0409  0.2393
 8994W        W25128   0.758   6.166  13.931  0.0474  0.0339 -0.2440
 8995W        W25129  16.744  14.907   4.444 -0.1076  0.1006 -0.0686
 8996W        W25130  11.812  13.219   4.943 -0.2011  0.0076 -0.0442
 8997W        W25131  16.268   4.854   4.998 -0.1170  0.0639  0.3124
 8998W        W25132  17.243  10.667   2.172  0.2012  0.2183 -0.0837
 8999W        W25133   3.797  13.604  13.081  0.2331 -0.3225  0.0079
 9000W        W25134   8.896  16.959   1.420  0.2167 -0.0538  0.2016
 9001W        W25135  10.211  14.185   0.456  0.3204  0.0096 -0.0871
 9002W        W25136  12.980  13.301  12.946 -0.2936 -0.0631 -0.1904
 9003W        W25137   8.577   7.957  11.698  0.2765 -0.2710 -0.1041
 9004W        W25138  11.094  15.043   2.103 -0.1716  0.1386 -0.0468
 9005W        W25139  17.052  13.814  14.476  0.1085  0.1737 -0.1586
 9006W        W25140  10.839  14.501  15.134  0.0750  0.2247  0.1477
 9007W        W25141   9.020   0.575  15.401 -0.0431  0.0367  0.0290
 9008W        W25142  17.175   0.206  13.093  0.2071  0.1106 -0.0025
 9009W        W25143   8.094  10.270  12.508  0.1737 -0.0062  0.0685
 9010W        W25144  12.184   3.077   1.819 -0.0875  0.1624 -0.1253
 9011W        W25145  11.267   8.310  11.526 -0.1127  0.0846  0.0337
 9012W        W25146   5.078  18.061  14.111  0.1971 -0.1465  0.0176
 9013W        W25147  16.841  18.213  16.066 -0.1375 -0.0284  0.1841
 9014W        W25148  16.619   4.026  12.321  0.1100  0.0259 -0.0029
 9015W        W25149   6.264  12.104  13.398  0.0599 -0.0756 -0.0106
 9016W        W25150   8.949   6.393   1.289  0.0637  0.0983 -0.0563
 9017W        W25151  11.349   3.866  14.811  0.0051 -0.0501 -0.3054
 9018W        W25152   1.702   6.675  14.802  0.1188  0.0746 -0.2041
 9019W        W25153   2.527  10.397  15.634 -0.0832 -0.2904 -0.3623
 9020W        W25154   7.129  10.063   2.582  0.0864 -0.0555  0.1317
 9021W        W25155   3.227   3.057   1.591  0.0996 -0.0721 -0.2320
 9022W        W25156   0.864   3.048   2.047  0.0447 -0.1496  0.4797
 9023W        W25157  11.818   2.416  10.873  0.2836 -0.0730 -0.0241
 9024W        W25158   7.912   9.340   1.411  0.1397  0.2367 -0.0450
 9025W        W25159   1.049  16.337  10.740 -0.1620 -0.0806  0.0931
 9026W        W25160   1.075  13.241   0.400  0.1852 -0.2143  0.1143
 9027W        W25161   8.979   3.610   1.751 -0.2569 -0.3233 -0.2243
 9028W        W25162   9.224   1.320  14.799  0.1230 -0.0535 -0.0003
 9029W        W25163  18.074  13.799  11.524 -0.2702  0.0878 -0.3462
 9030W        W25164  10.438   4.362   2.194 -0.0903 -0.0688  0.1582
 9031W        W25165  17.327   4.107   2.665  0.2730  0.0200 -0.1338
 9032W        W25166   2.102   0.575   2.084 -0.0522  0.1368 -0.0901
 9033W        W25167  10.838   5.646   5.426  0.0828  0.1632  0.1706
 9034W        W25168   0.203   4.767  13.152 -0.0473 -0.3053 -0.0399
 9035W        W25169   6.891  15.823  13.011  0.0469  0.1455  0.2527
 9036W        W25170  15.138   9.910  13.755 -0.3111 -0.1832 -0.2227
 9037W        W25171  14.020  15.240   2.840 -0.0390  0.0173  0.0334
 9038W        W25172   6.169   4.443   1.385  0.0925  0.1350  0.1005
 9039W        W25173   3.956  11.105  11.816  0.1678 -0.0761 -0.3336
 9040W        W25174  10.394   8.836   2.414 -0.1576 -0.0185 -0.0496
 9041W        W25175   9.669  11.074  11.894 -0.1050 -0.2629  0.2850
 9042W        W25176  11.681   3.614   1.228  0.1615 -0.2220 -0.2936
 9043W        W25177  16.910   3.548   1.303 -0.0773  0.1747  0.0181
 9044W        W25178   3.916  12.946  10.510  0.0901 -0.3424 -0.1520
 9045W        W25179  13.592  14.035  11.773  0.0717 -0.0291 -0.3303
 9046W        W25180   2.026   0.787   4.274  0.1956  0.2155  0.0909
 9047W        W25181   4.608   3.975  14.911 -0.0270  0.1441  0.2850
 9048W        W25182  11.543   0.515  11.520  0.2116  0.3221 -0.0718
 9049W        W25183  15.836   3.090   5.356 -0.0205 -0.2231 -0.3979
 9050W        W25184   4.749   3.076  12.149 -0.2885  0.1293  0.1351
 9051W        W25185   1.639   6.635  10.034  0.1507 -0.0074 -0.0496
 9052W        W25186   6.103   0.361   2.858 -0.3264 -0.1352 -0.1816
 9053W        W25187   7.303  18.345  15.658  0.2864 -0.3136  0.3118
 9054W        W25188  14.408   0.602  15.656  0.1002 -0.0083  0.2489
 9055W        W25189   6.161  12.351  11.332  0.0260 -0.1203  0.0785
 9056W        W25190   6.952  14.200  11.815  0.1826 -0.5134  0.0380
 9057W        W25191   1.830   1.054  15.187 -0.1797 -0.2802 -0.5115
 9058W        W25192   3.506  17.530  13.315  0.2084  0.1271 -0.0354
 9059W        W25193  14.542  14.223   2.148 -0.2595 -0.2066  0.0381
 9060W        W25194  14.302  12.276  11.282  0.0427 -0.0103  0.2753
 9061W        W25195  13.225  16.357  12.956  0.0555  0.3194 -0.0918
 9062W        W25196   2.599   9.891   2.158  0.0923 -0.2065 -0.2511
 9063W        W25197   8.095  14.622  14.767 -0.1572  0.3129 -0.0135
 9064W        W25198   5.872  17.401   4.925 -0.0192 -0.4845 -0.1396
 9065W        W25199  12.104  17.507   3.778 -0.1854  0.2457 -0.0672
 9066W        W25200   4.300   3.554  14.538 -0.1403  0.0277  0.0055
 9067W        W25201   7.602   3.787   2.172 -0.1490 -0.1305  0.0164
 9068W        W25202  14.380   1.484  11.294 -0.3238  0.1374  0.0940
 9069W        W25203   7.753   2.983  12.176 -0.0886 -0.1398  0.1890
 9070W        W25204  14.122  10.570   3.861  0.0831 -0.2138  0.0077
 9071W        W25205   5.608  16.531  10.488  0.1896  0.3019  0.1930
 9072W        W25206  16.685  12.507   4.425 -0.1332  0.1140 -0.1102
 9073W        W25207  17.045   1.968  11.062  0.1127  0.1827  0.3680
 9074W        W25208  17.695   9.123  11.373  0.1269  0.0555  0.0464
 9075W        W25209   1.855  16.153  13.279 -0.0223  0.1553 -0.3010
 9076W        W25210  18.233  15.609   3.180 -0.1491  0.3412  0.0402
 9077W        W25211   4.997   2.990  15.668 -0.1673  0.0465  0.1118
 9078W        W25212  13.224   1.310   1.566  0.0983 -0.2534  0.2559
 9079W        W25213  14.178   5.811   4.458 -0.1765 -0.0816 -0.0985
 9080W        W25214   6.924   1.643  13.635 -0.1841  0.0078 -0.1110
 9081W        W25215  18.393  14.273  14.469 -0.0182  0.1894 -0.0350
 9082W        W25216   4.483  14.078   4.357 -0.3627 -0.0628  0.1510
 9083W        W25217  13.736  16.188   2.215  0.4562  0.0360 -0.0488
 9084W        W25218   0.999   6.327  12.441  0.1194  0.0933  0.0944
 9085W        W25219   4.921   2.526   5.191 -0.1476  0.1014 -0.0949
 9086W        W25220  14.795  10.172   0.970  0.3089 -0.1548  0.0670
 9087W        W25221   4.545   9.070  11.448 -0.3514 -0.3158  0.0514
 9088W        W25222  17.890   4.915   1.382 -0.0784 -0.1736 -0.0937
 9089W        W25223   9.319   7.703   1.927 -0.0208 -0.0899 -0.2019
 9090W        W25224   3.839   9.077  13.516  0.1680  0.0430  0.1309
 9091W        W25225  14.966  17.566  13.522 -0.1143  0.3136 -0.2246
 9092W        W25226  13.787   2.024  13.720 -0.0830  0.0654  0.1323
 9093W        W25227  16.044   5.147  13.756  0.2142 -0.2460  0.0699
 9094W        W25228   8.459   5.375  13.540 -0.1692 -0.0114 -0.0897
 9095W        W25229   6.960  11.644  14.071 -0.1329 -0.1805  0.0061
 9096W        W25230   6.074  18.195  14.491  0.1915  0.0012  0.1123
 9097W        W25231  10.278  11.901   5.427 -0.0967  0.1547 -0.1118
 9098W        W25232   6.598  13.513   3.868 -0.2166 -0.0089 -0.1565
 9099W        W25233  16.808   5.826  11.945  0.3201 -0.0868 -0.3505
 9100W        W25234   5.806  10.901   4.432  0.0947  0.0822 -0.1464
 9101W        W25235  15.806  11.593   4.388  0.2714  0.3082 -0.1184
 9102W        W25236   2.015  13.168   1.935  0.2730  0.1216  0.1722
 9103W        W25237  10.697  12.857   0.581 -0.0797  0.2693 -0.1418
 9104W        W25238  14.981   3.361   3.445  0.3058  0.2132  0.2605
 9105W        W25239   7.067  12.181  11.340  0.2554 -0.2442  0.2605
 9106W        W25240   6.679   5.930   5.582 -0.0306 -0.3807  0.2735
 9107W        W25241  14.634   4.780   4.884  0.1305 -0.2822 -0.2489
 9108W        W25242   6.985   4.786   4.125  0.1352 -0.0230 -0.2385
 9109W        W25243  11.203  13.871  14.080  0.0734 -0.0477  0.1429
 9110W        W25244  10.440  10.109   0.783 -0.1010  0.2544 -0.1631
 9111W        W25245   9.204  14.951   2.275 -0.1645  0.4336  0.0824
 9112W        W25246   4.976  14.261   2.232  0.0900 -0.0225 -0.1746
 9113W        W25247   9.801  14.996  15.499  0.1470  0.1124  0.1768
 9114W        W25248   5.674   0.012   2.103  0.2671  0.0345  0.3577
 9115W        W25249   6.385   6.775  11.632 -0.0079 -0.2436 -0.1160
 9116W        W25250   0.420   3.870  12.980 -0.0027 -0.2645 -0.1935
 9117W        W25251  11.771  13.124   3.942 -0.2531 -0.1657 -0.0573
 9118W        W25252   8.666   6.986  14.969  0.0813 -0.1148 -0.2695
 9119W        W25253   3.480   5.310  14.370  0.0219  0.0264  0.1246
 9120W        W25254  14.441  14.898   4.809 -0.2083 -0.2967  0.1964
 9121W        W25255  10.872  17.035  14.063  0.0710 -0.1684  0.1032
 9122W        W25256   1.187  16.561   3.682 -0.3320 -0.1401  0.0317
 9123W        W25257   9.442  13.815  12.316  0.0705  0.0130  0.1585
 9124W        W25258   0.445   7.090   2.744 -0.0051  0.1182  0.1900
 9125W        W25259  13.240  15.096   3.176 -0.0245  0.0405  0.0311
 9126W        W25260   5.284   9.327   2.137 -0.0753 -0.0059 -0.1086
 9127W        W25261   1.759   1.562   1.848  0.2782 -0.0867 -0.1793
 9128W        W25262  17.425  12.640   2.837  0.0654  0.0525 -0.1426
 9129W        W25263  12.957   1.721  14.212  0.1762  0.0234 -0.1608
 9130W        W25264  11.033  12.179   5.557  0.3094 -0.0862 -0.1891
 9131W        W25265  16.506   3.847   5.137 -0.1189  0.0448  0.1323
 9132W        W25266   4.695  18.142  10.953 -0.0138 -0.0938 -0.0471
 9133W        W25267   3.223  16.198   4.814  0.0183 -0.2040 -0.2666
 9134W        W25268  15.137  15.937  12.663  0.3782  0.0749  0.0737
 9135W        W25269   9.303   9.568  14.402  0.3060  0.1274  0.3154
 9136W        W25270  13.469   8.474  13.043 -0.3875 -0.1114 -0.0710
 9137W        W25271   9.814   4.642  13.276 -0.2207  0.4450  0.0964
 9138W        W25272   3.671   1.029   2.363 -0.0257  0.1796  0.1178
 9139W        W25273   3.999   4.574   0.862 -0.1503 -0.2955 -0.0550
 9140W        W25274   0.412  12.475   0.377  0.2541  0.3325  0.3159
 9141W        W25275   7.480   7.755   5.401  0.2027 -0.2612 -0.3308
 9142W        W25276   6.323  11.466  12.130 -0.0191 -0.0849  0.1826
 9143W        W25277   4.823   6.150  12.531  0.2848 -0.1774  0.0132
 9144W        W25278  11.941   3.676   4.084  0.1911 -0.1965 -0.0941
 9145W        W25279  11.290   1.522   0.174 -0.1903 -0.1375 -0.1195
 9146W        W25280   9.439   0.101   3.606 -0.0018  0.3046  0.1895
 9147W        W25281   6.845   3.760   4.183 -0.3796 -0.0560 -0.0271
 9148W        W25282  16.429   3.875   3.783  0.3909  0.0070  0.0777
 9149W        W25283   7.215  13.711   2.259  0.1005 -0.2369  0.2844
 9150W        W25284   5.709   4.003   1.443  0.1364 -0.0955 -0.0862
 9151W        W25285   7.223   3.779   0.240  0.0868  0.0807  0.0989
 9152W        W25286   9.667   4.819   0.011  0.2815 -0.1145  0.0493
 9153W        W25287   0.819   7.706  11.496  0.2018  0.1353  0.0380
 9154W        W25288   9.591   0.990  11.824 -0.3051  0.1184 -0.3458
 9155W        W25289   8.721  12.035   2.057  0.0397 -0.0056 -0.0692
 9156W        W25290   1.704   0.918   0.541  0.0097 -0.1832 -0.2323
 9157W        W25291   6.053  12.543   4.995 -0.2293 -0.3212 -0.0280
 9158W        W25292   5.421   8.852  13.837 -0.1492  0.0696  0.4887
 9159W        W25293   1.927  10.822   0.391 -0.0419 -0.1880 -0.1261
 9160W        W25294  12.665  18.104   3.154  0.0591  0.2905  0.3339
 9161W        W25295   4.274   9.138  15.854  0.1509 -0.2540 -0.3456
 9162W        W25296   7.108  11.157  14.241  0.0910 -0.0097  0.0800
 9163W        W25297  17.987  11.326   2.613 -0.0212 -0.0658  0.0360
 9164W        W25298  18.087  10.093   4.583 -0.0148  0.0412  0.0335
 9165W        W25299   1.849  15.910  15.082  0.0450  0.0706 -0.0378
 9166W        W25300  15.743   5.452  16.083  0.0918  0.0508 -0.0270
 9167W        W25301   9.915   2.144  12.371 -0.0810 -0.1247 -0.2561
 9168W        W25302  10.168   1.933  12.741 -0.1556  0.3774  0.4248
 9169W        W25303   8.413  16.632   3.548 -0.0325 -0.0843 -0.2130
 9170W        W25304  14.918  16.238  16.089 -0.0734 -0.0550  0.1232
 9171W        W25305  10.313   7.046  12.213  0.0292 -0.4028  0.0740
 9172W        W25306   6.656   0.727  13.217  0.0023  0.5117 -0.0667
 9173W        W25307   2.292   8.510  15.432 -0.1574  0.3857 -0.1516
 9174W        W25308   0.270  12.829   1.399  0.0355  0.0573  0.2237
 9175W        W25309  11.523   2.449  13.575 -0.0652  0.2208  0.2185
 9176W        W25310   7.499   0.922   2.033 -0.0120 -0.0828 -0.1374
 9177W        W25311  10.413  10.531   2.419  0.2872 -0.0849  0.3170
 9178W        W25312   4.716   2.651  13.341  0.0724 -0.2736 -0.2077
 9179W        W25313  16.333   9.939   3.472  0.1014 -0.0454 -0.2165
 9180W        W25314   9.629  14.192   3.673 -0.0756 -0.0009  0.1350
 9181W        W25315  15.944   4.528  11.144  0.1577  0.1448 -0.0490
 9182W        W25316  14.456  15.874  12.816 -0.0794  0.3246  0.0489
 9183W        W25317  11.760   3.295  14.634  0.1081  0.3026  0.2952
 9184W        W25318  16.987   2.055  12.547  0.0001  0.0718 -0.1131
 9185W        W25319   1.703   4.023  13.148 -0.2173 -0.1306 -0.3420
 9186W        W25320   5.640   1.912  14.744 -0.3003 -0.1736  0.1080
 9187W        W25321   9.860   0.188   6.263 -0.1552 -0.2090  0.1824
 9188W        W25322   7.065   7.180   4.712 -0.0075 -0.1907 -0.5132
 9189W        W25323   3.758   1.640  15.636  0.1849 -0.0774  0.0415
 9190W        W25324   2.109  16.531   4.656 -0.2178  0.1689  0.0898
 9191W        W25325   2.225  14.241   3.808  0.1685  0.0248 -0.3663
 9192W        W25326   0.826  14.317   2.252  0.2751 -0.1577 -0.3627
 9193W        W25327  14.546  16.365   3.337  0.3406  0.0782 -0.0424
 9194W        W25328  13.603   1.022   5.690  0.0068 -0.1083 -0.1579
 9195W        W25329  11.494   2.683   3.368 -0.1505 -0.1703 -0.1244
 9196W        W25330   5.199   5.219   2.167 -0.0479  0.1596 -0.1753
 9197W        W25331   9.388   5.410  14.960 -0.2748 -0.0488  0.2159
 9198W        W25332  17.532   4.491  14.572  0.4806 -0.0378  0.1306
 9199W        W25333  13.550  12.695   0.899  0.0502 -0.1499  0.1948
 9200W        W25334  11.559   5.169   0.291  0.2770 -0.1580  0.2218
 9201W        W25335   0.753  14.737  11.861  0.0384  0.0882 -0.0425
 9202W        W25336   5.096   1.397  15.783 -0.0631 -0.0253 -0.0953
 9203W        W25337  16.918   6.229   1.112  0.0403  0.4040 -0.0510
 9204W        W25338   5.571  16.991   1.294 -0.1365 -0.1104  0.1056
 9205W        W25339   3.087  18.363  12.611 -0.0827  0.1206 -0.0897
 9206W        W25340   8.897  14.505   2.467 -0.2336 -0.1150 -0.1102
 9207W        W25341  12.103  12.135   5.439  0.0231 -0.0663 -0.3902
 9208W        W25342   7.482   4.838   5.773  0.0708  0.0121 -0.1505
 9209W        W25343  11.521   5.673   0.459  0.1637 -0.2998 -0.1514
 9210W        W25344   9.167  12.748  15.189  0.0581  0.2931 -0.0158
 9211W        W25345  11.647  13.762   5.881 -0.0409  0.0681  0.0543
 9212W        W25346   5.088   2.094   5.493 -0.0589  0.2379  0.3092
 9213W        W25347   5.019  16.580  11.068  0.1454  0.0093 -0.3133
 9214W        W25348  16.822  16.264   1.572  0.0194 -0.2587  0.2531
 9215W        W25349  11.982  16.204  14.879 -0.1169 -0.0928  0.2879
 9216W        W25350  14.904  17.042   2.194 -0.0701 -0.1094 -0.1843
 9217W        W25351  11.763  11.880   2.900  0.0542 -0.0348  0.2131
 9218W        W25352  15.819  15.243  11.516  0.2852  0.2311  0.0919
 9219W        W25353  12.247   0.743   2.419 -0.1306 -0.0251 -0.1884
 9220W        W25354   4.102   5.053  11.478  0.0032 -0.3449 -0.0389
 9221W        W25355   8.419   7.343  15.946  0.4143  0.0475 -0.1739
 9222W        W25356   6.219   9.254  13.003  0.0082  0.0754  0.1727
 9223W        W25357   0.260  17.942   9.504  0.1570  0.2016  0.0820
 9224W        W25358  14.997   8.848   0.390 -0.1101 -0.2611  0.4882
 9225W        W25359  14.733   0.338   2.179  0.0318  0.1817 -0.1364
 9226W        W25360   4.730  10.520  10.524  0.1373  0.2670  0.1674
 9227W        W25361   8.166  15.774   5.064 -0.0497 -0.1944  0.3783
 9228W        W25362  16.355   3.726   2.974 -0.0252  0.0522 -0.0925
 9229W        W25363  14.357  15.770   2.618 -0.0614  0.0682 -0.2664
 9230W        W25364   2.944  15.790  14.191  0.0004  0.0976 -0.0095
 9231W        W25365   0.311  15.700  12.328  0.4161  0.2159 -0.3555
 9232W        W25366   3.610  15.253   4.222  0.1693  0.3474 -0.1697
 9233W        W25367  14.391   8.479  12.015  0.1643  0.2123  0.1201
 9234W        W25368   8.390  14.725  13.876  0.0573 -0.1133 -0.0124
 9235W        W25369  15.232  14.924  11.970 -0.0455  0.0427  0.4586
 9236W        W25370   3.310   1.848  10.843  0.0056 -0.0615  0.1535
 9237W        W25371   3.467  10.404  13.535 -0.0125 -0.1181 -0.1430
 9238W        W25372   6.381   5.672  15.571  0.1244 -0.2208  0.0717
 9239W        W25373  12.640  13.062   4.535  0.1157  0.2341  0.1370
 9240W        W25374  16.730  12.224   1.004  0.1711 -0.0835  0.1193
 9241W        W25375   6.693   2.632   2.402 -0.1967  0.2090  0.0818
 9242W        W25376  16.369  15.527  13.265 -0.3309  0.2434  0.0829
 9243W        W25377   3.600   7.517   1.450 -0.1517 -0.0067 -0.2477
 9244W        W25378   6.514   3.011   3.823 -0.1780 -0.0920 -0.0388
 9245W        W25379  10.177  10.526   1.574 -0.2568 -0.0778 -0.1398
 9246W        W25380   0.403   7.839   2.219  0.1621 -0.1321 -0.1015
 9247W        W25381   1.447   3.138  15.001 -0.2853  0.3880 -0.0189
 9248W        W25382   6.541   3.632  15.543  0.2253 -0.1729  0.3496
 9249W        W25383   5.243  13.061   0.833 -0.4129  0.1325 -0.1590
 9250W        W25384  12.319   5.569   1.447  0.1530 -0.0224  0.1849
 9251W        W25385  17.426  17.446  11.071  0.0350  0.1498 -0.0700
 9252W        W25386  13.934  10.968  13.134 -0.2986  0.0655  0.2190
 9253W        W25387   7.762   9.918  12.130 -0.0378 -0.0612 -0.0586
 9254W        W25388  18.389  12.011   1.042 -0.2738  0.1651 -0.2285
 9255W        W25389   7.085  10.503  15.102  0.2351  0.1064 -0.3913
 9256W        W25390  16.371   9.776  11.214 -0.0231  0.0954 -0.0080
 9257W        W25391  11.789  10.348   1.992 -0.0420 -0.0717  0.3555
 9258W        W25392  15.990   9.061  14.245  0.0509  0.0451 -0.1282
 9259W        W25393   9.163   1.378   5.282 -0.0562  0.2084 -0.1272
 9260W        W25394   3.541   5.769  12.271 -0.1422 -0.2367 -0.2358
 9261W        W25395  18.152  10.373   0.466 -0.1687 -0.0318  0.1076
 9262W        W25396  11.535  16.716  15.435 -0.2154  0.2516 -0.2609
 9263W        W25397   9.803   3.125   5.820  0.3230 -0.4445  0.0045
 9264W        W25398  17.030   7.408   0.187  0.0328  0.0431 -0.1645
 9265W        W25399  13.910   0.140   3.358  0.1789  0.3617  0.2050
 9266W        W25400  14.290  13.916   1.416  0.2618 -0.1547  0.3310
 9267W        W25401   2.319   3.527   3.146  0.0434  0.0307  0.3217
 9268W        W25402   5.046   6.260   0.220 -0.4487  0.4014  0.2404
 9269W        W25403   5.721  13.958   0.019  0.5637  0.3959 -0.0621
 9270W        W25404   8.221   2.686  11.069 -0.1887 -0.1094  0.1160
 9271W        W25405   3.964   0.102   5.121 -0.2162 -0.0573  0.0281
 9272W        W25406   4.719  13.324  12.019 -0.1584 -0.2379 -0.2498
 9273W        W25407  13.704  16.291  13.376 -0.0249 -0.1432 -0.1704
 9274W        W25408  13.832  11.713  10.605 -0.0310  0.4080 -0.0250
 9275W        W25409  12.677  12.905   2.914 -0.1264  0.2213  0.2007
 9276W        W25410  12.888   7.546  13.860  0.2489  0.0823  0.4250
 9277W        W25411   9.811   4.104   2.006  0.0752  0.0554  0.0307
 9278W        W25412   2.288  15.376   1.907  0.1169  0.0381  0.0056
 9279W        W25413   9.143   6.619  13.436 -0.0962 -0.5149  0.1647
 9280W        W25414   4.922   8.940  11.131 -0.1648 -0.0203 -0.2115
 9281W        W25415   0.634   2.173  12.564  0.1267  0.1554  0.0413
 9282W        W25416   8.084  15.591  13.879  0.0487  0.0399 -0.1738
 9283W        W25417   8.565  15.251  13.852 -0.0761  0.1659 -0.1019
 9284W        W25418  12.675   5.404  11.807  0.0383  0.0530 -0.0865
 9285W        W25419   9.636   2.743   0.484 -0.1014  0.3109  0.3105
 9286W        W25420   9.370  15.543  14.390  0.4160  0.1866 -0.2026
 9287W        W25421   3.109  17.423   2.949 -0.0992 -0.3141  0.0890
 9288W        W25422  17.819  14.835  14.756 -0.1500  0.0636  0.1766
 9289W        W25423  12.144  17.464  13.309 -0.4316  0.0539 -0.0326
 9290W        W25424   5.947  18.135   1.921  0.3546  0.2398  0.0170
 9291W        W25425  18.472   2.235   1.563  0.0732  0.2031  0.1493
 9292W        W25426  11.009  15.748   0.645  0.1384  0.0747  0.1633
 9293W        W25427   5.797  10.296   2.422  0.1494  0.4461  0.0351
 9294W        W25428  12.656  11.022   3.373 -0.2016 -0.2618  0.0137
 9295W        W25429   2.874   8.991  13.896 -0.0839 -0.0052  0.0321
 9296W        W25430  14.243  18.086  12.856  0.0917  0.3035 -0.0158
 9297W        W25431  16.462   3.090   3.438 -0.1953  0.2553 -0.0678
 9298W        W25432  13.453   3.878  11.739  0.2616 -0.2452 -0.1942
 9299W        W25433   9.309  12.330  15.606  0.3567  0.1783  0.0945
 9300W        W25434  10.333   5.116   3.352  0.1938 -0.0685 -0.1139
 9301W        W25435   3.220   6.357   3.158  0.0304 -0.0344  0.0615
 9302W        W25436  17.727  14.287  15.699 -0.1681 -0.2808 -0.4908
 9303W        W25437   4.255   7.252   4.539 -0.0693 -0.0883  0.0870
 9304W        W25438   2.811   2.897  13.689 -0.1387  0.1059 -0.1001
 9305W        W25439  17.057  14.565  14.379 -0.1288 -0.0544  0.0755
 9306W        W25440  10.839   8.777  14.805  0.1185 -0.0430 -0.1594
 9307W        W25441  10.654  13.829  11.311  0.0090 -0.0315  0.2039
 9308W        W25442  11.271   8.248   4.429 -0.1643  0.0284  0.0149
 9309W        W25443  15.675  15.126   4.734 -0.2324  0.1604 -0.3032
 9310W        W25444   0.157   4.794  12.177 -0.2070 -0.1769  0.0904
 9311W        W25445   5.552   2.323  16.082 -0.0485  0.1595 -0.0820
 9312W        W25446  14.263  14.283   3.106  0.1016 -0.0188 -0.0827
 9313W        W25447   1.073  12.214  15.583  0.2709 -0.0372 -0.2233
 9314W        W25448   6.959  12.667  15.588  0.0195  0.2138  0.1927
 9315W        W25449   6.967   1.525  11.914 -0.3130 -0.1945 -0.1412
 9316W        W25450   9.057  14.926   0.181 -0.0013  0.1395  0.1626
 9317W        W25451   7.351   0.318  15.296 -0.0057 -0.2637 -0.2347
 9318W        W25452   2.344  14.876  10.806 -0.0007 -0.1303  0.0939
 9319W        W25453  15.534   7.971   3.332 -0.0912  0.1360 -0.1543
 9320W        W25454   8.137   5.582   4.330  0.1043  0.4079 -0.1099
 9321W        W25455   7.920   4.426  12.963  0.1203  0.1523  0.2956
 9322W        W25456  12.353   9.764   2.070  0.0996 -0.0853 -0.0163
 9323W        W25457  18.326   1.994   1.125 -0.0871 -0.0478 -0.1861
 9324W        W25458   0.491  12.191   5.409 -0.0621  0.4042  0.2680
 9325W        W25459   8.691  14.781   4.018  0.3965  0.1122  0.0637
 9326W        W25460   1.660   1.809   2.285 -0.0777  0.0688  0.2500
 9327W        W25461   4.103   7.000  15.556 -0.3369  0.2736 -0.1830
 9328W        W25462  13.778  11.702  12.215 -0.0384  0.1809 -0.0088
 9329W        W25463  16.230   5.112   0.808  0.1045  0.1215  0.0878
 9330W        W25464  16.340  12.547  12.339  0.2136 -0.0903  0.0463
 9331W        W25465  13.901   8.270  13.961  0.0495  0.3120 -0.0526
 9332W        W25466  14.094   0.160   4.918  0.0268  0.4922  0.0219
 9333W        W25467   5.464   9.269   3.506  0.0736  0.0099  0.3623
 9334W        W25468   9.245   5.696  15.900 -0.0583 -0.1106 -0.0644
 9335W        W25469   9.968  17.026   2.364 -0.2953 -0.0563  0.0647
 9336W        W25470   1.558   2.058  13.450  0.1489  0.0559 -0.0918
 9337W        W25471   4.955  13.945   3.647 -0.2093  0.1702 -0.1290
 9338W        W25472   1.442  15.858  13.705 -0.1832  0.0918 -0.2738
 9339W        W25473  11.413   1.298  11.515  0.0380 -0.1563 -0.1134
 9340W        W25474   0.323   5.021  11.704 -0.1212  0.0512  0.0249
 9341W        W25475   3.242  12.367   2.330  0.3393 -0.1319  0.0163
 9342W        W25476   2.888  14.368  12.835  0.0705  0.0275 -0.1111
 9343W        W25477  14.021  17.159   3.607 -0.0994 -0.1543  0.1615
 9344W        W25478   5.876   0.842   2.826 -0.0869  0.1488  0.0615
 9345W        W25479   9.404  13.923  11.810 -0.0189  0.0775 -0.3765
 9346W        W25480   4.041   7.604   3.199  0.0122  0.0970 -0.0864
 9347W        W25481  15.836  12.309   0.482 -0.1554  0.4943  0.0884
 9348W        W25482  12.382  12.937   3.340  0.0108 -0.1578 -0.0051
 9349W        W25483   8.561   6.348   4.982  0.1087  0.0853  0.2978
 9350W        W25484   9.740  12.950  14.777 -0.0326 -0.2293  0.2094
 9351W        W25485   5.660  10.613  16.015  0.0452  0.0022  0.0259
 9352W        W25486  11.104   1.981   2.649 -0.2960 -0.1087  0.1150
 9353W        W25487   7.813   0.091   5.179  0.2174 -0.5128  0.2979
 9354W        W25488   1.238   8.544  14.110  0.0113 -0.0164  0.0243
 9355W        W25489  15.437   8.157   0.038  0.0405  0.0942  0.0150
 9356W        W25490  10.673  17.659   0.576  0.1850  0.4450 -0.2036
 9357W        W25491   4.222   9.163   4.577  0.0128 -0.2308 -0.0549
 9358W        W25492   6.598   1.258   2.692 -0.0501 -0.1943 -0.1697
 9359W        W25493  17.738  12.419  14.869  0.1319  0.0247 -0.1461
 9360W        W25494   7.086   1.202  13.725  0.0074 -0.1089 -0.1444
 9361W        W25495  11.156   4.528   1.286 -0.1806  0.0042 -0.1351
 9362W        W25496   5.598   2.619   5.984 -0.1133  0.0675 -0.1287
 9363W        W25497   0.817   1.766  12.281 -0.3113  0.1265 -0.0844
 9364W        W25498  10.871  13.205   6.103  0.3565  0.3381  0.1667
 9365W        W25499  11.040  18.216  14.060  0.0135  0.3971  0.0284
 9366W        W25500   1.471  15.071  16.002  0.0698 -0.1396  0.1772
 9367W        W25501   3.826   5.810   3.295 -0.0214 -0.1908  0.0870
 9368W        W25502  15.424   6.222  15.583 -0.0894 -0.1892  0.2153
 9369W        W25503   2.446  11.439  15.673 -0.1735 -0.1324  0.0057
 9370W        W25504  14.774  14.566   2.526 -0.2611  0.3015  0.6602
 9371W        W25505   8.475  16.006  12.192 -0.0494 -0.2045  0.1108
 9372W        W25506  13.287   0.619  12.824  0.1414 -0.1028 -0.1782
 9373W        W25507   2.951   5.216   4.050 -0.1595  0.0821  0.0883
 9374W        W25508  10.076  14.447  11.813 -0.0191  0.0597 -0.1381
 9375W        W25509  10.301   1.837  11.448 -0.3888 -0.2384 -0.1182
 9376W        W25510  12.897   6.333  14.280 -0.0316 -0.1523  0.2085
 9377W        W25511   7.941   6.683   6.524  0.1301  0.3288  0.1073
 9378W        W25512  15.706  12.615  15.233  0.2860  0.0436  0.0304
 9379W        W25513   9.523  14.854   1.817 -0.1138 -0.1780 -0.3363
 9380W        W25514   0.018  11.930   1.514 -0.0324  0.2941 -0.5313
 9381W        W25515   8.096   9.333  13.772  0.0425 -0.2999  0.0287
 9382W        W25516  10.367   3.167   4.988 -0.0378  0.1009 -0.1100
 9383W        W25517   8.612  12.975  14.100  0.2393 -0.2851 -0.1472
 9384W        W25518   8.924   1.507   3.430  0.2252  0.0933 -0.0112
 9385W        W25519  12.402   7.080   2.678  0.1371  0.1719  0.3236
 9386W        W25520  11.698   2.764  12.640 -0.0470  0.0029  0.1842
 9387W        W25521   5.116  13.180  15.975 -0.0530  0.2078 -0.1121
 9388W        W25522  12.363   9.524   5.575  0.1358  0.2381  0.0924
 9389W        W25523   0.162  16.545  13.158 -0.0987 -0.0478  0.2791
 9390W        W25524  13.755   4.209  13.007  0.3673  0.0231 -0.1901
 9391W        W25525  16.872  12.073  16.077 -0.0238  0.1720  0.0372
 9392W        W25526   7.596   1.815  12.763  0.0525 -0.3094 -0.0308
 9393W        W25527   5.722  15.182   0.835 -0.1616 -0.1329 -0.4354
 9394W        W25528   5.585   8.968   1.338 -0.1082  0.0161 -0.1326
 9395W        W25529   6.171   8.817  12.528 -0.1522 -0.0696  0.1222
 9396W        W25530   7.922   1.569  15.393  0.3585  0.2244 -0.0639
 9397W        W25531   9.257  17.798  14.929 -0.1586  0.0667  0.3003
 9398W        W25532  14.349   3.943   4.006  0.0249  0.2840 -0.0207
 9399W        W25533   2.206   5.235   3.061 -0.1949  0.0015  0.1367
 9400W        W25534  12.582   3.431   2.370  0.2559 -0.0151 -0.0640
 9401W        W25535   1.445  17.641  15.789 -0.0575  0.1699 -0.0945
 9402W        W25536   8.655   0.391  14.167  0.0033 -0.0444 -0.2000
 9403W        W25537   3.684  11.098   2.028 -0.1708  0.1450  0.0576
 9404W        W25538  17.827  15.496  12.462 -0.0250 -0.0682 -0.1611
 9405W        W25539   2.240  14.850   4.044  0.0129 -0.0881  0.1775
 9406W        W25540   1.645   7.961  13.788  0.1729  0.0852 -0.1620
 9407W        W25541  17.211  10.589   2.857  0.3473  0.2659  0.0958
 9408W        W25542  14.640   7.477   3.454  0.0408  0.0265  0.1632
 9409W        W25543   0.315  12.669   4.613  0.0564 -0.2209 -0.1566
 9410W        W25544  15.123   9.365   0.506 -0.1113 -0.1073 -0.2408
 9411W        W25545   3.830  11.235   0.817 -0.2433  0.1697  0.0295
 9412W        W25546   8.878  15.127  12.306 -0.1548 -0.2534 -0.2146
 9413W        W25547  14.365  11.361   0.177 -0.3912 -0.0940 -0.1777
 9414W        W25548   6.081  15.987   3.552 -0.2996 -0.1218 -0.2022
 9415W        W25549   4.791   3.507  10.836  0.2524 -0.0396  0.0955
 9416W        W25550  11.203   7.968  13.676 -0.0900  0.0958 -0.0797
 9417W        W25551   2.295  10.972  12.792  0.4396  0.2860 -0.0599
 9418W        W25552  15.171  16.977  14.873 -0.0210  0.1174 -0.1108
 9419W        W25553   8.011   1.517   4.690  0.1798  0.0498  0.0541
 9420W        W25554   7.107   5.002  11.817 -0.1388 -0.3657  0.2621
 9421W        W25555  12.307  16.129   3.670  0.1718 -0.0649  0.0319
 9422W        W25556   6.622   3.199   0.368  0.1191  0.1073 -0.1889
 9423W        W25557   7.597   1.810   4.728 -0.1190 -0.2150  0.2266
 9424W        W25558  13.329   2.541  13.833  0.2294  0.1281  0.1502
 9425W        W25559  10.418   9.159  14.757 -0.2423 -0.2208  0.1010
 9426W        W25560   4.672  10.689  11.000  0.1411  0.3772 -0.0711
 9427W        W25561   5.123  15.834   5.136  0.3330 -0.3183 -0.1644
 9428W        W25562   7.332   6.515   2.136  0.2518  0.4274 -0.0637
 9429W        W25563   5.786  18.110   0.528  0.1419  0.0875 -0.0906
 9430W        W25564  18.068  17.039  14.793  0.1368  0.2206  0.4105
 9431W        W25565   9.503  13.258  15.059 -0.0510 -0.1802  0.1616
 9432W        W25566  10.087  15.156  12.940 -0.1230  0.3259  0.0695
 9433W        W25567   4.746  18.005   2.517 -0.1003 -0.0963 -0.1693
 9434W        W25568   4.916   1.418  13.804 -0.3569 -0.1802  0.1037
 9435W        W25569   0.194   7.309  15.118  0.2910 -0.2295  0.0963
 9436W        W25570  14.444   1.334  13.628 -0.3634  0.0128  0.2689
 9437W        W25571  16.608  15.958  11.743 -0.1152 -0.2715  0.2415
 9438W        W25572   4.038  14.006  11.435 -0.2288 -0.0203 -0.0160
 9439W        W25573   1.561   9.944   0.398  0.0221 -0.1511  0.4671
 9440W        W25574  14.997  16.948  12.445  0.2164 -0.1765 -0.3677
 9441W        W25575   5.613   4.617  13.152 -0.1485  0.2027 -0.0195
 9442W        W25576   3.782   6.792  15.975 -0.0251  0.0877  0.1797
 9443W        W25577   0.063  10.963   5.754 -0.1525  0.3386  0.2456
 9444W        W25578   9.478   2.573  12.808  0.0160 -0.0700 -0.0038
 9445W        W25579  14.067   2.025  14.287  0.0264  0.1213  0.2048
 9446W        W25580   3.251   6.122   5.093 -0.1389 -0.2785  0.0451
 9447W        W25581  16.290   8.230   4.139 -0.1193  0.0461 -0.0518
 9448W        W25582  13.324   4.423  13.167 -0.2836 -0.1362  0.2302
 9449W        W25583   6.217   8.808  16.018 -0.1759  0.0942 -0.1682
 9450W        W25584  12.324  15.877   5.131  0.1649  0.1029  0.2060
 9451W        W25585   1.044   2.866  11.160  0.3784  0.2355  0.0283
 9452W        W25586   2.492  12.972   2.074 -0.2926  0.1139 -0.2538
 9453W        W25587  11.305   0.054  11.489 -0.1162 -0.1836 -0.1108
 9454W        W25588   6.933   6.217  15.128 -0.1662  0.3136 -0.2102
 9455W        W25589  15.287  17.671  12.146 -0.1142 -0.0030  0.0269
 9456W        W25590  13.431   3.500  13.503  0.2166  0.0883 -0.0957
 9457W        W25591  12.239  10.528   1.868 -0.0985 -0.0213 -0.0999
 9458W        W25592   5.306  16.803   4.115  0.1325 -0.3777 -0.0584
 9459W        W25593  13.683  12.015  13.989  0.1302  0.0096  0.0116
 9460W        W25594   4.998  12.737  13.935 -0.0001  0.3100  0.0368
 9461W        W25595   2.605  15.603  11.601  0.2215  0.2228 -0.0287
 9462W        W25596  15.964  10.571  12.884 -0.4105  0.0490  0.1284
 9463W        W25597  14.563  16.347  12.961 -0.1438  0.0281  0.0347
 9464W        W25598  17.121   1.315   5.169 -0.0281 -0.2825 -0.1223
 9465W        W25599  15.196  13.189   4.715  0.4801 -0.0161  0.1941
 9466W        W25600   8.105  16.135  13.502  0.3681  0.1751  0.1436
 9467W        W25601   7.026   8.005   3.607  0.1430  0.0002 -0.1779
 9468W        W25602   4.664  15.659  13.582  0.1477  0.0271 -0.1791
 9469W        W25603   7.589   9.885   2.231  0.1549  0.0414 -0.2295
 9470W        W25604   0.740  15.270   3.989  0.0525 -0.0482  0.0684
 9471W        W25605   8.934   6.441   5.359  0.1548  0.2260  0.0130
 9472W        W25606   6.229   1.217  11.495 -0.1102 -0.2876  0.0627
 9473W        W25607   1.980   3.896   3.921  0.1495 -0.0431 -0.1035
 9474W        W25608  12.777   2.687   4.334 -0.1645  0.0909  0.0715
 9475W        W25609  16.329  16.569   5.186 -0.1317  0.0026 -0.2635
 9476W        W25610   4.887   0.229  15.039  0.0714 -0.2237 -0.1538
 9477W        W25611  17.622  16.147   3.535  0.1931 -0.1146 -0.1979
 9478W        W25612  13.269  17.462  11.355 -0.0638  0.0504  0.0429
 9479W        W25613  14.386   5.048  11.942  0.0450  0.0082  0.2860
 9480W        W25614   3.574   8.434   0.395  0.0178 -0.5131  0.2807
 9481W        W25615  16.498   0.733   1.471 -0.0209 -0.0170 -0.0266
 9482W        W25616  16.117  15.217  12.012 -0.2099  0.0163  0.0020
 9483W        W25617  14.844  10.691   4.761 -0.4105  0.0796  0.1588
 9484W        W25618   8.342   5.807   4.902 -0.0743 -0.2174  0.4093
 9485W        W25619  16.872  15.831  13.994 -0.1371  0.0232 -0.1640
 9486W        W25620  12.304  17.052   2.042  0.0938 -0.0298  0.1512
 9487W        W25621   6.617  16.808  15.405 -0.1460 -0.2376 -0.4615
 9488W        W25622  16.745   6.950   4.899  0.0813  0.1404  0.0482
 9489W        W25623   5.227   4.044  14.559 -0.0756  0.1992 -0.0884
 9490W        W25624  16.047   8.344  12.463  0.0984 -0.0697 -0.0262
 9491W        W25625  14.046   3.755  15.611  0.4251  0.2816 -0.0591
 9492W        W25626   3.929  13.113  11.333  0.0827  0.3860 -0.1309
 9493W        W25627  10.299   0.457   3.108  0.1624 -0.1588  0.1955
 9494W        W25628   1.156  13.653  10.907 -0.0485  0.0052 -0.0693
 9495W        W25629  17.876  15.459   9.481 -0.0239  0.1798  0.2499
 9496W        W25630  18.163   8.489  13.048 -0.0826 -0.0093 -0.2527
 9497W        W25631   1.770   4.348  12.451 -0.0762  0.2568  0.0106
 9498W        W25632   1.708  16.271  11.348 -0.0755 -0.1551  0.3857
 9499W        W25633   4.221   3.852  12.516  0.1013 -0.0069 -0.3070
 9500W        W25634   8.459  11.852  11.777 -0.0469 -0.0288  0.0852
 9501W        W25635   1.248   6.418  14.492 -0.1979  0.1564 -0.0582
 9502W        W25636   8.963  13.220  13.429 -0.0031 -0.1098 -0.1200
 9503W        W25637   1.347   1.142  15.101 -0.0503  0.1259 -0.0121
 9504W        W25638   3.149  18.127  13.087 -0.2114 -0.3788 -0.0415
 9505W        W25639   9.848  17.271   1.757  0.1271  0.1550  0.0004
 9506W        W25640  18.125  14.186  10.284  0.0656 -0.2620  0.0436
 9507W        W25641  11.356   7.163   3.290 -0.0396 -0.2584 -0.1566
 9508W        W25642   7.928  17.664   5.398 -0.0559 -0.1155  0.0059
 9509W        W25643   4.110   0.233  15.548 -0.3985 -0.0058  0.1641
 9510W        W25644  12.425   3.934  13.337  0.1153  0.0341 -0.1776
 9511W        W25645   9.042   9.617  11.920  0.0433 -0.1521 -0.0284
 9512W        W25646  10.574   8.245   1.294 -0.2047 -0.0579  0.0508
 9513W        W25647  17.866   1.462  15.335  0.2198 -0.1411  0.1153
 9514W        W25648  11.817   9.084  11.844  0.1653  0.0107 -0.1468
 9515W        W25649  17.389  16.309  16.006  0.1079 -0.3343  0.0720
 9516W        W25650  11.224  14.198  14.838 -0.3286  0.0542 -0.0792
 9517W        W25651  16.256  12.993  11.694 -0.0226 -0.0875  0.0168
 9518W        W25652   0.001   3.942  12.597 -0.0621 -0.1543  0.2146
 9519W        W25653   2.981   8.074  10.717  0.4041 -0.3255  0.2222
 9520W        W25654  10.254  13.069  14.649 -0.0481 -0.0763  0.0704
 9521W        W25655  13.293   4.832  15.655  0.0179  0.1241  0.1517
 9522W        W25656   7.705   6.283   1.855  0.0754  0.0458  0.0229
 9523W        W25657  15.952  13.763  15.198  0.1139  0.2382  0.1414
 9524W        W25658  15.621   6.361  14.575 -0.2212 -0.0867  0.2281
 9525W        W25659   8.761  17.645  15.609  0.3412  0.0769  0.0746
 9526W        W25660   5.833  10.109  13.375 -0.3264 -0.0741 -0.1256
 9527W        W25661   3.158  14.327   5.430 -0.0779  0.1460  0.0233
 9528W        W25662   2.568  13.025  10.173 -0.0622  0.0097 -0.0341
 9529W        W25663   2.457   1.622   4.035 -0.0699 -0.0967  0.0483
 9530W        W25664   4.614  16.538   5.187 -0.1075  0.2305  0.2822
 9531W        W25665   7.353  15.075   5.018 -0.0151 -0.4261 -0.1928
 9532W        W25666   5.537   9.893   1.521 -0.2244 -0.0546 -0.0765
 9533W        W25667   7.814   0.443   2.791  0.0056 -0.0412  0.0293
 9534W        W25668   0.175   2.225   2.855  0.5388 -0.0999  0.1480
 9535W        W25669  12.465  10.795   5.413 -0.1979 -0.2200 -0.1242
 9536W        W25670   0.289  17.028   5.305 -0.1948  0.0147  0.2574
 9537W        W25671   6.662  13.954  11.145 -0.2149  0.0503  0.0032
 9538W        W25672   5.097   9.618   3.385  0.0361 -0.0727  0.3462
 9539W        W25673  10.101  16.504   2.510  0.2778  0.1817 -0.0677
 9540W        W25674  14.859  14.643  14.845 -0.2402 -0.0120  0.0571
 9541W        W25675   5.421  12.489  13.878  0.1550  0.1180  0.0317
 9542W        W25676   5.115   6.049  14.032  0.1147 -0.2608  0.0401
 9543W        W25677   4.657   7.143   3.568 -0.0854 -0.1028 -0.0268
 9544W        W25678  10.808   3.089   4.593  0.3137 -0.1056 -0.1396
 9545W        W25679   0.191  13.725  11.360 -0.1195  0.2673 -0.1848
 9546W        W25680   0.673  11.528  13.122 -0.0129  0.1878  0.1073
 9547W        W25681   6.937  10.122  14.769  0.2324 -0.0755  0.0626
 9548W        W25682   8.018   1.164   1.839 -0.0036 -0.3446  0.1093
 9549W        W25683  17.398  17.878   4.522  0.0535 -0.2029 -0.0634
 9550W        W25684  17.811   5.867   2.565  0.1420  0.1547  0.0955
 9551W        W25685   5.827  18.232  10.328 -0.1491 -0.1103 -0.1004
 9552W        W25686   7.451  12.271   3.347  0.0417  0.0238 -0.1553
 9553W        W25687   8.024   1.621   3.770 -0.2194 -0.1539 -0.2572
 9554W        W25688   8.371   2.848   2.650 -0.3324  0.3360  0.0032
 9555W        W25689  12.478   9.908   2.625 -0.1153  0.0126 -0.1112
 9556W        W25690  10.724   2.150   6.240 -0.2453  0.0293 -0.0884
 9557W        W25691   3.559  17.785   0.011 -0.1412  0.4141 -0.0773
 9558W        W25692   7.051  11.848  12.719 -0.1995  0.3828  0.1860
 9559W        W25693  10.055  16.418   2.998  0.0802 -0.2644  0.0886
 9560W        W25694   2.034   2.129  14.386 -0.1516  0.0204  0.1294
 9561W        W25695   9.368   5.781  11.743 -0.2073  0.2087  0.0827
 9562W        W25696   3.648   5.383   0.472 -0.0594  0.1304  0.2296
 9563W        W25697   9.576  11.290   3.805 -0.2037 -0.5187  0.5636
 9564W        W25698   0.432   2.290  14.987  0.0309 -0.0854  0.0186
 9565W        W25699   4.104  15.057   4.199 -0.0348  0.3899  0.2455
 9566W        W25700   3.651   4.830   5.840 -0.1228  0.1311 -0.0546
 9567W        W25701   0.998   4.911   3.788  0.1751  0.2368 -0.0576
 9568W        W25702   5.042  14.772  11.466  0.2496 -0.0528  0.1963
 9569W        W25703   1.294   6.608   5.444 -0.1682  0.0013  0.0677
 9570W        W25704  11.002   5.216  14.458  0.0874 -0.1000  0.1057
 9571W        W25705   5.165  13.536   2.687 -0.1185  0.0031  0.2487
 9572W        W25706   8.719  11.615   0.246  0.0413 -0.2564 -0.2174
 9573W        W25707  11.808  17.567   1.739 -0.0213  0.0641 -0.2186
 9574W        W25708   5.698  11.549   3.857  0.1827 -0.0399 -0.3782
 9575W        W25709  16.922  17.605  12.744  0.1411  0.1785 -0.1136
 9576W        W25710  18.068   7.730  13.483 -0.3519 -0.0332  0.1757
 9577W        W25711   8.117   6.064  11.475  0.1975 -0.0005  0.0307
 9578W        W25712  10.270  11.002   1.544 -0.1690  0.1775 -0.1372
 9579W        W25713  10.156   8.223  14.120 -0.1915 -0.1990 -0.0974
 9580W        W25714  10.553  18.175   5.745  0.1997  0.1105  0.0062
 9581W        W25715  10.262   4.712  14.015  0.3588  0.0636  0.0061
 9582W        W25716   5.449  17.217   3.348  0.1357  0.0061 -0.0304
 9583W        W25717  10.299   6.075  12.864 -0.0180  0.0516  0.1551
 9584W        W25718  14.976   5.721   2.382  0.0096 -0.4561  0.1152
 9585W        W25719   1.132   5.802  15.216  0.0973 -0.1313  0.1511
 9586W        W25720  16.206   3.799  12.549 -0.2565  0.2328 -0.1471
 9587W        W25721   6.407   7.775   3.013 -0.2575  0.1751 -0.2316
 9588W        W25722   0.551  10.008  10.144 -0.0544  0.3484  0.2186
 9589W        W25723  18.049  17.741  12.236  0.3652  0.3453 -0.1981
 9590W        W25724  13.467  13.909   2.673 -0.2287  0.1091 -0.0941
 9591W        W25725  15.982  10.960   4.988  0.1222 -0.0861 -0.1675
 9592W        W25726   0.251  16.112  14.074 -0.1702  0.1992  0.3585
 9593W        W25727  13.955   4.396   2.668  0.2031 -0.4563  0.2079
 9594W        W25728   7.899  11.110   5.275 -0.1846 -0.0175  0.1327
 9595W        W25729   6.280  12.134   3.261 -0.1625 -0.1799  0.1500
 9596W        W25730   3.205  16.504  15.057 -0.0974  0.1130 -0.0382
 9597W        W25731   1.157  10.219   4.284  0.0406  0.0066  0.0958
 9598W        W25732   6.493   7.002  13.541  0.1914  0.2648 -0.2902
 9599W        W25733  17.699  12.572   1.986 -0.1470 -0.1717 -0.2432
 9600W        W25734  17.012  12.140   4.900  0.2976  0.2349 -0.1317
 9601W        W25735  11.964   1.546  15.729 -0.0935 -0.4037 -0.3704
 9602W        W25736   2.306   9.329  15.605 -0.0859  0.0770 -0.0840
 9603W        W25737  11.233  13.323  14.191  0.0326 -0.1544 -0.3017
 9604W        W25738  15.421   2.126  15.268 -0.1835 -0.1851  0.1425
 9605W        W25739   0.009  17.966   1.265  0.3575 -0.1689  0.2602
 9606W        W25740   3.942   0.218   1.442 -0.0975 -0.2312  0.0251
 9607W        W25741  10.599  16.185  15.594  0.3262 -0.1350 -0.1559
 9608W        W25742   5.469  14.347   2.093  0.0573 -0.2557 -0.0678
 9609W        W25743   2.554  17.896   5.370 -0.2955  0.2745 -0.1601
 9610W        W25744  10.806   6.718   1.932 -0.0207 -0.1636  0.0636
 9611W        W25745  18.437  14.384   0.714  0.0259  0.2539 -0.1725
 9612W        W25746   1.369  18.254   4.548  0.1225  0.0065  0.0875
 9613W        W25747   3.256  18.433  12.150 -0.0270  0.1306 -0.0569
 9614W        W25748   1.978  12.588  15.204 -0.1549  0.1243 -0.1812
 9615W        W25749   4.600   3.813   1.134  0.3531  0.1323  0.1779
 9616W        W25750   9.189   3.860   5.039 -0.0056  0.2420  0.1909
 9617W        W25751  16.082   9.234  15.419 -0.3292  0.1714  0.0834
 9618W        W25752   3.217   3.075   0.938  0.3515 -0.1732 -0.2256
 9619W        W25753   7.584   5.574   1.759 -0.1560 -0.2511 -0.0223
 9620W        W25754  10.479  18.291  11.596  0.0961  0.3409 -0.0104
 9621W        W25755  11.896   6.596  10.940 -0.1129 -0.0882  0.1845
 9622W        W25756   8.012  11.365  12.111  0.1154 -0.0908 -0.2241
 9623W        W25757   0.591   1.788   9.999 -0.0360  0.1758 -0.2684
 9624W        W25758  16.714  10.057  15.444 -0.0624  0.0283 -0.1674
 9625W        W25759  13.223   0.431   1.829  0.1134  0.1071 -0.4331
 9626W        W25760   3.992   8.331   1.244  0.1941 -0.1766 -0.0513
 9627W        W25761   1.506   9.660   1.665  0.0823  0.2300  0.1734
 9628W        W25762   3.358  12.889  10.585 -0.0962  0.2595  0.0281
 9629W        W25763   0.891   4.182   2.663 -0.1904  0.1256  0.1119
 9630W        W25764  10.367   2.681  11.786 -0.1800  0.0302  0.1499
 9631W        W25765   9.997   6.628   4.053  0.1244  0.0707 -0.0522
 9632W        W25766  17.175  11.112   4.947 -0.1124 -0.2356  0.2481
 9633W        W25767  18.124   5.990  14.168 -0.1571  0.1400 -0.2632
 9634W        W25768  12.614   4.976  14.571 -0.0650 -0.0691 -0.0828
 9635W        W25769   7.486  13.831  13.114 -0.1664  0.2054  0.4292
 9636W        W25770  14.399   0.287   1.664 -0.1543  0.4335  0.1497
 9637W        W25771   9.518   2.154  13.054 -0.0257  0.0823 -0.3026
 9638W        W25772   0.551  18.090  13.228 -0.1971  0.2854 -0.1159
 9639W        W25773   4.364  10.593   1.758 -0.0585 -0.2244 -0.1391
 9640W        W25774   2.697   7.936   5.395  0.2165  0.2363 -0.2757
 9641W        W25775   3.987   2.674  11.636 -0.0209 -0.0098 -0.0546
 9642W        W25776  11.488   1.721  14.231  0.2354 -0.0505 -0.3598
 9643W        W25777   8.868   7.341   5.410  0.0543 -0.0960  0.3250
 9644W        W25778   5.028   0.809  12.343 -0.1969 -0.2163  0.1975
 9645W        W25779  12.977  14.967   3.670  0.1091  0.2260  0.0456
 9646W        W25780  13.534   8.513  15.658  0.0534  0.4712  0.0447
 9647W        W25781  10.068   3.588   2.221  0.0748 -0.0175  0.0717
 9648W        W25782   5.291   3.944   0.572 -0.4318  0.2043 -0.2401
 9649W        W25783   5.328   6.216  13.409  0.0417 -0.3428  0.2224
 9650W        W25784   1.068   2.071   4.017  0.1899 -0.0892 -0.1299
 9651W        W25785  17.422   5.093   2.982  0.1093  0.0018  0.0176
 9652W        W25786   6.489  11.353   3.108 -0.4923 -0.1681  0.3060
 9653W        W25787  10.669   1.880   1.109 -0.0658  0.3402  0.2675
 9654W        W25788  14.715  14.452  12.556 -0.2196 -0.0118  0.0196
 9655W        W25789   2.351  16.319  13.938  0.0442 -0.1318 -0.0461
 9656W        W25790  18.125  10.182  11.222 -0.0788 -0.1119  0.1008
 9657W        W25791  17.214   9.565   1.462  0.4009  0.2644 -0.1205
 9658W        W25792   3.677  17.873   3.945 -0.0648 -0.4650 -0.0484
 9659W        W25793  15.142   9.800   4.480  0.1029  0.4092 -0.1858
 9660W        W25794   6.615  10.498   0.348  0.0457  0.1841 -0.2405
 9661W        W25795  17.672   5.537  11.366 -0.1281 -0.1378 -0.1614
 9662W        W25796   1.443   5.327   2.078  0.0653 -0.0325 -0.1078
 9663W        W25797   7.828   1.268  14.440 -0.0198 -0.0008  0.0714
 9664W        W25798  16.714   3.633  14.637  0.2635  0.0350 -0.0651
 9665W        W25799   8.007   5.531  11.815 -0.2173 -0.0610  0.1129
 9666W        W25800  16.341  18.434   2.098 -0.2966 -0.1771  0.1024
 9667W        W25801  11.080   3.572   1.142  0.0179  0.0943  0.3739
 9668W        W25802  11.833   8.310   4.494  0.0079  0.1543 -0.3084
 9669W        W25803   1.115   7.756  15.490 -0.2455  0.3901 -0.2216
 9670W        W25804   8.699  11.043  12.710 -0.0498  0.3201 -0.0106
 9671W        W25805   1.907  15.858  13.970  0.0867  0.0369 -0.0948
 9672W        W25806  15.401  12.176  14.879 -0.2354  0.3351 -0.0408
 9673W        W25807  12.549   9.735  12.790  0.1014  0.1923 -0.0041
 9674W        W25808   8.365   8.393  15.123 -0.1209  0.0075  0.0635
 9675W        W25809   9.095   4.075  15.615 -0.2267 -0.1458 -0.1557
 9676W        W25810   4.801  10.100   3.137 -0.3640 -0.2531  0.1352
 9677W        W25811  11.889  14.264   2.175  0.1203 -0.1940 -0.2557
 9678W        W25812   9.953  12.963   1.191  0.1573  0.2037 -0.2158
 9679W        W25813  12.747  14.983   0.972 -0.1950 -0.0591  0.1543
 9680W        W25814   2.416   9.989   0.694 -0.0113 -0.0048  0.0105
 9681W        W25815  10.559   9.994  12.166 -0.1698  0.1252 -0.0424
 9682W        W25816   3.018  13.958   0.187 -0.3965  0.0774  0.0973
 9683W        W25817   9.396   4.178   0.322 -0.1184 -0.3244 -0.2073
 9684W        W25818   6.994   4.173  12.189  0.0706 -0.3976  0.0043
 9685W        W25819  16.929  13.017   1.507 -0.0989 -0.2498  0.0083
 9686W        W25820  11.820  18.025   5.748  0.3047 -0.0472 -0.2264
 9687W        W25821  11.306  13.718  15.085  0.2491  0.0048 -0.0867
 9688W        W25822  12.601   4.833   2.953 -0.1150 -0.0628  0.1691
 9689W        W25823   3.116   5.536   4.826  0.0560  0.0534  0.0278
 9690W        W25824   2.936   3.396   5.711  0.0790 -0.1172  0.2340
 9691W        W25825  11.137   0.499   4.602  0.0953  0.1058  0.1363
 9692W        W25826   2.150  16.476  16.069 -0.1388 -0.0547  0.1817
 9693W        W25827   2.159   9.985  14.441 -0.1117  0.0517  0.3525
 9694W        W25828   5.543   8.388   2.911  0.0760  0.2507  0.0628
 9695W        W25829   1.114   3.770   2.426  0.0533 -0.0823  0.2795
 9696W        W25830  13.325   5.072  14.662 -0.1277  0.2525 -0.1409
 9697W        W25831   7.035   7.583  11.828 -0.2400  0.1582  0.0223
 9698W        W25832   1.734  15.011  15.086  0.1677 -0.0112 -0.0473
 9699W        W25833   1.163  12.731  12.624  0.0832 -0.0347  0.2901
 9700W        W25834   6.074   9.024  14.506  0.0937  0.1493 -0.1842
 9701W        W25835  16.043   3.688   1.874 -0.3931  0.0373  0.0516
 9702W        W25836  13.423   6.954  14.084 -0.0563 -0.1270 -0.0111
 9703W        W25837  18.029  12.503   0.629 -0.0923  0.0143  0.2812
 9704W        W25838   3.212  17.283   5.799  0.1746  0.0207 -0.0587
 9705W        W25839   3.040  13.136   0.870 -0.3559 -0.0185 -0.0399
 9706W        W25840   0.159  14.354  13.032 -0.0672  0.2601 -0.0955
 9707W        W25841  14.452  15.316  12.195  0.0687  0.3312  0.0670
 9708W        W25842   5.121   8.368  15.330  0.1820 -0.1855 -0.0274
 9709W        W25843   0.506   5.372  14.474 -0.3315 -0.1798  0.0071
 9710W        W25844   2.875   9.922  14.070 -0.1342  0.0193  0.1453
 9711W        W25845   4.635   3.055   1.848  0.0858  0.0224 -0.0330
 9712W        W25846  17.899   4.529   2.369 -0.5546 -0.3590 -0.0458
 9713W        W25847  17.506   4.567  10.271  0.0294  0.0582 -0.1230
 9714W        W25848   6.261  11.875   0.909 -0.1757  0.3333  0.1339
 9715W        W25849  15.579   3.299   2.613 -0.4060 -0.2647 -0.1266
 9716W        W25850   7.720   6.154   0.822 -0.1864 -0.3133 -0.0086
 9717W        W25851   8.198   1.653  12.092 -0.5840  0.0937 -0.0552
 9718W        W25852   7.946   6.754   1.566  0.0861  0.1370  0.2130
 9719W        W25853  11.511  14.212  12.337  0.0409  0.1975 -0.0188
 9720W        W25854   7.747   0.890   6.136  0.1559 -0.3991  0.0283
 9721W        W25855  13.026  10.936  15.965 -0.1031  0.3244  0.0322
 9722W        W25856   5.060  15.267   1.147 -0.0509 -0.2430  0.0414
 9723W        W25857  15.045  16.976   1.707  0.0122  0.2570 -0.3488
 9724W        W25858  16.422  12.190  12.667 -0.1663  0.3112  0.4425
 9725W        W25859  14.865   7.857  14.801  0.1938 -0.0209 -0.1051
 9726W        W25860   4.624   4.629   0.177  0.0880 -0.1077 -0.1344
 9727W        W25861   0.776  13.186   1.201 -0.0436 -0.1026 -0.0554
 9728W        W25862  10.543   7.134  15.489  0.0563  0.0197  0.0137
 9729W        W25863  18.323   3.912  14.840 -0.0333  0.3572 -0.0676
 9730W        W25864  12.349  11.964  15.162  0.2257 -0.0432  0.0382
 9731W        W25865  14.222   4.224  13.217  0.2207  0.1484  0.0025
 9732W        W25866   4.080   2.432   0.690  0.0658 -0.2108 -0.0569
 9733W        W25867   9.970   1.730   2.693 -0.0074  0.0275  0.2153
 9734W        W25868   8.660   6.507  12.729  0.0218 -0.0962  0.0963
 9735W        W25869  10.905   5.155   5.621  0.1121  0.2310  0.2938
 9736W        W25870  13.965  13.217   5.378  0.1188 -0.0499  0.1652
 9737W        W25871  13.923   0.434   1.807  0.1796  0.1999 -0.2782
 9738W        W25872  13.006  10.974  12.209  0.1651 -0.1981  0.1077
 9739W        W25873   7.027  16.672   1.807  0.3503 -0.1967  0.1063
 9740W        W25874   5.732   0.554   1.298 -0.1445  0.2858  0.2569
 9741W        W25875  16.766   5.956   4.394 -0.1403  0.0777 -0.0671
 9742W        W25876   4.725  11.934  14.816  0.0536  0.1299  0.0970
 9743W        W25877  11.958  13.639   2.320  0.2386 -0.3424  0.1966
 9744W        W25878  11.629   1.738   1.334  0.0069 -0.0113 -0.0710
 9745W        W25879  12.918  10.868  14.217 -0.3333 -0.2011  0.1228
 9746W        W25880   1.914  11.102   4.383  0.3852  0.1546 -0.4520
 9747W        W25881  10.781  15.463  14.205  0.2457  0.0759  0.0898
 9748W        W25882   0.206  15.097   3.940  0.2596 -0.1655 -0.1562
 9749W        W25883   9.501   1.893  12.088  0.0905 -0.2132 -0.0226
 9750W        W25884   3.404   4.173  15.265 -0.1716 -0.1624  0.3249
 9751W        W25885  10.235  13.009  15.780  0.3410  0.0866  0.0276
 9752W        W25886   2.165   6.521  15.670 -0.2048 -0.3314  0.1267
 9753W        W25887   5.665  17.075  13.102  0.1379 -0.3373 -0.3140
 9754W        W25888   4.413  11.321  11.757 -0.1133  0.0390  0.2147
 9755W        W25889  10.970   5.161  12.120 -0.1787 -0.1314  0.0668
 9756W        W25890  14.177  17.666   1.750  0.0617  0.0097 -0.0207
 9757W        W25891  11.382  13.349   2.909 -0.5936 -0.3581  0.2585
 9758W        W25892  13.166  13.068   4.709 -0.0906  0.1287  0.0342
 9759W        W25893  11.033  10.374  13.532 -0.1753  0.1059  0.0539
 9760W        W25894   3.608   4.841  14.758  0.1787  0.0921  0.0488
 9761W        W25895   2.619   0.679  15.680  0.0467  0.3610  0.1702
 9762W        W25896   5.444  14.669  12.828  0.0281  0.1130 -0.0318
 9763W        W25897  12.044  16.184   4.074  0.3495 -0.1536 -0.1489
 9764W        W25898   2.195  14.605  12.113  0.1065  0.1087 -0.0424
 9765W        W25899   8.199   9.422   0.366 -0.0078  0.0591  0.0716
 9766W        W25900   7.790  16.353   3.938  0.1812 -0.1480 -0.1532
 9767W        W25901  15.602  12.058  14.394  0.0724 -0.0634 -0.0276
 9768W        W25902  17.583   9.858   2.130 -0.1257 -0.2261  0.0662
 9769W        W25903  16.006   6.323   1.130  0.0600  0.0692  0.4543
 9770W        W25904  13.363   7.427   0.280  0.3039 -0.3286 -0.3107
 9771W        W25905  11.705  17.477   5.665  0.2795  0.0387 -0.2354
 9772W        W25906   1.780   8.371  13.104  0.3071 -0.0441 -0.1173
 9773W        W25907  15.890   2.814  13.726 -0.0707 -0.0744 -0.0515
 9774W        W25908   7.888   2.771  10.665 -0.4533 -0.0146 -0.1153
 9775W        W25909   9.570  16.216   4.762 -0.0644 -0.1136 -0.2285
 9776W        W25910   3.279   9.001  13.645 -0.1180 -0.2563  0.2831
 9777W        W25911  18.326   1.673  14.140  0.0588 -0.1260 -0.0105
 9778W        W25912  10.534  15.216  12.067  0.1803 -0.1008 -0.1951
 9779W        W25913  14.435   4.407   1.828 -0.0430 -0.4384 -0.1124
 9780W        W25914  13.249  17.068   3.978 -0.0061 -0.0274 -0.1354
 9781W        W25915  12.216   0.896   3.312  0.3014 -0.0312  0.0963
 9782W        W25916  18.193  13.395   2.929 -0.0277 -0.1478 -0.2820
 9783W        W25917  15.360   0.218  12.996 -0.2793 -0.0425 -0.2859
 9784W        W25918   4.203   7.751  11.087  0.1746  0.1194 -0.0075
 9785W        W25919   6.192   0.632   0.381  0.1560  0.0746  0.1310
 9786W        W25920  17.261   1.850   4.770 -0.0156 -0.1047 -0.0334
 9787W        W25921   3.305   9.642   3.642 -0.3344  0.1240  0.1521
 9788W        W25922   7.616   9.675   0.211  0.3184 -0.0114  0.1282
 9789W        W25923   3.647  13.245  15.196 -0.0980  0.1306 -0.1538
 9790W        W25924   7.262  13.087   4.422 -0.2837  0.1702 -0.0400
 9791W        W25925  12.665   1.680  13.166 -0.1502 -0.0110  0.0566
 9792W        W25926   8.508  15.846   6.199 -0.0804  0.0821  0.1294
 9793W        W25927   4.305   6.965   1.158 -0.0916  0.1040 -0.0919
 9794W        W25928   5.369  12.543   1.568 -0.1898 -0.0071 -0.0918
 9795W        W25929  15.737   9.458   1.456 -0.2275  0.1892  0.0274
 9796W        W25930  15.754   7.941   5.307  0.0373 -0.0420  0.1156
 9797W        W25931   1.665   2.689   1.273 -0.1091  0.0750 -0.2361
 9798W        W25932   5.613   0.956  12.649  0.3190  0.1404  0.1226
 9799W        W25933  16.101   8.059  13.377  0.0631 -0.0052  0.0383
 9800W        W25934  18.383  12.551   0.171  0.0121 -0.3471  0.0652
 9801W        W25935   3.119   9.748  11.272 -0.0351  0.0212 -0.3709
 9802W        W25936  17.980   2.922  13.212 -0.1387  0.2938  0.2914
 9803W        W25937   8.299  11.206  13.695  0.0293  0.0367  0.1139
 9804W        W25938  12.298  14.841  13.428 -0.1450 -0.2173 -0.3522
 9805W        W25939   3.598  16.726   1.550 -0.3839 -0.2616 -0.1516
 9806W        W25940  10.202  13.359   1.377 -0.2377  0.0242  0.0855
 9807W        W25941   3.172  15.095  11.340  0.3022  0.1029  0.0836
 9808W        W25942   2.467  18.082   4.078 -0.3360 -0.0688 -0.2144
 9809W        W25943   8.153   1.868   1.351  0.0117  0.0634  0.0308
 9810W        W25944   2.973   9.335  14.540  0.0944 -0.2011  0.1491
 9811W        W25945  16.616   4.647  15.393  0.1850 -0.0108  0.1785
 9812W        W25946   9.143   5.013   1.232  0.1170 -0.1237 -0.0046
 9813W        W25947   6.984  15.522   1.040  0.0469 -0.0587  0.0027
 9814W        W25948  11.631   4.074   4.508 -0.4607 -0.1311  0.0736
 9815W        W25949   1.000   4.322   4.933  0.2925  0.2745 -0.1024
 9816W        W25950   6.568  17.053  11.596 -0.0686  0.2040 -0.0548
 9817W        W25951  12.210   8.127  11.716  0.2896 -0.0423  0.0076
 9818W        W25952   3.608  11.422   0.382 -0.2289 -0.3411  0.2092
 9819W        W25953  16.476  17.011  16.066  0.2362  0.3058  0.0571
 9820W        W25954   7.174   5.866   4.162 -0.2514 -0.1319  0.2189
 9821W        W25955  12.548   1.366   3.680 -0.0839 -0.2380 -0.4535
 9822W        W25956  14.956  14.728   1.330  0.0001 -0.2464 -0.0290
 9823W        W25957   7.566   3.693  15.042 -0.1928  0.0522 -0.0927
 9824W        W25958   8.128  13.298  10.478  0.0442 -0.0903 -0.1150
 9825W        W25959  11.615   3.373   5.753 -0.1635  0.2399 -0.1079
 9826W        W25960  16.507  16.817   3.510  0.0045  0.1451  0.0433
 9827W        W25961   1.396  16.669   2.438 -0.2995  0.3199 -0.1600
 9828W        W25962   9.125   5.260   2.769 -0.1713  0.1319 -0.1564
 9829W        W25963  11.150   0.615  14.431 -0.0231  0.0340  0.0942
 9830W        W25964   8.584   2.273   4.377 -0.1195  0.3702  0.1449
 9831W        W25965   4.937   5.301  14.289  0.2123 -0.2409 -0.0535
 9832W        W25966  17.082  14.300   5.257 -0.0232 -0.0967 -0.0453
 9833W        W25967   9.814  12.549  11.753  0.0395 -0.1509 -0.0330
 9834W        W25968   0.806  16.480  12.353 -0.0576 -0.4494  0.3305
 9835W        W25969   9.081   8.702  11.601  0.3155  0.1109 -0.0577
 9836W        W25970  17.501  13.386  13.571 -0.1983  0.0400  0.2830
 9837W        W25971   2.768  14.991   3.681  0.0046 -0.2168  0.0762
 9838W        W25972   4.236   0.366  11.357 -0.1434  0.2222  0.0931
 9839W        W25973   6.859  15.185   2.581  0.5253 -0.0940  0.1973
 9840W        W25974   6.274  18.032  15.143 -0.0997  0.2734  0.0770
 9841W        W25975   0.989   9.122  13.004 -0.3192 -0.3037  0.0692
 9842W        W25976  11.643   8.747   5.922  0.2415 -0.0447  0.0908
 9843W        W25977  10.638  14.262  11.812  0.2366 -0.0940 -0.1525
 9844W        W25978   3.729  17.699  14.373  0.0261 -0.0422  0.0929
 9845W        W25979  18.461  16.937   1.243 -0.0670 -0.0268 -0.2781
 9846W        W25980   9.159  11.454   2.796 -0.0591  0.2841  0.2351
 9847W        W25981  16.052  12.979  11.220  0.0085 -0.0362  0.0398
 9848W        W25982   9.587  10.330   3.200 -0.0006  0.0122 -0.0884
 9849W        W25983  12.793  18.107  11.698 -0.0264 -0.0630 -0.3094
 9850W        W25984   9.618   3.717   0.510 -0.2065  0.1788 -0.0071
 9851W        W25985  15.873   2.376  14.018  0.1861 -0.1787 -0.0589
 9852W        W25986   9.594  16.694   5.783 -0.1126 -0.1396  0.0553
 9853W        W25987  16.168   3.286   4.361  0.1468  0.0336  0.3380
 9854W        W25988  12.524  10.118  15.850 -0.0202 -0.0061 -0.0933
 9855W        W25989   3.980   7.096   3.059  0.0574 -0.1024 -0.0480
 9856W        W25990  18.239   6.446   4.322  0.0705 -0.0320 -0.0510
 9857W        W25991  15.211   3.301   0.493  0.0642  0.3046  0.1245
 9858W        W25992   5.023  12.094  13.186 -0.0708 -0.0418 -0.2218
 9859W        W25993   4.983  10.425   4.603 -0.2696  0.2451  0.1223
 9860W        W25994  16.101  13.560  13.448 -0.1675  0.2282  0.1857
 9861W        W25995   9.383  12.247   0.269 -0.1761 -0.0620  0.3425
 9862W        W25996   7.664  16.166   0.414  0.1453  0.1405 -0.4177
 9863W        W25997   2.456  15.730   2.255  0.3285  0.0466  0.1663
 9864W        W25998  15.178  17.594  15.142 -0.4213 -0.0656  0.1644
 9865W        W25999  16.505  10.281   1.342  0.0223  0.2048  0.1289
 9866W        W26000  18.175   6.843  14.471 -0.0141  0.0841  0.3902
 9867W        W26001   3.895  15.132  15.736  0.1272 -0.5049 -0.1358
 9868W        W26002  11.684  17.243   1.160  0.0179  0.2534 -0.0530
 9869W        W26003   5.583   7.239  14.480 -0.0239 -0.0084  0.1509
 9870W        W26004  14.644  13.556  10.101  0.0047  0.1538  0.1714
 9871W        W26005  16.748  10.248  13.989  0.0798 -0.0692 -0.1330
 9872W        W26006   4.257   6.320   0.523 -0.0412  0.1764 -0.0015
 9873W        W26007  13.323   6.020  12.548 -0.1826 -0.1459  0.3481
 9874W        W26008  18.485  17.790   3.620 -0.2276  0.1742  0.0522
 9875W        W26009  16.396  14.800   0.018 -0.1368 -0.0277  0.0056
 9876W        W26010  10.001  15.948  12.302 -0.0633  0.1046  0.1291
 9877W        W26011  17.143   1.075   1.254 -0.1630  0.0306 -0.2587
 9878W        W26012  11.268   5.913  16.053  0.1824  0.0500  0.0682
 9879W        W26013   5.753  12.736   4.227 -0.1874 -0.1774 -0.0722
 9880W        W26014   5.247   4.160   1.780  0.0137 -0.1957 -0.0409
 9881W        W26015  17.708  10.361  12.155  0.0415 -0.1438 -0.0357
 9882W        W26016   4.452   7.816   3.056 -0.0872  0.2077  0.0262
 9883W        W26017   1.122   0.493   4.769 -0.0473  0.0017 -0.2472
 9884W        W26018  10.088   4.939   0.725 -0.3926 -0.0081  0.2204
 9885W        W26019   4.373   2.417   0.295 -0.3050 -0.1016  0.0204
 9886W        W26020  11.578  12.888  12.447 -0.0090 -0.1309  0.0432
 9887W        W26021  16.173   0.658  13.306  0.0918  0.2010 -0.3388
 9888W        W26022   8.381  10.960  11.614  0.4380 -0.4479  0.0519
 9889W        W26023   5.004  15.090  13.626  0.2038 -0.2921 -0.2565
 9890W        W26024   3.265  12.381  11.997  0.0513 -0.1662  0.0074
 9891W        W26025  12.660  12.096   4.602 -0.2470  0.0614 -0.0085
 9892W        W26026   6.362   9.264   0.012  0.1359  0.3312 -0.1198
 9893W        W26027   2.672  17.682  15.731  0.3252 -0.2664 -0.0574
 9894W        W26028   0.124  15.757  13.312 -0.0853  0.0453 -0.0779
 9895W        W26029  13.144  14.699  15.302 -0.1343  0.0742  0.1647
 9896W        W26030  15.610   0.650  11.882  0.0319  0.2592  0.1344
 9897W        W26031  12.980   4.748   2.302  0.0152  0.2238  0.1520
 9898W        W26032   3.732   0.623   0.471  0.2194  0.0977 -0.3295
 9899W        W26033  13.322  10.290  14.665 -0.2659 -0.0420 -0.3821
 9900W        W26034  15.773  12.552  12.124 -0.0861  0.2114 -0.2065
 9901W        W26035  14.478   4.020   1.528 -0.1577  0.1698 -0.0331
 9902W        W26036  14.309  15.409  15.824  0.0539  0.2075 -0.1607
 9903W        W26037   1.768   8.825  15.992  0.3021  0.3386 -0.0492
 9904W        W26038  11.514   7.554  11.866 -0.0845 -0.1435  0.3081
 9905W        W26039   5.647   1.545  15.888 -0.4437  0.0900  0.0919
 9906W        W26040  15.760  11.081   4.249  0.1210 -0.0254 -0.2595
 9907W        W26041   7.351  16.072   2.995  0.2666  0.3935  0.1632
 9908W        W26042   3.176  15.420   4.393  0.1317 -0.1317 -0.1103
 9909W        W26043   1.318   0.187   2.053  0.1590  0.0556  0.3205
 9910W        W26044   1.260  15.609   3.348  0.0249  0.0801  0.1360
 9911W        W26045   4.760   8.925   5.462  0.1271  0.3226 -0.2388
 9912W        W26046  14.222  13.221  10.966 -0.1195 -0.0195  0.2923
 9913W        W26047   5.680   3.788  15.732 -0.3236 -0.1028  0.2187
 9914W        W26048   3.130  10.342   1.122  0.0600  0.0216  0.1041
 9915W        W26049   0.190  12.762  12.414 -0.0481 -0.0285  0.3974
 9916W        W26050  17.212  16.465  13.579 -0.1294  0.0550 -0.1689
 9917W        W26051   4.698  14.486   0.702 -0.0460 -0.1910  0.1244
 9918W        W26052   4.436  16.368   0.238 -0.0157  0.1082  0.4031
 9919W        W26053   2.358  12.017  12.824  0.0570  0.2209  0.4544
 9920W        W26054  11.178   9.047   0.686  0.2743  0.0335  0.2136
 9921W        W26055   5.266  16.728  11.879 -0.0458 -0.1556  0.2924
 9922W        W26056   1.231  15.386   2.851 -0.2196  0.1468  0.0525
 9923W        W26057  15.437  14.137   3.262  0.0933 -0.1531  0.1338
 9924W        W26058   3.931  15.503  13.397  0.1458  0.0437  0.0150
 9925W        W26059  17.023   9.321   5.203 -0.1756 -0.0425 -0.0947
 9926W        W26060   7.464   6.632  14.281  0.1524 -0.0267 -0.3009
 9927W        W26061  10.389  18.155  12.087  0.0879 -0.0279  0.2473
 9928W        W26062   7.520  15.505  11.587 -0.0129 -0.2359 -0.0217
 9929W        W26063   3.806   8.883  11.640 -0.1296  0.2470 -0.1186
 9930W        W26064  18.435   7.886   1.662  0.0459  0.0704  0.1210
 9931W        W26065   2.623  13.161   1.247 -0.0270 -0.3453  0.0390
 9932W        W26066   4.479   5.906   1.464 -0.1278  0.0877  0.1486
 9933W        W26067  13.411  10.041   3.272 -0.3126  0.1241 -0.0454
 9934W        W26068   6.577   1.023  12.816 -0.1049 -0.0174 -0.0828
 9935W        W26069  17.335  13.480   2.359 -0.0183  0.1603 -0.2120
 9936W        W26070   2.012   4.423   9.820 -0.0247  0.1418 -0.1427
 9937W        W26071  12.203   8.503   0.134 -0.1931 -0.3325 -0.1983
 9938W        W26072  16.125   1.812  15.199  0.0873 -0.3051  0.0443
 9939W        W26073  12.945   8.585  14.301 -0.0113 -0.3037  0.1200
 9940W        W26074  17.174   3.035   1.457 -0.1196 -0.1099  0.2312
 9941W        W26075   9.564  12.512  13.200 -0.4357  0.0411  0.1381
 9942W        W26076   1.126   5.736   1.217  0.2145 -0.1958  0.1426
 9943W        W26077   0.707   0.337  11.182  0.3397 -0.1758 -0.1234
 9944W        W26078   5.859   6.439   3.457 -0.1560  0.2546  0.1362
 9945W        W26079  12.688  16.976  12.607 -0.1344  0.0991 -0.1583
 9946W        W26080   8.664   6.243  15.456 -0.2550 -0.1603  0.1750
 9947W        W26081  15.101  12.783   0.659 -0.3942  0.1766 -0.2205
 9948W        W26082   0.948  13.319   4.726  0.2079 -0.1037 -0.4413
 9949W        W26083   5.700   8.472   4.503  0.0334  0.1139 -0.1708
 9950W        W26084   9.188  10.751   3.188 -0.2880 -0.0972 -0.1539
 9951W        W26085  15.559  18.232  13.751 -0.1150  0.4110  0.1321
 9952W        W26086   4.691   0.720  12.704 -0.0844 -0.0791 -0.1088
 9953W        W26087   5.577   3.894   3.680 -0.0606  0.1073 -0.3314
 9954W        W26088   8.141   6.679   4.199  0.0238 -0.0655 -0.1560
 9955W        W26089  17.496   5.558   3.200 -0.1478  0.0942 -0.0741
 9956W        W26090   2.523   6.348   9.808 -0.0226 -0.0082  0.0306
 9957W        W26091  17.326   2.254  14.386  0.0110 -0.2085 -0.1226
 9958W        W26092   3.081   5.006   1.923  0.1065 -0.2605 -0.2103
 9959W        W26093   7.020  15.108   3.059 -0.1257  0.0331 -0.6268
 9960W        W26094  17.927   0.724  10.095 -0.0273 -0.0523 -0.1125
 9961W        W26095   0.782   8.262  10.657 -0.2481  0.4021  0.1252
 9962W        W26096   8.653  11.724   3.963  0.1305 -0.1711  0.1917
 9963W        W26097  10.607   7.582   2.744  0.0043 -0.0269  0.2920
 9964W        W26098  11.820  13.516   1.160  0.0049 -0.0504 -0.2136
 9965W        W26099  10.818  17.193   2.467  0.0838 -0.2252  0.3368
 9966W        W26100  15.793   3.359  12.454 -0.0138 -0.1490  0.4334
 9967W        W26101  14.617  15.397  12.762  0.2279  0.4591 -0.1995
 9968W        W26102  12.966   9.562   2.173  0.1494 -0.2258 -0.0622
 9969W        W26103  14.956   5.903   3.371  0.0158  0.0134 -0.1925
 9970W        W26104   2.326  13.603   5.014  0.0055 -0.2012  0.0660
 9971W        W26105   5.734   3.901   2.009 -0.0137  0.0684 -0.0071
 9972W        W26106   0.303  18.179  12.564  0.3256 -0.0009 -0.0156
 9973W        W26107  10.431  14.342   4.255 -0.2018 -0.2398 -0.1776
 9974W        W26108   3.523  10.066  10.945 -0.1717 -0.0188 -0.0357
 9975W        W26109   4.100  15.862   2.551 -0.1319 -0.1174  0.1652
 9976W        W26110   6.033   6.736  13.381 -0.0902  0.3567  0.0970
 9977W        W26111  14.866  14.455   3.069 -0.0285  0.1349 -0.1734
 9978W        W26112  16.230  14.366   4.129  0.0570  0.0585 -0.1360
 9979W        W26113  12.709   8.938  13.267  0.0301  0.1898  0.0084
 9980W        W26114  16.238   6.490   3.316 -0.1621 -0.2943  0.1342
 9981W        W26115   8.161  13.770  13.620  0.1586 -0.0724  0.3972
 9982W        W26116   6.390  15.931  12.991 -0.0391  0.1823  0.1018
 9983W        W26117   0.265   2.534  13.641 -0.4601 -0.0472 -0.0803
 9984W        W26118   9.882   2.520  11.760  0.0977  0.1864 -0.0688
 9985W        W26119   5.254  16.392  15.979 -0.2419 -0.0384  0.1290
 9986W        W26120  17.889   3.100  12.731  0.1396  0.0361  0.3852
 9987W        W26121  11.238  15.328   0.658 -0.0672 -0.0865 -0.1099
 9988W        W26122   5.871   9.138  12.701 -0.0416 -0.2309 -0.0562
 9989W        W26123  13.472  12.189   5.517  0.0918  0.3769 -0.0552
 9990W        W26124   6.490   1.554   5.727  0.1297 -0.1921  0.2363
 9991W        W26125  16.421   5.272   1.936  0.1410 -0.2624 -0.3297
 9992W        W26126  15.516   5.086   5.641  0.0502 -0.4885 -0.0409
 9993W        W26127  17.397  14.051  15.358 -0.0666 -0.0721  0.4695
 9994W        W26128  16.215  10.156  12.801  0.2155 -0.0664 -0.0039
 9995W        W26129   0.411  14.132   3.110  0.1501 -0.1402  0.1642
 9996W        W26130   7.530  12.827  14.162  0.0722 -0.0815  0.0096
 9997W        W26131  15.061  14.643  13.810 -0.1414  0.2558  0.1874
 9998W        W26132  12.997  15.205   1.514  0.0121 -0.1897  0.1987
 9999W        W26133   2.723   8.018   0.903 -0.2189 -0.0380 -0.0355
10000W        W26134  12.908   8.373   3.179 -0.3390  0.1913 -0.1093
10001W        W26135   0.202   7.024  13.278  0.1148  0.2632  0.2118
10002W        W26136   6.445   8.226   3.829  0.0182  0.0802  0.1894
10003W        W26137   4.785  18.165   0.714  0.3365  0.1138  0.0653
10004W        W26138   5.575   0.343   1.781  0.0537  0.1700 -0.0025
10005W        W26139   7.964  15.288  14.812 -0.1293  0.2056  0.3306
10006W        W26140   5.417   0.651   2.885 -0.0743 -0.0663 -0.1696
10007W        W26141  16.252   9.567  13.092 -0.2835 -0.2448 -0.1446
10008W        W26142  11.828   0.439  11.961  0.0310 -0.2023  0.0571
10009W        W26143   4.016  13.734   3.872  0.0009 -0.0171 -0.1305
10010W        W26144  18.257   1.202  11.309  0.3342 -0.2582  0.1333
10011W        W26145  12.208   7.523   1.673 -0.1008 -0.1089 -0.0315
10012W        W26146  17.942   7.586   4.236  0.0799 -0.0505  0.1662
10013W        W26147  13.329  17.728  12.756  0.3276 -0.2668 -0.0879
10014W        W26148  11.567   6.400  14.464 -0.2523 -0.0180 -0.0462
10015W        W26149  17.307   6.772  12.036 -0.0229  0.0001 -0.2538
10016W        W26150   4.306   8.648  12.615 -0.0135  0.1013  0.0735
10017W        W26151  11.802  16.656  14.927  0.2219  0.1646 -0.0513
10018W        W26152  15.575  13.479   2.135 -0.1228 -0.1483  0.2400
10019W        W26153   7.397   5.034  12.659  0.0921  0.0219 -0.0222
10020W        W26154  12.405  12.199   2.370 -0.2618  0.0887  0.0543
10021W        W26155   3.975   9.210   2.411 -0.2855  0.1394  0.2493
10022W        W26156  16.182  16.742  12.085 -0.3384 -0.0525  0.0410
10023W        W26157   3.178   0.765  13.829  0.0023  0.1928  0.2020
10024W        W26158   8.642  15.124  13.224 -0.2278  0.1868  0.0175
10025W        W26159  17.585  10.175  11.243  0.0984 -0.0019  0.2377
10026W        W26160  13.645   2.763   4.812  0.1128 -0.1534 -0.3113
10027W        W26161  13.451   8.163   0.971  0.0529  0.0514 -0.2458
10028W        W26162   0.935   3.270   1.545  0.0893 -0.0819  0.2903
10029W        W26163   8.382  16.355   1.211  0.0045  0.0117  0.1228
10030W        W26164  10.078   8.759   1.994  0.0048 -0.2655  0.2646
10031W        W26165   9.589   3.457  11.781  0.2064  0.0362  0.0269
10032W        W26166   9.363  18.231  12.385  0.1888  0.0326  0.0414
10033W        W26167  12.339  16.851   0.227  0.4952  0.1487  0.2079
10034W        W26168   1.517  17.439  11.561  0.0317  0.1118 -0.1873
10035W        W26169   3.733   3.209  13.822 -0.3442  0.0343  0.0495
10036W        W26170   4.583   8.493  15.419 -0.2606  0.3704 -0.2936
10037W        W26171  14.361   3.855  14.818  0.2976 -0.1953 -0.0685
10038W        W26172  13.081   6.398   0.375  0.3873 -0.1270 -0.0912
10039W        W26173  10.682   9.925  15.185  0.4578 -0.0541  0.1889
10040W        W26174  16.025  10.453  14.791  0.1913 -0.0508 -0.4427
10041W        W26175   4.254  11.187  15.260 -0.0336  0.1080 -0.1941
10042W        W26176  17.090   3.403   4.121  0.0753 -0.0645  0.0765
10043W        W26177   9.970   4.919   3.034  0.0628 -0.1051 -0.0916
10044W        W26178  16.934  14.492   3.430  0.1507  0.1237  0.0617
10045W        W26179   2.363  15.729  12.020 -0.0678 -0.3560 -0.1943
10046W        W26180  17.845  16.290   2.227 -0.1274  0.0399  0.0037
10047W        W26181   9.042   3.897  13.262  0.1540  0.0147  0.4583
10048W        W26182  12.861   8.640   5.082  0.3651  0.0419  0.2040
10049W        W26183  15.328  18.453  11.627 -0.2296 -0.0473  0.1468
10050W        W26184  13.190  11.679  13.933 -0.1534 -0.0240 -0.0380
10051W        W26185   9.868  18.064   2.982  0.0648 -0.1605  0.0439
10052W        W26186   4.500  14.535  14.535 -0.0598 -0.6200 -0.0872
10053W        W26187   9.319   7.109  15.481 -0.2238  0.4994  0.0151
10054W        W26188   8.991  17.675  14.115 -0.0477  0.2985 -0.2057
10055W        W26189   6.036   3.606   3.497  0.1604 -0.0960 -0.2973
10056W        W26190  14.509   2.946   4.952  0.3010  0.0783  0.0063
10057W        W26191   1.305   6.803  12.013  0.1886  0.0679 -0.1259
10058W        W26192  14.788   7.646   5.315  0.1400 -0.1035 -0.0466
10059W        W26193   3.483  16.534  12.347 -0.1646  0.1630 -0.0539
10060W        W26194   7.180   3.907  14.183 -0.0476 -0.4414  0.2050
10061W        W26195   3.708   1.513   2.471 -0.1822 -0.0506  0.0671
10062W        W26196  14.017   6.088  13.624 -0.1070 -0.1943 -0.1936
10063W        W26197   0.372   4.889  15.627 -0.2267 -0.1180  0.4811
10064W        W26198   0.080  17.836  15.401  0.0861 -0.1446  0.2005
10065W        W26199   4.579  14.122  13.569  0.1433  0.2508 -0.2257
10066W        W26200   0.083   9.710  13.208 -0.1452 -0.1034  0.0778
10067W        W26201   2.430   3.379  11.041 -0.1280  0.0331 -0.3337
10068W        W26202  12.090   5.433  11.510  0.1500  0.0082  0.1960
10069W        W26203   1.443   7.618  14.128  0.0613  0.1531  0.1573
10070W        W26204   9.289  15.134  14.071  0.0968 -0.1053 -0.2556
10071W        W26205   3.154   8.333   1.654  0.1903 -0.1818  0.3385
10072W        W26206   4.189   1.495  14.546  0.0246  0.0934  0.0256
10073W        W26207   1.076  17.256   3.841 -0.1052 -0.0245  0.0498
10074W        W26208  10.717   2.804  12.160 -0.2281  0.2296 -0.2440
10075W        W26209   8.150  13.686  14.559  0.1895 -0.3801 -0.0803
10076W        W26210  14.452  15.543  13.770 -0.2903 -0.0790 -0.1037
10077W        W26211   0.502  15.696   3.901  0.0941  0.0890  0.0170
10078W        W26212   2.605  11.908   3.457 -0.2037 -0.1732  0.3453
10079W        W26213   1.339  13.336  10.424  0.3624  0.1268  0.0122
10080W        W26214   0.410  12.020   0.278 -0.1430 -0.0796 -0.0392
10081W        W26215   1.587  18.306   1.856 -0.0408  0.3355  0.0002
10082W        W26216   0.475  14.147   1.759 -0.1903  0.1141 -0.0773
10083W        W26217  13.845   0.475  15.841  0.0207 -0.2760 -0.3386
10084W        W26218   8.372   9.842   5.342  0.0613 -0.2887 -0.1160
10085W        W26219  12.968   4.727  14.880 -0.1772 -0.1235  0.1097
10086W        W26220  18.060   6.885  11.227 -0.1303 -0.4355  0.0573
10087W        W26221  18.117  18.148   4.338  0.0885  0.2472 -0.0763
10088W        W26222  16.293   2.367  14.300  0.0995 -0.2106  0.1646
10089W        W26223   0.870   6.045   1.693 -0.0081 -0.0205  0.1596
10090W        W26224   5.327   4.327   3.579  0.0598  0.0924 -0.1230
10091W        W26225   2.668   2.335  12.913  0.1292 -0.2934  0.1843
10092W        W26226  14.477  17.033   1.224  0.0106  0.1296 -0.0459
10093W        W26227   0.493   2.809  15.008  0.2497  0.0850 -0.4358
10094W        W26228   0.927   1.720   9.584 -0.2918  0.3186 -0.3867
10095W        W26229   2.026   0.475  10.993  0.1988 -0.0415  0.0050
10096W        W26230  16.959  14.884  15.498  0.1924 -0.0407 -0.2173
10097W        W26231  10.550   3.714  13.928 -0.3287 -0.1423 -0.0358
10098W        W26232   0.628   5.230   3.590 -0.1733  0.1682  0.5015
10099W        W26233   7.804  10.286   5.142 -0.0453 -0.1411 -0.1380
10100W        W26234   9.246  12.190   1.634  0.1219  0.0141 -0.1210
10101W        W26235  15.329   8.603   4.028 -0.3332 -0.0958  0.1067
10102W        W26236  17.022  15.762  12.163  0.2517  0.2217 -0.1282
10103W        W26237   8.705   4.757   3.964  0.0472 -0.0885  0.2930
10104W        W26238   6.752  10.832  14.112 -0.1632 -0.1055  0.1566
10105W        W26239   7.224  10.053   3.117  0.5279 -0.0915 -0.1304
10106W        W26240  15.488   5.060  13.597 -0.1630  0.2799  0.0381
10107W        W26241   6.299  14.495  14.885 -0.1256  0.0200  0.0218
10108W        W26242   5.999   4.048   5.012 -0.1602  0.3084 -0.0154
10109W        W26243  15.523  13.605   0.376 -0.0896 -0.1025  0.1062
10110W        W26244  17.185   0.213   4.468 -0.0885 -0.3652 -0.1253
10111W        W26245   4.530  14.661  11.481  0.1215  0.1624  0.2552
10112W        W26246  14.713  13.228   2.175 -0.0640 -0.1754 -0.1208
10113W        W26247  17.153  14.518  12.282 -0.0264 -0.1192  0.0309
10114W        W26248   2.130  15.501   3.595 -0.1226 -0.2000  0.0037
10115W        W26249   2.595  14.873  15.222 -0.1218  0.0239 -0.0015
10116W        W26250  12.807   5.219   4.472  0.4148  0.1472 -0.2145
10117W        W26251   1.976  18.066   4.681 -0.1281 -0.0871  0.3271
10118W        W26252   0.742   1.779  13.333  0.1975  0.0067 -0.1102
10119W        W26253   5.764   9.752   0.126  0.1525  0.1909  0.1840
10120W        W26254  10.997  11.484  14.374  0.1444 -0.0364  0.1662
10121W        W26255  15.372  17.065   4.531 -0.0386 -0.0192 -0.2527
10122W        W26256   3.451  13.543   4.862 -0.0836  0.0419  0.0055
10123W        W26257   8.043   4.098   1.492  0.2109  0.0637  0.0454
10124W        W26258  13.816   4.464   0.669 -0.0544 -0.6049 -0.0020
10125W        W26259   7.688  11.005   4.463 -0.1233 -0.2186 -0.1481
10126W        W26260   6.839   2.590  15.261  0.1350  0.2425  0.3784
10127W        W26261   3.075  17.675   0.956 -0.0206 -0.1604  0.1523
10128W        W26262   5.704   8.240  11.902  0.0427  0.0952  0.2404
10129W        W26263  11.008  18.442   5.861  0.1573  0.1875  0.4385
10130W        W26264   4.764  14.934  10.629 -0.1170 -0.1862  0.0130
10131W        W26265   4.963   3.155  12.609 -0.1125 -0.1625 -0.2680
10132W        W26266   4.172   8.625  15.660  0.2588 -0.4306 -0.0940
10133W        W26267   3.715  14.052  13.443  0.0781 -0.1157  0.2039
10134W        W26268   7.648   5.897  11.688 -0.3437 -0.1101 -0.1689
10135W        W26269   2.715   9.176   2.226  0.0771 -0.0131  0.4056
10136W        W26270   4.644   4.351   1.765 -0.0791  0.0508  0.0316
10137W        W26271   2.771  16.254  11.737  0.5054 -0.0267 -0.3816
10138W        W26272   1.362  16.810   4.633  0.0292 -0.0529  0.4405
10139W        W26273  17.845   6.789  16.035 -0.1194 -0.1665 -0.0493
10140W        W26274  14.536  18.091   2.514  0.0025 -0.0670  0.0791
10141W        W26275  11.122  14.063   1.813 -0.2454 -0.0179 -0.0872
10142W        W26276   5.811   9.059  11.214 -0.2746 -0.1839  0.0591
10143W        W26277   1.545  16.511  13.391  0.0032  0.1067 -0.5192
10144W        W26278  11.274  17.202   5.847  0.1069 -0.0742  0.0084
10145W        W26279  12.847  12.170   4.076 -0.1086 -0.1644 -0.0883
10146W        W26280   9.065  18.382   3.255 -0.0967  0.0103  0.2574
10147W        W26281  13.264  11.119   4.283  0.2365  0.0691 -0.0598
10148W        W26282  14.187  13.677   5.432 -0.2662  0.0112 -0.0692
10149W        W26283   4.503   9.466   0.019  0.0032  0.0065 -0.0806
10150W        W26284  15.634  15.619   4.488 -0.1207  0.0184 -0.1279
10151W        W26285   2.180   6.805  10.948  0.1812  0.3449 -0.1406
10152W        W26286   2.811  10.047   1.625 -0.2828  0.0259  0.0857
10153W        W26287  10.296   1.926  13.250 -0.1628  0.1199 -0.0533
10154W        W26288   6.187   2.184  14.112 -0.0193  0.0508  0.1312
10155W        W26289  11.982  12.185   1.186  0.0554 -0.3186  0.2723
10156W        W26290  13.210  10.782  14.678 -0.0974  0.1051  0.1873
10157W        W26291  15.558  10.006   0.752 -0.1853 -0.2439  0.0730
10158W        W26292  16.952   5.816  14.231 -0.1987 -0.3289  0.2744
10159W        W26293   0.294  10.634  12.919 -0.1705  0.0810 -0.0652
10160W        W26294  10.458  16.852  12.830 -0.0002 -0.1055 -0.0233
10161W        W26295   7.421   6.901   4.953  0.1639 -0.1806  0.0393
10162W        W26296   3.126  10.929   3.961 -0.0186  0.0692 -0.0194
10163W        W26297  13.989   7.429   1.223  0.0735 -0.0968  0.1462
10164W        W26298  15.049  13.521  11.645  0.2796  0.3738 -0.3807
10165W        W26299   6.193   8.962   1.702  0.1710 -0.0976  0.1745
10166W        W26300  16.253   7.753   4.021 -0.3768 -0.1896  0.1668
10167W        W26301  18.337   9.362  12.987  0.0361 -0.1689 -0.1097
10168W        W26302  14.143   8.266   1.647  0.2575 -0.1302  0.0409
10169W        W26303   7.953  15.748  13.201  0.1210 -0.1918 -0.0108
10170W        W26304  17.315   7.227   2.791  0.1944 -0.0133 -0.0755
10171W        W26305  12.166  14.850  12.525 -0.2268  0.3603  0.3414
10172W        W26306   5.802  12.361   4.588  0.0271  0.1493 -0.0210
10173W        W26307   5.279  11.098  14.730 -0.3244  0.1485 -0.1397
10174W        W26308  17.272   1.840   2.851 -0.0878 -0.2248  0.3696
10175W        W26309  16.369  13.806  15.827 -0.0328 -0.1786 -0.0658
10176W        W26310   0.836   6.249  14.940 -0.1047  0.0558  0.1575
10177W        W26311   6.019  12.383  15.524  0.0619  0.1417  0.2394
10178W        W26312   0.167  15.066  15.532 -0.0322  0.3043 -0.2468
10179W        W26313   3.836  15.396  11.960  0.0844 -0.0265  0.2375
10180W        W26314   7.695   4.696   3.619  0.0438 -0.1181  0.0867
10181W        W26315   3.779   2.201  11.832 -0.2784  0.3392 -0.0147
10182W        W26316  16.185  14.413  13.018 -0.0273 -0.0186 -0.1269
10183W        W26317   0.949   8.123  12.470 -0.2389 -0.0581  0.2056
10184W        W26318   9.344   1.998   4.903 -0.2178 -0.0527  0.1710
10185W        W26319   7.512   0.374   2.390 -0.0130 -0.0480 -0.0154
10186W        W26320   1.527  12.339  12.372  0.1677  0.0910  0.0967
10187W        W26321   3.470  10.324   1.896  0.1111 -0.3161  0.2612
10188W        W26322   8.718  17.518  15.134  0.0018  0.0843  0.0380
10189W        W26323  12.491   5.970   1.664  0.0122 -0.1419 -0.0351
10190W        W26324   8.583   4.771   5.795  0.2223 -0.1823  0.1306
10191W        W26325   6.476  11.915  15.336  0.0841  0.2828  0.2161
10192W        W26326  14.029  12.855  13.664 -0.2926 -0.3466 -0.0485
10193W        W26327  11.725   0.410   5.089  0.0570 -0.2211 -0.0998
10194W        W26328  11.709   1.770  11.684  0.1500 -0.2266  0.2561
10195W        W26329  14.713  18.279  11.759  0.1023 -0.0206  0.0795
10196W        W26330   7.263   1.238   2.420  0.0894  0.0810  0.2362
10197W        W26331   3.429  14.032  11.448  0.1737 -0.1767  0.2676
10198W        W26332  11.381   0.027  13.727 -0.0879  0.2902  0.0630
10199W        W26333  14.408  17.074   3.342  0.0764  0.0819  0.0247
10200W        W26334   0.445  11.466   0.681  0.4901  0.3107  0.0398
10201W        W26335   0.191   4.235  11.960 -0.1333  0.1435 -0.0592
10202W        W26336   7.883  12.617   1.950  0.0017  0.0242 -0.4283
10203W        W26337   8.230  18.367   3.413 -0.1609 -0.2839 -0.0914
10204W        W26338   0.221   8.564   4.331 -0.1030 -0.0467  0.0180
10205W        W26339   1.142  15.188   3.668 -0.1127 -0.1749  0.0002
10206W        W26340  10.523   1.520  15.064  0.1142  0.3265  0.0855
10207W        W26341  14.909   3.493   2.081  0.3603  0.0392 -0.0420
10208W        W26342  16.519  17.847  12.462 -0.2879 -0.0590 -0.0247
10209W        W26343  16.412   1.007  11.390  0.2602  0.2667 -0.2156
10210W        W26344   1.197   2.816   3.416  0.2553  0.2358  0.1392
10211W        W26345  11.417   9.130   3.362  0.1192  0.2549  0.0491
10212W        W26346  12.570  13.337   3.117 -0.0055 -0.1210  0.2806
10213W        W26347  12.762   2.423  16.086 -0.2144  0.2636 -0.2460
10214W        W26348  13.214   7.982   4.920 -0.1421  0.4832  0.1836
10215W        W26349  16.160  15.255  13.664 -0.1257 -0.1522 -0.1059
10216W        W26350   9.193  10.337   5.704 -0.1559 -0.2253  0.0068
10217W        W26351  15.112   2.061   1.983 -0.3938  0.0271  0.2001
10218W        W26352   9.674   0.430  15.276 -0.3058  0.2069  0.0656
10219W        W26353  15.772  13.101  15.142 -0.1646 -0.1432  0.0829
10220W        W26354   7.846   2.799  12.613  0.0864  0.2367  0.0114
10221W        W26355  14.373  15.675   4.439  0.2199  0.2928 -0.0456
10222W        W26356   1.426  15.925  13.183  0.2648  0.0689  0.0599
10223W        W26357   6.744   8.660   4.796 -0.0739 -0.1646 -0.1174
10224W        W26358   5.214   3.370  14.911  0.0474 -0.1860  0.2829
10225W        W26359  11.750  11.299  14.804  0.2219 -0.0848 -0.1144
10226W        W26360   4.221   9.829  15.155 -0.1461 -0.1098 -0.0965
10227W        W26361   3.390   5.269   4.353  0.0650 -0.0328 -0.3003
10228W        W26362   1.623  11.724   3.702  0.0492 -0.0541 -0.0478
10229W        W26363  14.963  16.576  14.612  0.3034  0.0753 -0.1760
10230W        W26364   8.882  13.242   3.714 -0.0248  0.1623  0.0004
10231W        W26365  15.925  10.514  16.051  0.0202 -0.2282  0.1203
10232W        W26366  11.602  16.389   5.439 -0.1331 -0.1302  0.0666
10233W        W26367   5.581  12.461  12.504  0.1499 -0.4854 -0.0855
10234W        W26368  17.959   0.363  10.994  0.1036 -0.0173 -0.1059
10235W        W26369  18.354   5.017   5.227 -0.0371  0.0347 -0.0998
10236W        W26370  13.760   5.252  13.276 -0.0246  0.2774 -0.1331
10237W        W26371  11.294  10.058  12.845 -0.1674  0.0602 -0.1553
10238W        W26372  13.432  14.672   5.441 -0.0103 -0.3165  0.0402
10239W        W26373   1.061  12.117  15.063  0.0587  0.1100 -0.0024
10240W        W26374  13.098  14.912   1.932 -0.0347  0.0203  0.4117
10241W        W26375  18.074  16.430  15.579 -0.0622 -0.2095  0.0404
10242W        W26376   7.617   9.286   3.671  0.2392 -0.2408  0.0344
10243W        W26377   4.226  17.857  11.795 -0.1874  0.1163  0.0821
10244W        W26378  16.741   5.642   2.063 -0.1912  0.0571  0.2085
10245W        W26379  17.992   9.330  11.693 -0.1922  0.2233  0.0448
10246W        W26380   0.855  14.355  15.795  0.0139 -0.1248  0.2637
10247W        W26381  14.153  15.893  14.130 -0.0732 -0.0985 -0.2176
10248W        W26382   0.465   8.530   0.359 -0.2824  0.1043  0.2861
10249W        W26383   7.428   4.997   1.268  0.2349  0.1330  0.1278
10250W        W26384  13.442  13.191   5.151  0.0907 -0.0320  0.2007
10251W        W26385   2.543   6.028  14.978  0.1274  0.3266  0.1451
10252W        W26386   4.978  15.648   2.899  0.0043  0.0389 -0.1263
10253W        W26387   8.811   1.954   4.063 -0.1785 -0.2871 -0.5797
10254W        W26388   6.684   3.390   6.253  0.0940 -0.0607  0.2195
10255W        W26389  12.409  11.325   5.711 -0.2735  0.0331  0.0819
10256W        W26390  10.172   8.082   4.744  0.0134 -0.1557 -0.1921
10257W        W26391   8.919   7.178   4.103 -0.0708  0.1612 -0.1450
10258W        W26392   4.936  11.545   1.553  0.1716  0.0911  0.0610
10259W        W26393  10.699   1.041  14.271 -0.1948  0.1297  0.1685
10260W        W26394   3.742   9.875   5.271 -0.1100 -0.2437 -0.1337
10261W        W26395   6.560   0.353  15.387 -0.2226 -0.0487 -0.1964
10262W        W26396   4.143  17.628   3.760 -0.6282 -0.0303 -0.0610
10263W        W26397  14.292   8.389  16.002  0.1347  0.0686  0.0406
10264W        W26398   0.446  10.868   2.451  0.0551  0.3084  0.1976
10265W        W26399   2.148  13.755  10.540 -0.4765 -0.1324  0.2706
10266W        W26400  10.044   0.739  14.072 -0.1521  0.1502  0.3435
10267W        W26401   9.096   7.563   3.654 -0.0404  0.0590 -0.3014
10268W        W26402   1.659  14.504   0.199 -0.4493  0.3677 -0.2232
10269W        W26403   9.345   5.240  13.487 -0.1054 -0.2180  0.3751
10270W        W26404  13.897  11.003   1.514  0.1564 -0.0036  0.0165
10271W        W26405   4.556   5.631   5.432 -0.1009 -0.0952 -0.0599
10272W        W26406   9.770  16.231  13.474  0.1882 -0.3558 -0.0977
10273W        W26407  16.499  11.542   4.492  0.2777  0.1265 -0.0378
10274W        W26408  12.677   2.587  13.553 -0.0634  0.0481 -0.0953
10275W        W26409   9.895   8.904   2.510  0.2431  0.0816 -0.1912
10276W        W26410   9.662   8.887  14.145  0.0638 -0.2573 -0.2764
10277W        W26411   1.433   6.610   1.095 -0.0333  0.3675  0.3438
10278W        W26412   6.180  16.973   4.925  0.1573  0.0555  0.2184
10279W        W26413   9.792  16.751  13.259 -0.1888 -0.1182 -0.0479
10280W        W26414  16.936   2.096   0.411 -0.0041 -0.2288 -0.0279
10281W        W26415   2.611   8.201   1.354 -0.1085 -0.2552 -0.5025
10282W        W26416   4.541  10.254   3.546  0.0539 -0.6495  0.0447
10283W        W26417  18.144   5.132   4.170 -0.1675 -0.1393  0.3158
10284W        W26418  13.863  12.467  11.557  0.0500  0.6082 -0.3445
10285W        W26419   9.228  16.606   1.489  0.0585 -0.3916 -0.1600
10286W        W26420  15.928   7.323  13.004  0.1789  0.2621 -0.2739
10287W        W26421   0.463   0.410   3.009 -0.1032  0.4179 -0.1298
10288W        W26422  12.928  15.444  13.366  0.2001  0.2880  0.4165
10289W        W26423  15.498  17.865   1.046 -0.1225 -0.1022 -0.2312
10290W        W26424   3.599  12.740   0.205  0.1335 -0.0264 -0.0583
10291W        W26425   4.552   5.281   1.500 -0.0302  0.1769 -0.2176
10292W        W26426   2.172  11.851   1.960  0.0191  0.2839  0.2088
10293W        W26427   0.614   7.999   5.621  0.0071 -0.3729 -0.0560
10294W        W26428   8.709   4.238   0.710 -0.0269 -0.0334 -0.1513
10295W        W26429  17.724  16.933  12.679 -0.2201  0.2779 -0.1407
10296W        W26430  14.395  14.729   4.318 -0.3215  0.2049  0.2122
10297W        W26431  10.967  15.733   1.623 -0.2308 -0.0642 -0.1892
10298W        W26432   4.074   4.613  15.474  0.3013 -0.0415 -0.0604
10299W        W26433   0.437   2.081   3.672  0.0833  0.0732  0.0368
10300W        W26434  12.013  16.891  15.386 -0.1293 -0.0813 -0.1114
10301W        W26435   9.859  16.496   1.485  0.3403 -0.4985  0.2640
10302W        W26436   9.161   4.653  12.507  0.1301  0.0614  0.1132
10303W        W26437  17.833   3.751  13.467 -0.0107 -0.1435 -0.0710
10304W        W26438  14.429  17.430   3.670 -0.2260 -0.0852 -0.0215
10305W        W26439   8.273  16.220  13.039 -0.2479 -0.1783 -0.1626
10306W        W26440  12.995   8.682   6.297  0.0228  0.3606  0.0880
10307W        W26441  10.181   1.516  11.884  0.1942 -0.1118  0.0738
10308W        W26442  17.492  10.738   0.972 -0.0332 -0.0378  0.2037
10309W        W26443   2.355   2.420   2.518 -0.2337 -0.2802 -0.1434
10310W        W26444   2.457   6.713  12.312  0.5621  0.1763  0.1986
10311W        W26445   8.985   4.048  13.745  0.2073 -0.2400 -0.0273
10312W        W26446   6.920   8.616   2.870  0.3943 -0.0420 -0.4460
10313W        W26447   1.568  10.489  15.755  0.1039  0.0060  0.2566
10314W        W26448  11.525   1.908  14.853  0.1970 -0.1243 -0.0494
10315W        W26449  12.131   7.271  11.996 -0.3107  0.2407  0.0849
10316W        W26450  17.875   3.684  11.820  0.1099 -0.1215  0.2897
10317W        W26451   2.664  16.861   1.524 -0.1419 -0.2003 -0.0999
10318W        W26452  12.192   7.117  15.643 -0.0076  0.3309 -0.3636
10319W        W26453  14.962   3.505  15.611  0.1598  0.0917  0.1117
10320W        W26454  11.989  18.083  11.407 -0.1154 -0.0121  0.1633
10321W        W26455   0.929   1.465   2.298  0.0110 -0.3207 -0.0752
10322W        W26456  12.529  17.207   4.633  0.2155  0.1356  0.0174
10323W        W26457  13.120  17.548   3.779  0.0101 -0.0237 -0.1840
10324W        W26458   1.600   4.616  10.552  0.0368 -0.0786 -0.2318
10325W        W26459   7.031   2.857  12.465  0.0600 -0.1885  0.1665
10326W        W26460  11.281  17.663   0.473 -0.2157 -0.0305 -0.1106
10327W        W26461  17.859   1.072  11.609  0.1739 -0.0475  0.1516
10328W        W26462   1.303   9.345   4.044  0.0057 -0.0587  0.2691
10329W        W26463   8.487   6.032   0.727 -0.0533 -0.1179 -0.2598
10330W        W26464  16.956  15.886   1.248 -0.2377  0.1049  0.1539
10331W        W26465  16.775   0.424  11.830  0.0158  0.0899  0.0098
10332W        W26466   5.081   6.663   1.218 -0.0336  0.0149  0.0746
10333W        W26467  17.731   0.133  13.232  0.1934  0.1911  0.0182
10334W        W26468   1.978  14.053  12.231  0.0352 -0.1599 -0.0046
10335W        W26469  13.987   8.295  15.589  0.2973 -0.0125  0.0501
10336W        W26470   3.667   3.439  15.009 -0.0235  0.3604  0.0019
10337W        W26471   7.433   6.169  13.985 -0.2035 -0.1982 -0.4242
10338W        W26472   1.350   2.405   0.942  0.0064 -0.0837 -0.0866
10339W        W26473  17.181   3.990  12.391 -0.1925  0.0324 -0.0244
10340W        W26474   4.007   5.553   4.239  0.2672 -0.0379  0.1678
10341W        W26475  16.511  14.562   3.750 -0.0366  0.1679 -0.1249
10342W        W26476  12.992   5.138  13.727 -0.1278  0.4862 -0.2244
10343W        W26477   3.489  13.241  11.759 -0.1451 -0.1111  0.1354
10344W        W26478   6.311   4.749   2.769 -0.1325  0.1401  0.2484
10345W        W26479  14.064   8.731  11.293 -0.0324 -0.0726 -0.0240
10346W        W26480   9.757   7.068  11.950 -0.1061  0.3094 -0.0470
10347W        W26481   5.082  15.369  12.196 -0.0058 -0.1298  0.1645
10348W        W26482   4.771   4.672   4.295 -0.3249  0.1867  0.0492
10349W        W26483  13.686   9.623   0.593  0.3277 -0.0503  0.2137
10350W        W26484   8.122   8.249   4.984  0.1545  0.1636 -0.2321
10351W        W26485   8.588   3.900   4.710 -0.0041  0.2032 -0.0570
10352W        W26486  16.505  15.301  14.619 -0.2717  0.0551 -0.3909
10353W        W26487  10.028  15.056   3.570 -0.1923 -0.3711  0.1006
10354W        W26488   3.324  15.130  15.723  0.1677 -0.2374  0.1947
10355W        W26489   3.344   0.598  12.444  0.2791  0.0710 -0.2202
10356W        W26490   5.522  12.803  12.066  0.1760 -0.0014 -0.4143
10357W        W26491   8.237  17.314   6.157 -0.0804  0.1923 -0.0358
10358W        W26492  10.841  17.043   5.580 -0.1057  0.3416  0.0835
10359W        W26493  13.331   7.768  12.443  0.3232  0.0814  0.0640
10360W        W26494  13.487  15.502   4.755 -0.1915 -0.1147 -0.0513
10361W        W26495   6.822  18.319   4.712  0.1754 -0.0098 -0.1112
10362W        W26496  16.118   7.648  11.169  0.0765 -0.2300  0.0067
10363W        W26497  12.802  13.718  13.163 -0.2107 -0.1802 -0.1108
10364W        W26498  15.922  15.697   2.714 -0.0233  0.0613  0.2846
10365W        W26499  13.714   4.361   1.723 -0.0521 -0.1974 -0.1018
10366W        W26500   4.915  14.017  15.943 -0.1170 -0.0619 -0.0212
10367W        W26501   9.974  13.172   3.506 -0.5245 -0.1738  0.0221
10368W        W26502   0.559  14.849   2.364  0.3946  0.2304  0.0832
10369W        W26503  18.003   6.139  11.487  0.2014  0.0370 -0.4143
10370W        W26504   8.278  17.590   2.247 -0.0069  0.2378 -0.1363
10371W        W26505   6.149   5.105   5.610 -0.3219  0.0252 -0.0399
10372W        W26506  10.979  15.425   2.861 -0.0950  0.3186  0.2100
10373W        W26507  10.745  11.297   2.312  0.2026  0.1061  0.1065
10374W        W26508   2.875  16.995   0.165 -0.1215 -0.1223 -0.0098
10375W        W26509   5.949   8.310  12.800 -0.1177  0.0549 -0.0423
10376W        W26510   3.701   3.882  13.380 -0.3511 -0.0893  0.3281
10377W        W26511   9.190   9.795  15.444  0.0088 -0.0612  0.0550
10378W        W26512  13.845   3.397   4.263  0.1817 -0.1276 -0.3648
10379W        W26513   2.409   2.241   0.508 -0.1059 -0.1545  0.1103
10380W        W26514  17.023  11.748  15.727 -0.0504 -0.2463 -0.3895
10381W        W26515   7.553  15.755  15.002 -0.2141  0.0636  0.3567
10382W        W26516  12.654   1.332   0.658  0.0084  0.0387 -0.1010
10383W        W26517  15.350   1.280   0.085  0.0695  0.2273 -0.0408
10384W        W26518   5.419   8.807  15.731  0.1028 -0.2824  0.1382
10385W        W26519   2.124  17.115  10.924  0.3350  0.0588  0.1838
10386W        W26520   2.223  14.904   2.005 -0.1514 -0.0297  0.3404
10387W        W26521   9.343  17.936  13.487 -0.2856 -0.0498 -0.4363
10388W        W26522   1.134   1.680   5.037  0.0110  0.0535 -0.3132
10389W        W26523   1.319   0.230  12.268 -0.1703  0.1611 -0.1702
10390W        W26524  18.446  11.741  10.684  0.2729 -0.4145  0.0218
10391W        W26525   2.302   1.410   4.878 -0.4493  0.0147  0.1282
10392W        W26526  15.513   7.421   1.269 -0.2990 -0.3046  0.2106
10393W        W26527   0.889  13.288   5.464 -0.2052 -0.0679 -0.2728
10394W        W26528  14.956   5.103   2.009 -0.2557  0.1907  0.0841
10395W        W26529  15.454  10.739   1.502 -0.1208  0.0665  0.1203
10396W        W26530   1.282   5.112  14.550 -0.1699  0.2315 -0.0074
10397W        W26531  14.156  16.316  14.788  0.2326 -0.3756 -0.0397
10398W        W26532   6.435   3.800  13.579 -0.1089 -0.2528  0.0539
10399W        W26533   2.422  10.306  10.386  0.0382  0.0136  0.2188
10400W        W26534   4.972   3.004   1.223  0.3583  0.0924 -0.0334
10401W        W26535   0.816  13.528  12.359  0.2350  0.1042  0.0451
10402W        W26536  15.016   0.214  14.528 -0.2178 -0.1431  0.3567
10403W        W26537   8.539  11.099  15.347 -0.1837  0.1789  0.1282
10404W        W26538  15.845   2.732  11.732  0.0927  0.1331  0.5434
10405W        W26539  10.016  13.602   0.566  0.1266  0.0326  0.2337
10406W        W26540   1.106  10.902  12.171 -0.1320 -0.2000 -0.2202
10407W        W26541  15.568  12.037  10.007 -0.0112  0.0160  0.1013
10408W        W26542  17.611  13.783  11.935 -0.2035 -0.0514  0.1939
10409W        W26543   1.012  13.146  12.807  0.1126 -0.3009  0.0103
10410W        W26544  10.407  12.694   2.019 -0.0002 -0.0076  0.2623
10411W        W26545  12.713   3.610   2.817 -0.0026 -0.2766  0.2250
10412W        W26546   8.509   5.734   2.239 -0.1713  0.0506 -0.1861
10413W        W26547  10.139   6.165   3.215 -0.1453 -0.1285 -0.0200
10414W        W26548  10.333  15.347   2.086 -0.1236  0.4164  0.0507
10415W        W26549   3.763  12.447   4.992  0.3407 -0.0692  0.0752
10416W        W26550   4.974  17.519   2.296  0.3726 -0.1290 -0.2269
10417W        W26551   8.372   5.866  11.901 -0.2946  0.0089  0.2916
10418W        W26552  17.995   9.861  12.124  0.1727  0.3901  0.3266
10419W        W26553  12.917  12.993  15.385 -0.0122  0.0361 -0.1575
10420W        W26554  12.222  12.716  13.124 -0.0825  0.1750 -0.0389
10421W        W26555   8.498  15.576  12.397 -0.0499 -0.3824 -0.1788
10422W        W26556   7.553  17.923   3.718 -0.1074  0.0135  0.1709
10423W        W26557  16.078   1.483  16.064 -0.0542 -0.0992 -0.0330
10424W        W26558   5.226   7.323   2.833  0.2433  0.0657 -0.1668
10425W        W26559  14.984   3.367  12.040  0.0517 -0.3773  0.1527
10426W        W26560  15.976   5.782   5.574  0.0681 -0.2028  0.0355
10427W        W26561  15.140   6.998   2.615  0.2630  0.0842  0.0882
10428W        W26562   3.642  15.065   1.962 -0.0074 -0.2234 -0.1768
10429W        W26563   2.185   2.741   1.912 -0.1408 -0.0729  0.0814
10430W        W26564  17.951   5.287   3.243 -0.1910 -0.0997 -0.0566
10431W        W26565  16.638   2.235  12.925  0.0101  0.0378 -0.2403
10432W        W26566   6.168  15.865   1.370 -0.0605 -0.0929 -0.0972
10433W        W26567  15.763   0.199   4.372 -0.2260  0.3174 -0.0542
10434W        W26568   9.901  15.016   1.315  0.0201  0.1144 -0.0779
10435W        W26569  18.223  12.993   0.547 -0.2281  0.1663 -0.1553
10436W        W26570   5.104   8.576   2.209  0.1397  0.0532  0.1532
10437W        W26571   0.178   8.123  15.578  0.3213 -0.0004 -0.1526
10438W        W26572  10.326  17.758   1.766 -0.0675  0.2862  0.0784
10439W        W26573   2.047  14.704  14.859 -0.1626  0.0225 -0.0042
10440W        W26574   7.736   0.942   3.550 -0.2643  0.2104 -0.1844
10441W        W26575   7.378   0.313   2.906 -0.1362 -0.0650 -0.0643
10442W        W26576   4.869   3.641  14.605 -0.1829 -0.1091  0.2169
10443W        W26577   1.404   5.125   2.561  0.0452  0.1107 -0.1662
10444W        W26578  10.745   5.538   4.164 -0.1919  0.0612 -0.3329
10445W        W26579   1.253   4.864   2.112 -0.0749 -0.0112 -0.0217
10446W        W26580  16.201  10.789   4.242 -0.0873  0.1721  0.0361
10447W        W26581   8.647   8.004   4.451 -0.0355 -0.2904  0.2560
10448W        W26582   2.143   5.096   0.442 -0.2124 -0.3051  0.1081
10449W        W26583   6.202  10.323   3.658  0.0407 -0.2936 -0.0405
10450W        W26584   2.582  17.170  12.445  0.0238 -0.0652  0.1836
10451W        W26585   8.647   6.349   1.754  0.0117  0.4263 -0.1168
10452W        W26586   0.903  15.219   2.514 -0.0606 -0.2115 -0.4415
10453W        W26587  17.012   8.975  11.463  0.0729 -0.1705  0.4424
10454W        W26588   2.065   9.416   9.404 -0.4172  0.1424  0.0089
10455W        W26589  14.021   7.158   2.660 -0.0164  0.4522 -0.0363
10456W        W26590   1.488  18.180  12.208 -0.2423  0.1520  0.0128
10457W        W26591   4.456   8.200  15.041  0.0413  0.3140  0.1599
10458W        W26592  14.631   0.227   3.512 -0.2350 -0.1065 -0.0724
10459W        W26593   0.928  16.797   4.252  0.0331  0.0161 -0.0169
10460W        W26594  13.428  14.351   0.705 -0.1487  0.1401 -0.0516
10461W        W26595   8.054   8.379   1.530  0.0176  0.0511 -0.0752
10462W        W26596   3.457  18.188   2.960  0.0691 -0.2127  0.0656
10463W        W26597   8.881  16.761  12.598 -0.1522  0.2255 -0.2247
10464W        W26598   8.541  17.983   3.204 -0.3948 -0.0684  0.1192
10465W        W26599   3.273  12.231  15.310 -0.2132  0.0458  0.0321
10466W        W26600   4.110  17.749   5.542  0.2363 -0.2224  0.0254
10467W        W26601  10.210   6.153   3.966 -0.2136  0.0269 -0.0203
10468W        W26602   8.464  11.209   2.873 -0.1054 -0.1125 -0.0592
10469W        W26603  14.696  17.778   5.019  0.0733  0.0096  0.0911
10470W        W26604   1.626  11.168   4.867  0.3102  0.1239 -0.0321
10471W        W26605   9.911  13.071   0.561 -0.0548 -0.1531  0.1839
10472W        W26606   2.696   5.029  15.185 -0.2004 -0.2634 -0.0440
10473W        W26607   9.469  15.508   3.256 -0.0071 -0.1851  0.0367
10474W        W26608  14.527   8.142   1.877  0.0715  0.1593 -0.2216
10475W        W26609   6.800   6.870  11.246  0.2407  0.0539  0.0072
10476W        W26610   7.437  10.664  15.400 -0.1384 -0.0647  0.0068
10477W        W26611   5.809  15.293   5.040  0.1936  0.1877 -0.2090
10478W        W26612   2.374   2.439   4.357  0.1501 -0.0714  0.1574
10479W        W26613   0.901  14.112   2.999  0.1327 -0.1153 -0.3370
10480W        W26614  15.431  17.063  11.483  0.1522 -0.3539  0.1494
10481W        W26615   3.810  17.375  12.901  0.2567  0.1092 -0.0249
10482W        W26616  14.165   6.425  12.229  0.1435  0.1368  0.0102
10483W        W26617   8.443   4.264  16.037 -0.0906 -0.1718 -0.2245
10484W        W26618   9.577   3.390  13.963  0.0216 -0.1365  0.0836
10485W        W26619   9.607   7.359  14.524 -0.2992  0.2209  0.2220
10486W        W26620  15.537  16.437   3.710  0.1245  0.3071  0.2771
10487W        W26621   3.472   7.818  12.398  0.3689  0.0372  0.1512
10488W        W26622  15.542   0.005  15.112  0.1230  0.2879  0.1884
10489W        W26623   9.077   2.601  15.955 -0.2348 -0.0734  0.2304
10490W        W26624   1.492  15.183   4.782  0.1878  0.2784 -0.4610
10491W        W26625   1.552   9.193  11.409 -0.0095 -0.1523 -0.2008
10492W        W26626   1.753   8.874   3.878 -0.5182 -0.1792  0.0467
10493W        W26627  17.127   1.448  13.461  0.1408  0.0300  0.0640
10494W        W26628  10.344  15.137  15.666  0.2354 -0.0242  0.4033
10495W        W26629   4.752  13.094   3.929 -0.0676  0.1483  0.1836
10496W        W26630   9.472   5.352  11.601 -0.1291  0.0491 -0.1832
10497W        W26631   8.398  14.980   2.652  0.0841 -0.1821 -0.0110
10498W        W26632  15.195   5.963   1.946  0.0251  0.4061 -0.2470
10499W        W26633  18.235  15.548  10.960  0.1486  0.0958 -0.0886
10500W        W26634  14.283   6.005   3.630  0.2782  0.0527 -0.0181
10501W        W26635   3.825  18.359  15.471  0.1806  0.1542  0.2373
10502W        W26636   8.554  15.118   0.939 -0.0764  0.1963  0.0952
10503W        W26637  16.945  15.362   1.460 -0.4316 -0.2028 -0.2381
10504W        W26638   8.405   6.595   5.512 -0.0969  0.1233 -0.3168
10505W        W26639  13.469   4.531   4.717 -0.2296 -0.2592  0.1104
10506W        W26640   9.181  17.278   5.614 -0.2302  0.0958  0.0701
10507W        W26641  10.095   4.094   4.995 -0.0052 -0.1289 -0.3629
10508W        W26642   9.224   1.598   2.565 -0.1752 -0.1729 -0.0173
10509W        W26643   7.691   4.228   0.705  0.1655 -0.0508  0.2480
10510W        W26644   8.340  10.165   4.446 -0.0035  0.2625 -0.0125
10511W        W26645   5.701   0.452  12.611 -0.1582 -0.0262 -0.4433
10512W        W26646   6.412   1.769  14.915  0.2236  0.2520  0.5692
10513W        W26647   0.029   3.886   0.904  0.1886  0.3369 -0.2357
10514W        W26648   4.665  14.948   2.301 -0.1052 -0.0149 -0.1601
10515W        W26649  18.294   8.248   3.380 -0.0445  0.0941  0.1604
10516W        W26650   0.656  17.494  12.157  0.2802 -0.2013  0.1266
10517W        W26651  17.659  11.718  15.350  0.2246  0.1528  0.1863
10518W        W26652  15.135   9.586   4.933  0.1290  0.0498  0.0403
10519W        W26653   5.514   9.770  13.519 -0.3735 -0.2578 -0.1161
10520W        W26654  11.408   8.772   1.426  0.1219  0.1321 -0.0035
10521W        W26655  15.731  14.580   4.838  0.0180 -0.0556  0.0742
10522W        W26656   4.900   3.409   2.048 -0.0151  0.1043  0.1442
10523W        W26657   9.451   4.148  13.860  0.0058  0.0954 -0.1615
10524W        W26658  10.394   5.399   0.620 -0.0054 -0.1119  0.0732
10525W        W26659  16.290   8.219   3.539 -0.0107 -0.1695  0.0512
10526W        W26660   9.869   7.682   4.784  0.1732  0.1054  0.2785
10527W        W26661  15.303  11.103   4.025  0.0513 -0.0519  0.4083
10528W        W26662  12.253   9.296   0.658 -0.0412  0.0798 -0.1509
10529W        W26663  11.565  16.898   5.638  0.0240  0.1283 -0.0730
10530W        W26664  15.002  15.986  13.885 -0.1707  0.3430  0.2532
10531W        W26665   6.064   8.778  13.007 -0.0403 -0.0785  0.0271
10532W        W26666   4.485   7.068   3.105 -0.0650 -0.0873 -0.0015
10533W        W26667  13.567  12.562  15.204  0.0050 -0.3456 -0.2704
10534W        W26668  12.880   6.348  15.177  0.0472 -0.0454 -0.0337
10535W        W26669   3.922   8.464  12.919 -0.4009  0.1531 -0.1871
10536W        W26670   4.844  12.359   1.755  0.1066  0.3255  0.1487
10537W        W26671  15.391   3.368  15.246 -0.0888  0.1844  0.0116
10538W        W26672  16.077  11.509   0.651 -0.2966 -0.0466  0.1541
10539W        W26673  13.047   4.995   0.066  0.0829  0.0316 -0.1935
10540W        W26674  14.887   3.481  13.883 -0.0668  0.0431  0.2302
10541W        W26675   9.185   9.862   0.828  0.1984 -0.1253 -0.3233
10542W        W26676  11.950  11.182   3.701 -0.0021 -0.1284 -0.0339
10543W        W26677  16.748   4.101   4.750  0.0596  0.1141 -0.0454
10544W        W26678   2.048  18.074  11.599 -0.2078  0.3435 -0.2060
10545W        W26679  15.501  16.256  13.894  0.1416 -0.0129 -0.1637
10546W        W26680  13.053  10.169   4.067  0.0583 -0.2156 -0.1393
10547W        W26681   5.879  14.982   3.710 -0.0520  0.0334  0.3227
10548W        W26682   8.936  11.444  12.262 -0.0329  0.0702 -0.0852
10549W        W26683   5.341   3.700   1.702  0.1438  0.1874 -0.1876
10550W        W26684   0.431  12.075   0.861  0.1840  0.2107 -0.0076
10551W        W26685   5.868  12.870  15.641  0.2484  0.3363  0.4092
10552W        W26686   2.234   1.821  11.949  0.2213 -0.0901  0.0341
10553W        W26687   4.505   8.138  12.491  0.0387  0.2001 -0.0404
10554W        W26688   6.109  17.841  11.543 -0.0539  0.0323 -0.2066
10555W        W26689   3.849   3.362   6.001  0.0838 -0.1161 -0.1266
10556W        W26690   6.989  11.515  14.583  0.2536  0.0435 -0.2029
10557W        W26691   9.942  15.507  12.429 -0.2289  0.3571 -0.0779
10558W        W26692  12.925  14.680  14.736  0.0240 -0.0855  0.1653
10559W        W26693   8.391   5.941   3.745  0.0773  0.1120  0.1547
10560W        W26694   3.981   5.868  15.780  0.0954  0.1055  0.1978
10561W        W26695   5.651   0.545  11.247  0.0268  0.0980 -0.3015
10562W        W26696  15.563   6.073  16.027  0.2762  0.3864 -0.0488
10563W        W26697   8.881   8.564  12.044 -0.0267 -0.2105 -0.0602
10564W        W26698   0.158   1.519  15.867  0.1073  0.0286  0.2611
10565W        W26699   1.765  10.111   2.831 -0.0259  0.2337 -0.2145
10566W        W26700  14.533   7.553   1.972  0.1939  0.0947  0.0704
10567W        W26701   7.894  10.529   3.663  0.2508 -0.0211  0.3412
10568W        W26702  12.359   5.475   4.289 -0.0967 -0.1135  0.1392
10569W        W26703  15.625   1.707  15.833 -0.2561  0.0451 -0.3532
10570W        W26704   3.999   3.665  13.051 -0.0891 -0.1202  0.0774
10571W        W26705  16.110   9.830  14.735  0.0446  0.0330  0.3684
10572W        W26706   5.021   0.636  13.710 -0.0477 -0.2442  0.1411
10573W        W26707  12.378  16.574  13.689  0.1613  0.0890  0.0950
10574W        W26708   7.864  15.342  12.943  0.1512  0.0781  0.1698
10575W        W26709   0.028   2.358  12.657 -0.0125 -0.0001  0.0690
10576W        W26710   6.544   6.492  13.638  0.0259 -0.0630  0.0430
10577W        W26711   9.538   4.858   2.058  0.0864 -0.1537  0.3227
10578W        W26712   3.415  12.898  12.142 -0.0248  0.0745  0.1215
10579W        W26713   3.877   6.931  10.903 -0.0031  0.2614  0.0668
10580W        W26714  18.206   7.936   2.128 -0.2285  0.1093 -0.2922
10581W        W26715   0.693  13.886  11.512  0.2302 -0.1667  0.0819
10582W        W26716  10.618  12.048  11.795  0.0573 -0.2854  0.2953
10583W        W26717  13.176  17.271  12.514  0.1432 -0.0216 -0.0559
10584W        W26718   9.109   0.984  11.914  0.2220  0.2921  0.0302
10585W        W26719  11.921   1.281   3.426  0.0937  0.0772 -0.0635
10586W        W26720   0.669  17.304  15.230 -0.1202  0.2060  0.0492
10587W        W26721  13.889   9.185   0.022  0.1571  0.3087 -0.2074
10588W        W26722   1.786   2.237  11.595  0.0421  0.1299 -0.0888
10589W        W26723   1.296   9.848   2.206  0.0640 -0.0988  0.0677
10590W        W26724  11.485   1.386  13.810  0.0276 -0.6001 -0.0900
10591W        W26725   9.129  10.852  13.095  0.2451  0.4575 -0.4219
10592W        W26726   3.374  17.452   1.729  0.3592 -0.0709 -0.2104
10593W        W26727  15.665  16.820  10.651  0.1066  0.1438 -0.0343
10594W        W26728  12.164  10.526  11.393  0.0331 -0.1510  0.1450
10595W        W26729  10.618   8.791   5.766 -0.2890 -0.0658 -0.1859
10596W        W26730   4.396  13.122   5.577  0.4033 -0.2356 -0.1819
10597W        W26731  17.887  12.137   2.135  0.3129  0.0210 -0.0579
10598W        W26732  12.266   6.043  13.937  0.0009 -0.1839  0.0376
10599W        W26733   0.171   3.172   0.846 -0.0968 -0.0957  0.1782
10600W        W26734   1.666   3.194   2.992 -0.2486  0.0779 -0.1472
10601W        W26735   0.664   1.033   2.108 -0.2113 -0.1624  0.1402
10602W        W26736   1.594  12.179   0.615  0.0130  0.0425  0.2018
10603W        W26737   4.478   4.006  16.044 -0.0746 -0.1532  0.3151
10604W        W26738   0.447  16.390  11.781  0.0020 -0.0553 -0.0965
10605W        W26739   2.966   4.897  10.506  0.1250  0.0289 -0.0220
10606W        W26740   0.396  12.630  11.923 -0.1147 -0.0386  0.2200
10607W        W26741   5.730   1.093  11.273 -0.0675 -0.0212  0.2229
10608W        W26742  14.506   6.719   3.464  0.0762 -0.1866 -0.2827
10609W        W26743   8.376  14.088   0.883  0.0539 -0.2663  0.3685
10610W        W26744   7.230  12.893  14.617 -0.0906  0.1771 -0.1221
10611W        W26745  13.503  17.706   3.160 -0.1055 -0.3041 -0.2892
10612W        W26746  16.717   0.840  14.564 -0.0117 -0.2693 -0.2789
10613W        W26747   6.396  12.512  15.154  0.0555  0.1370 -0.1643
10614W        W26748   6.257   9.680   0.325  0.1110 -0.0489  0.0078
10615W        W26749  18.013   5.851  15.723  0.0644 -0.0490 -0.0690
10616W        W26750   0.867  14.797   0.498 -0.2780 -0.0773  0.0764
10617W        W26751  11.268   5.579  11.900 -0.2440  0.0912  0.1387
10618W        W26752   8.274   3.539   5.583  0.1128 -0.1158 -0.1749
10619W        W26753   1.826   2.988   0.083 -0.0690 -0.2946  0.1203
10620W        W26754  14.796  16.695   4.149  0.0186  0.2577  0.1663
10621W        W26755  13.245  14.959   4.201 -0.2670 -0.1366  0.1769
10622W        W26756   8.184   6.316   1.797 -0.0364  0.0955  0.1470
10623W        W26757   4.736   9.640   4.232  0.0114  0.0234  0.1026
10624W        W26758   7.398  13.175   2.891 -0.3131  0.0699 -0.0210
10625W        W26759  13.308  12.925   1.267  0.3779 -0.3965  0.0840
10626W        W26760   6.023   2.980   1.651 -0.1839 -0.1406 -0.4172
10627W        W26761   5.510  16.020   0.293  0.0624  0.1355  0.2291
10628W        W26762   7.939   3.493  13.086  0.2223  0.0481 -0.2713
10629W        W26763   1.267  13.167   5.196  0.1337 -0.0546 -0.1665
10630W        W26764   5.644   0.400  13.870  0.1497  0.2197  0.3444
10631W        W26765   5.042   7.599   5.562 -0.0185  0.2008  0.0096
10632W        W26766   0.602   0.817   5.191 -0.2054 -0.0744 -0.1636
10633W        W26767   9.150  16.287   3.765  0.3248  0.0992 -0.0489
10634W        W26768  10.756  11.781   5.360  0.0590 -0.0891 -0.1161
10635W        W26769  11.863   4.380   0.082  0.2132  0.1480 -0.3501
10636W        W26770   3.578   5.808  14.729  0.1347  0.0815  0.1958
10637W        W26771   5.391   7.911  12.147 -0.1928  0.0218  0.0489
10638W        W26772  11.807  11.198   3.197  0.1743  0.0480 -0.1208
10639W        W26773  10.661  14.926  16.070  0.0638 -0.0427 -0.0467
10640W        W26774   0.664   8.495   5.697  0.1234  0.0691  0.2498
10641W        W26775  17.629  15.526  15.402 -0.3354  0.0747  0.1676
10642W        W26776  15.258   0.354  13.526 -0.3135  0.2002  0.0301
10643W        W26777   3.409  15.737   0.409  0.1396  0.3736  0.0234
10644W        W26778   2.940  10.372   2.441 -0.0654 -0.0368 -0.0871
10645W        W26779   6.145  12.855   1.756 -0.3159 -0.1222  0.0602
10646W        W26780   8.730  17.066  14.410  0.1230  0.1485  0.1575
10647W        W26781   2.466   9.320  13.660 -0.1942  0.0038 -0.0926
10648W        W26782   7.011   0.977   0.261 -0.0312 -0.0885 -0.0783
10649W        W26783   1.555  14.572   2.299 -0.1610  0.1206  0.1674
10650W        W26784  18.330   6.954   1.891 -0.1535  0.0947  0.0072
10651W        W26785  12.892  13.069  15.901  0.1328 -0.1524 -0.1911
10652W        W26786  10.893  15.080   0.963 -0.0427  0.1968  0.2092
10653W        W26787  16.262   6.203  13.991 -0.1531  0.2543  0.4827
10654W        W26788  15.256  18.128  15.366 -0.0335 -0.0242  0.2106
10655W        W26789  11.523  17.559  14.824 -0.1324  0.0204 -0.0713
10656W        W26790  15.523   1.604  15.268 -0.0491  0.4792 -0.0096
10657W        W26791   9.598   0.042   3.056 -0.0448 -0.0700 -0.1390
10658W        W26792   6.203   4.672   5.141 -0.1623 -0.4076 -0.2310
10659W        W26793  11.431  11.727  11.711  0.2299 -0.2295 -0.0114
10660W        W26794  14.561  12.610   4.710 -0.2681  0.1132  0.0998
10661W        W26795   4.936   5.392   5.223  0.1826 -0.1661 -0.0235
10662W        W26796  11.613  12.666   4.222  0.0291 -0.2973  0.5690
10663W        W26797   5.408   6.385  11.383 -0.3073 -0.1743  0.0649
10664W        W26798   6.083   5.644  13.309  0.1077 -0.0289 -0.2525
10665W        W26799  13.392  17.711   2.277  0.1864  0.3106  0.2452
10666W        W26800   7.735  11.562  15.039  0.2735 -0.0658  0.1534
10667W        W26801   9.161   8.388   1.873 -0.0462  0.0378  0.2601
10668W        W26802   5.120   3.446   0.285 -0.0490 -0.0561  0.4806
10669W        W26803   9.347  10.910  13.589 -0.1033 -0.0517  0.0115
10670W        W26804  13.950  12.914  15.140 -0.1843 -0.1848 -0.2340
10671W        W26805   7.517   8.765   3.709  0.0203 -0.1845  0.1577
10672W        W26806   4.449  11.875  15.867 -0.0345  0.1575 -0.0554
10673W        W26807   9.474   6.587  15.361 -0.0694  0.2800 -0.0529
10674W        W26808  12.646   3.365  14.190 -0.0553 -0.1734 -0.4798
10675W        W26809   0.967   0.031  13.047  0.0122 -0.4066 -0.2428
10676W        W26810  11.808  14.967   0.826  0.5431 -0.1285  0.1938
10677W        W26811   8.910   2.202  15.544 -0.2328 -0.1390 -0.1850
10678W        W26812   4.003  15.883  14.292 -0.1889  0.2488  0.2189
10679W        W26813  12.782   1.142   0.231 -0.1661  0.3936  0.1839
10680W        W26814   4.591   7.004  13.754  0.2750 -0.0316  0.0190
10681W        W26815   8.695   2.413   3.932  0.0719 -0.3418  0.1796
10682W        W26816   4.929   0.141  12.621 -0.0874  0.3629 -0.2399
10683W        W26817  15.019   2.385  15.372  0.1071  0.1856  0.4799
10684W        W26818   5.278  11.510   2.608 -0.1469  0.5362  0.2358
10685W        W26819  14.431   8.154  10.843  0.2250 -0.1546  0.0082
10686W        W26820   4.196   1.460  11.228  0.1286  0.0369 -0.1889
10687W        W26821  18.048  11.352   4.444 -0.0215 -0.1248  0.1652
10688W        W26822  14.118   6.471   3.768  0.4350 -0.1665  0.2376
10689W        W26823   6.418  12.618   2.101  0.1007  0.2187 -0.1014
10690W        W26824   1.310   2.853  10.726  0.2891  0.0821  0.1165
10691W        W26825   1.825   3.814   4.639 -0.0183  0.0421  0.0743
10692W        W26826   2.519   9.675  14.495  0.0892  0.0276  0.1228
10693W        W26827   0.583   6.399  12.024 -0.2843 -0.3443 -0.5269
10694W        W26828  14.323   7.905   4.175  0.0361 -0.0650  0.0966
10695W        W26829   5.591  11.973   0.706 -0.1494 -0.1699 -0.2835
10696W        W26830  13.462   8.130  11.900 -0.1642  0.0438 -0.1181
10697W        W26831   3.050  13.526  12.674  0.1802  0.3564 -0.2092
10698W        W26832   0.177  16.930   4.255 -0.1320  0.1460  0.4030
10699W        W26833   3.316   6.526  15.919 -0.1513  0.0501  0.2041
10700W        W26834  18.320   9.458  14.525  0.0666 -0.1579  0.1502
10701W        W26835  13.744   4.827   1.503  0.0592 -0.1049 -0.0720
10702W        W26836   3.855   2.727  12.768 -0.0106  0.0089  0.0661
10703W        W26837  10.664   5.905   6.379 -0.3505  0.2193  0.1049
10704W        W26838  12.506   0.511   1.616 -0.0534  0.0355  0.2000
10705W        W26839   9.790   1.749  13.171  0.0670  0.1934  0.2408
10706W        W26840  12.338   2.465  15.827 -0.2514  0.0075  0.1648
10707W        W26841  11.772   3.271  12.668 -0.0270 -0.1181  0.0150
10708W        W26842  17.057  17.665  12.248  0.2635 -0.2336 -0.0013
10709W        W26843   1.575   8.097  14.937  0.1891  0.0258 -0.0110
10710W        W26844   7.515  16.457   1.123  0.0450 -0.0594  0.2057
10711W        W26845   0.532  16.174   0.077 -0.1041  0.0200  0.1192
10712W        W26846  12.995   6.447   3.762  0.1372 -0.0667  0.1279
10713W        W26847   0.170   9.228  13.315  0.0324  0.2511  0.4291
10714W        W26848   0.825   1.025   1.546 -0.2268 -0.1907 -0.0877
10715W        W26849  16.962   7.262   1.512 -0.2025  0.1935 -0.1737
10716W        W26850  11.161   3.224   2.512  0.1331 -0.1379 -0.0402
10717W        W26851   9.839  18.101  12.203  0.0781 -0.1453  0.0806
10718W        W26852   8.395  14.833   3.622 -0.1180 -0.0942  0.0204
10719W        W26853   3.644  11.477  11.925  0.0940 -0.0715  0.2142
10720W        W26854   0.842   8.298   0.096  0.0309  0.2725  0.1825
10721W        W26855   7.025   6.336  15.574  0.2021  0.1580  0.0874
10722W        W26856  10.848   2.235  14.744 -0.0824 -0.2513 -0.2081
10723W        W26857  10.108  11.772   1.943  0.0939  0.2210 -0.2081
10724W        W26858   8.139   8.536  13.171 -0.1005 -0.0334  0.2120
10725W        W26859   1.890   7.535  14.829  0.0878 -0.1770  0.1251
10726W        W26860   1.528  14.317   3.707  0.0074 -0.1651  0.0982
10727W        W26861  11.414   6.098   1.701 -0.0418  0.0219 -0.3815
10728W        W26862  11.737   8.075   0.742  0.1814 -0.0713  0.1464
10729W        W26863   7.554  17.430   6.338 -0.5027 -0.0101 -0.0921
10730W        W26864  15.114   2.642   4.681 -0.1267 -0.0203 -0.0514
10731W        W26865  12.964  11.236  14.758  0.3469 -0.4768 -0.0402
10732W        W26866  12.661   8.404   0.839 -0.0595 -0.1022 -0.0862
10733W        W26867   6.975   2.640  13.465  0.3155 -0.0225 -0.1093
10734W        W26868  13.601   0.477   3.579 -0.0683 -0.0913 -0.1889
10735W        W26869   0.202  10.674  15.284 -0.1387 -0.0908 -0.2876
10736W        W26870   4.736   7.617  13.905  0.1948 -0.1004  0.0133
10737W        W26871   7.461   0.776   1.105  0.0315  0.1480  0.4272
10738W        W26872  11.698  16.059   3.718 -0.2206  0.1570 -0.3490
10739W        W26873   5.556  11.665   0.249 -0.1985 -0.2611  0.0158
10740W        W26874   1.058  12.348   4.260  0.1021 -0.0477 -0.2053
10741W        W26875   3.393   6.234  14.440  0.0846 -0.0934  0.0597
10742W        W26876  11.253   3.737  15.909  0.0115  0.1989  0.2667
10743W        W26877   9.302  16.703  11.492  0.0547 -0.1772 -0.0291
10744W        W26878  16.924   9.705  14.383  0.2766 -0.1129 -0.0794
10745W        W26879  15.849   2.157  15.572 -0.1591 -0.1080 -0.1512
10746W        W26880  11.918   0.892   4.385  0.1050 -0.0490 -0.0757
10747W        W26881   6.652   3.869   3.727 -0.1713 -0.1409 -0.1004
10748W        W26882   0.839  10.426   1.071 -0.0635 -0.1489 -0.0449
10749W        W26883  15.631   4.037   1.875  0.0821  0.2173  0.1065
10750W        W26884   9.886  13.083  11.609  0.0211  0.2113  0.1126
10751W        W26885  10.497  12.239   5.796  0.0451 -0.1085  0.0319
10752W        W26886   2.581   1.233   0.495  0.2506  0.1525 -0.0609
10753W        W26887   7.343   7.471  15.420 -0.1295  0.0898  0.0066
10754W        W26888  12.343  10.309   1.252  0.0371  0.1305 -0.1585
10755W        W26889   2.182   5.718   2.858  0.1906  0.4026 -0.0633
10756W        W26890   2.907  13.588   3.890 -0.0594 -0.0888  0.3488
10757W        W26891   9.028  13.446   0.694 -0.2599  0.2951  0.0037
10758W        W26892   7.331   2.395  13.210  0.1128 -0.0490 -0.0501
10759W        W26893   3.045   2.526   3.006 -0.1685 -0.1996 -0.3031
10760W        W26894   1.757   2.707  13.597  0.0596  0.0237  0.0065
10761W        W26895   1.696  18.172  13.654  0.3136 -0.2711  0.2962
10762W        W26896   7.260   6.624  11.193 -0.3005 -0.0421 -0.0654
10763W        W26897   1.182  17.835  13.379 -0.3163 -0.1108  0.3219
10764W        W26898   2.725  18.252   1.925  0.0234 -0.0099  0.0155
10765W        W26899   1.794   2.510   4.188 -0.1634  0.0291  0.2026
10766W        W26900  11.127  15.118  13.053 -0.2218 -0.0925 -0.2724
10767W        W26901   6.521   7.125   4.607  0.0915 -0.1923 -0.2487
10768W        W26902   9.157   7.147   2.651  0.1997 -0.0072 -0.1784
10769W        W26903   6.493  17.532   3.047 -0.3384  0.0783 -0.1731
10770W        W26904  10.106  16.965   1.294  0.0021 -0.2685 -0.1726
10771W        W26905  18.252   5.989   5.123  0.0377  0.0110  0.0544
10772W        W26906   1.093   9.072  14.856  0.1047  0.0186  0.3503
10773W        W26907   5.329  14.757  11.006 -0.2084 -0.1417 -0.0286
10774W        W26908   0.624  16.965  12.358 -0.2193  0.5407 -0.1774
10775W        W26909   5.307   6.799  11.745  0.0976  0.3605  0.0460
10776W        W26910  16.735  15.324  11.446  0.0383 -0.0897 -0.2182
10777W        W26911   4.201  17.388  14.536 -0.0704  0.2142 -0.4517
10778W        W26912   3.953   2.377  10.107  0.2196 -0.0017  0.2664
10779W        W26913  10.443   0.687   5.742 -0.0117 -0.0071 -0.0995
10780W        W26914  18.174   3.494  14.465 -0.0632 -0.5142 -0.0349
10781W        W26915  17.368   2.408  10.442  0.0339  0.0833  0.2965
10782W        W26916   8.979   5.247  14.634  0.1180  0.1808  0.3688
10783W        W26917   1.485   7.261  12.294 -0.0487 -0.3253 -0.1163
10784W        W26918  17.005   9.015   2.841 -0.2689  0.1657  0.1126
10785W        W26919  11.013   4.898  13.677 -0.1226  0.2445  0.1942
10786W        W26920   7.580   7.312  13.057 -0.0350  0.1847 -0.0639
10787W        W26921   6.714  12.197   3.730 -0.0196 -0.0192  0.1742
10788W        W26922   9.394  11.506  11.845 -0.1448  0.2968  0.0296
10789W        W26923   5.177   6.282  14.466 -0.2187 -0.4041 -0.0509
10790W        W26924  14.554   1.830   3.249 -0.3308  0.1367  0.3306
10791W        W26925  18.071  12.916  15.665  0.0892 -0.1401  0.1588
10792W        W26926  10.508   4.181  13.238  0.3341  0.2732 -0.0890
10793W        W26927   4.881  12.090  11.549 -0.0007 -0.1047 -0.3227
10794W        W26928  12.559   7.325  15.854 -0.7851 -0.0311  0.2635
10795W        W26929  11.812  14.366  15.123  0.2610 -0.4079 -0.2997
10796W        W26930  15.927  15.057  15.967  0.0719  0.1303  0.0820
10797W        W26931   3.593  12.198  11.084  0.1062 -0.0131  0.3388
10798W        W26932   3.842  15.148  14.863 -0.4007  0.0334  0.3044
10799W        W26933   1.691   2.976  12.013 -0.0077  0.0953  0.1181
10800W        W26934   8.454  10.962  14.875  0.1437 -0.0627  0.2509
10801W        W26935  13.548  14.015   1.723  0.1160  0.0634  0.0547
10802W        W26936   9.305   3.496   2.696 -0.1037 -0.3913 -0.0431
10803W        W26937  10.463  13.075  11.794  0.1510 -0.4033  0.0072
10804W        W26938  10.076   0.441   5.521  0.0631 -0.2728  0.1908
10805W        W26939  15.094  13.879  14.390  0.1999  0.0127 -0.0761
10806W        W26940   1.746  13.202   3.384 -0.1440 -0.3793 -0.0309
10807W        W26941  16.793   2.842  10.991 -0.2600 -0.0108 -0.0643
10808W        W26942  16.229  11.267  15.830  0.0955  0.1419 -0.3801
10809W        W26943   4.450   5.166   0.817 -0.0046  0.1594  0.0098
10810W        W26944  10.187  17.194  12.470  0.1624 -0.1588  0.5348
10811W        W26945  13.395   3.147  13.851 -0.0444  0.1028  0.0346
10812W        W26946  12.408  17.269  16.058  0.1098  0.1240  0.4211
10813W        W26947  11.109   5.919   5.856 -0.0345 -0.0647  0.0186
10814W        W26948   6.812  15.909   4.608 -0.2607  0.0393  0.1798
10815W        W26949  18.479  16.217   5.143  0.0509  0.1326  0.0267
10816W        W26950   7.649  14.852   4.353 -0.2014  0.1258 -0.2132
10817W        W26951   3.147   5.377   0.181 -0.2932  0.2025 -0.0067
10818W        W26952   9.365   7.583   2.536  0.3008  0.2449 -0.2344
10819W        W26953  18.255  13.732   1.447  0.1917 -0.0757  0.1138
10820W        W26954  14.350  17.703  12.367  0.4979  0.1287  0.0438
10821W        W26955  14.654   2.385   4.923  0.0670 -0.1392  0.2166
10822W        W26956  11.711   6.215   1.358 -0.2356  0.0109 -0.0954
10823W        W26957   3.254   3.048  13.377 -0.1326 -0.2849 -0.1478
10824W        W26958  11.031   4.617   5.549  0.0987 -0.0388 -0.3037
10825W        W26959   5.110   7.029   4.458 -0.0641  0.0970  0.1945
10826W        W26960   3.811   2.852  10.277  0.0251 -0.0640  0.1215
10827W        W26961   0.080  14.348  11.255  0.1543 -0.3079  0.1239
10828W        W26962  17.903  18.211   2.194 -0.0790 -0.0391 -0.1057
10829W        W26963  13.989  17.861  11.115 -0.2658 -0.3378  0.0680
10830W        W26964   1.068  13.825   2.206 -0.1748  0.2102  0.2995
10831W        W26965  11.889  10.684  14.408 -0.0537 -0.0409 -0.1364
10832W        W26966   5.499   4.858   3.603 -0.1876 -0.2815 -0.1124
10833W        W26967  13.726  18.011   1.560 -0.3050 -0.0945 -0.0470
10834W        W26968  14.250   6.290   1.631 -0.4115 -0.2701  0.0038
10835W        W26969   5.809   4.781   5.433  0.2536 -0.0137 -0.0044
10836W        W26970  11.352   3.977   1.229 -0.0558 -0.1205  0.2842
10837W        W26971   2.528   1.717  15.764  0.2020 -0.1973  0.1289
10838W        W26972  14.013  16.955   4.958 -0.1738 -0.2335  0.0784
10839W        W26973  13.036  16.904  12.169 -0.2916 -0.2260 -0.1805
10840W        W26974   0.003   2.722   1.748  0.2591 -0.1029  0.1668
10841W        W26975  15.182   2.560  14.961 -0.0238 -0.1438 -0.1336
10842W        W26976   2.332   8.927   0.952 -0.0430  0.1024 -0.1024
10843W        W26977   9.939   5.413  12.598 -0.1048  0.0262 -0.0996
10844W        W26978  16.195   0.107   4.653  0.0746 -0.0181  0.1354
10845W        W26979  18.245   4.249   3.980 -0.1654 -0.3838  0.2044
10846W        W26980   6.983   9.984   4.896 -0.2420  0.0394  0.3925
10847W        W26981  18.309  10.627  14.817  0.0383  0.4172 -0.2206
10848W        W26982  14.253  16.941  11.695  0.1759  0.2056 -0.3683
10849W        W26983   0.368  11.625   9.555 -0.3878  0.3657  0.3696
10850W        W26984   6.995   1.376  13.246  0.1799 -0.0359  0.1425
10851W        W26985   3.183   4.891   5.734  0.2014 -0.2215  0.0708
10852W        W26986   0.965   1.185  11.623  0.1407 -0.2556 -0.3078
10853W        W26987  15.632  13.199  12.980 -0.2819  0.0569 -0.0365
10854W        W26988  14.099  12.487   0.992 -0.0248  0.1611 -0.1270
10855W        W26989   9.136   8.036   2.255  0.0340  0.2239  0.0895
10856W        W26990  12.830   1.588   4.114 -0.1197 -0.1444  0.4067
10857W        W26991  17.773  18.459  14.556  0.1669 -0.0228 -0.0958
10858W        W26992  17.543  18.189  13.020  0.0536  0.0918  0.1186
10859W        W26993  13.402  12.051   2.163  0.0635 -0.0392  0.3598
10860W        W26994  16.346   5.514   4.638  0.1962 -0.0447  0.1411
10861W        W26995  12.011  18.191   5.278 -0.1122 -0.0184  0.0798
10862W        W26996   5.097  10.243  14.970 -0.0162  0.2466  0.0003
10863W        W26997   6.093   2.083   2.123  0.1955 -0.0778 -0.4670
10864W        W26998  11.956   7.946   0.294 -0.1363  0.2776  0.0047
10865W        W26999  15.928   3.662   0.761 -0.2117  0.3761 -0.0326
10866W        W27000  18.028   6.718   4.752 -0.4036  0.2972  0.0037
10867W        W27001   9.973   4.852   4.565 -0.1947 -0.1569  0.0055
10868W        W27002  11.739  10.964  12.419 -0.0300  0.0533 -0.0256
10869W        W27003  15.286  13.932  11.773  0.0635 -0.1371 -0.1413
10870W        W27004  14.667   1.629   3.770 -0.2966  0.3936 -0.0660
10871W        W27005   9.943   5.359   5.558 -0.3928 -0.0157  0.1131
10872W        W27006  11.841  12.454   2.063  0.0201  0.2488 -0.0119
10873W        W27007   2.196   0.992   3.414  0.0909  0.1485 -0.0827
10874W        W27008  17.268  14.688  12.816  0.1487  0.3204  0.0342
10875W        W27009  16.171   5.411   5.197 -0.2176 -0.1451  0.1799
10876W        W27010   6.833   8.431  15.302  0.1523  0.0908 -0.0639
10877W        W27011  14.038   4.738   4.676  0.2197  0.3197 -0.3664
10878W        W27012   5.498  14.646   3.697  0.0860  0.1113 -0.0009
10879W        W27013   4.517   6.453  11.646 -0.3643 -0.2327 -0.1513
10880W        W27014  17.958   5.595   0.038 -0.0002 -0.1475  0.2239
10881W        W27015  17.804  15.223  13.580  0.3342 -0.1775 -0.1581
10882W        W27016  18.389   8.443   3.971 -0.3263 -0.0488 -0.0343
10883W        W27017   1.190   3.638   1.023 -0.1072 -0.1258 -0.0966
10884W        W27018   1.394   5.875  11.340 -0.2658  0.0634 -0.1355
10885W        W27019   9.977   7.016  14.644 -0.1864 -0.2600 -0.0567
10886W        W27020   1.691  16.826  11.005  0.0838 -0.0159 -0.2678
10887W        W27021  10.876  11.779  14.755 -0.2528  0.3190  0.0947
10888W        W27022   7.148  10.514  12.930  0.1270  0.0960 -0.2200
10889W        W27023   4.036  11.813  14.232  0.1917 -0.1675  0.1906
10890W        W27024  17.090  14.093   3.188  0.1352  0.0917 -0.4270
10891W        W27025  10.740  17.242   5.129 -0.2548  0.2945  0.1219
10892W        W27026   5.409  16.560   4.526  0.2161  0.1346 -0.1137
10893W        W27027  12.830   9.978  14.534  0.0447 -0.0252  0.1359
10894W        W27028   5.157   6.730  13.351  0.0416 -0.3467 -0.0759
10895W        W27029  14.751  14.705  15.306 -0.2095 -0.0204  0.0755
10896W        W27030   5.813   1.231   0.198 -0.2542 -0.2093 -0.0590
10897W        W27031   8.901   6.123  12.667 -0.1152  0.3191 -0.1052
10898W        W27032   8.916   1.187  12.418 -0.1403 -0.0569 -0.1358
10899W        W27033  11.394  18.030  14.557 -0.2780 -0.1994 -0.1723
10900W        W27034   8.648   9.899  12.086 -0.1815 -0.0658  0.0468
10901W        W27035   6.165  12.789  12.871  0.2481 -0.0527  0.2804
10902W        W27036  12.490   6.370   1.208  0.6764  0.0505  0.1872
10903W        W27037  11.269  17.056  12.164  0.0218 -0.1715 -0.0031
10904W        W27038  10.465  17.559   0.086 -0.1000  0.2211 -0.2524
10905W        W27039  13.685   1.912  14.612  0.0691  0.1840 -0.0464
10906W        W27040  16.534  12.653   1.278 -0.1421 -0.0406  0.0284
10907W        W27041   4.977   8.718   1.020 -0.4256 -0.1936  0.0107
10908W        W27042  15.704   0.536  15.758 -0.1463 -0.2021 -0.0348
10909W        W27043  18.076   9.463   0.262 -0.1444 -0.0848  0.2136
10910W        W27044  11.961  11.315  14.362 -0.1514  0.1819  0.1366
10911W        W27045  16.655  11.082  14.572 -0.1753 -0.0212 -0.0691
10912W        W27046  16.768  15.717   3.895 -0.3903 -0.2899 -0.2324
10913W        W27047   0.391  16.664   1.438 -0.0163  0.2711  0.3420
10914W        W27048  13.826  15.777   0.324  0.0317  0.3391  0.1101
10915W        W27049  17.091   0.248   4.977  0.1910 -0.0706 -0.0679
10916W        W27050  16.378  18.355  12.637 -0.0854 -0.0955 -0.1253
10917W        W27051  13.829  10.225  11.527 -0.0324  0.0462  0.1288
10918W        W27052  12.127   6.252   5.019  0.0528  0.0895  0.1049
10919W        W27053   0.453   5.950   4.465  0.0390  0.0608 -0.0356
10920W        W27054   8.175   4.154  10.660 -0.0845  0.0102 -0.0475
10921W        W27055  14.861   0.994  13.781 -0.0938  0.0519  0.2005
10922W        W27056   3.668   3.010  14.750 -0.0458 -0.1781 -0.2732
10923W        W27057  17.861   0.162  13.714  0.2368  0.0195 -0.4452
10924W        W27058  17.719  11.586  13.563  0.0052  0.0179 -0.2761
10925W        W27059  11.491  10.962  15.596  0.0330  0.0907  0.0231
10926W        W27060  16.118   0.630  14.094 -0.1044 -0.0887 -0.0701
10927W        W27061   7.291   1.109  14.267 -0.0605  0.1199  0.0248
10928W        W27062   1.409   8.795   1.842  0.0636  0.1848 -0.0030
10929W        W27063   0.916   9.916  13.261 -0.1055 -0.0844  0.0192
10930W        W27064   0.336  16.495  14.425  0.0415  0.2106 -0.1102
10931W        W27065  11.312   4.818  12.369 -0.2535 -0.3197  0.0475
10932W        W27066  11.320   3.918  11.614 -0.2058  0.1205  0.1211
10933W        W27067  16.600   7.694  11.686  0.1555 -0.1566  0.0478
10934W        W27068   4.979  14.091  12.205 -0.3110  0.0562  0.1390
10935W        W27069   1.053  14.801   2.346 -0.0960 -0.4540 -0.1027
10936W        W27070   3.572   2.627  11.353 -0.0424 -0.0884  0.2695
10937W        W27071  15.170  12.990  11.482  0.2694  0.2198  0.0189
10938W        W27072   4.943   1.627   4.717  0.2480  0.2921 -0.0422
10939W        W27073   6.159  10.517   0.099 -0.1425  0.0044  0.0932
10940W        W27074   1.140  14.396   1.211 -0.1829  0.1728 -0.4086
10941W        W27075  17.286  15.963  13.714 -0.1896  0.1415  0.0913
10942W        W27076   4.975   8.116  13.191  0.2466  0.1231  0.0878
10943W        W27077   6.165   5.708  15.038 -0.1812 -0.1036  0.0738
10944W        W27078  15.343   6.318  15.036 -0.0631  0.0267 -0.1194
10945W        W27079   7.033   3.153   5.707  0.0331 -0.1629  0.0311
10946W        W27080   8.577   7.875   3.625  0.0974 -0.1145  0.1312
10947W        W27081  14.923   6.591   2.785 -0.1447 -0.3439 -0.2290
10948W        W27082   3.076   8.055   3.291 -0.1251 -0.2506  0.0010
10949W        W27083  12.734  12.041   0.895 -0.0717 -0.2212  0.0004
10950W        W27084   1.790   7.676   5.693  0.0536  0.0675  0.0334
10951W        W27085  18.413  15.148   0.255  0.4224 -0.1575  0.2388
10952W        W27086   6.094   8.656  11.206 -0.0274 -0.0570  0.1450
10953W        W27087  17.862   8.900  11.832 -0.2075  0.1971 -0.2835
10954W        W27088  14.243  13.314   2.383  0.1035 -0.1356 -0.2981
10955W        W27089   2.784  12.644   1.815  0.0423  0.0934 -0.5626
10956W        W27090   4.971  14.818   0.411  0.2598  0.0833  0.0576
10957W        W27091  16.905   0.427   0.485  0.3213 -0.0693 -0.1390
10958W        W27092   8.227  16.262   4.234 -0.0925  0.0374  0.2283
10959W        W27093  15.892   4.968  15.937 -0.1068 -0.1645  0.1876
10960W        W27094  12.563  11.186  12.139  0.0808 -0.0086 -0.2657
10961W        W27095  17.417   1.339   4.681 -0.0407  0.1690 -0.2493
10962W        W27096   4.300   2.235  13.114 -0.0589  0.0860 -0.1463
10963W        W27097  11.301  16.033   3.185 -0.0539 -0.0387 -0.2963
10964W        W27098  13.945  13.816   3.088 -0.1497  0.0384  0.2270
10965W        W27099   2.615  12.673   5.319 -0.2403 -0.0843 -0.0764
10966W        W27100   7.345   7.764  12.236 -0.0527 -0.1557  0.0430
10967W        W27101   8.904   3.476  14.986 -0.0396  0.1829  0.1251
10968W        W27102   4.497   7.178  14.711  0.1734 -0.1782  0.1415
10969W        W27103  10.238   5.597  14.627  0.1870 -0.3613 -0.2502
10970W        W27104  10.138  15.110   3.136 -0.1322 -0.1886  0.2246
10971W        W27105  16.259  13.166   3.239  0.3978 -0.2161  0.1940
10972W        W27106  12.847   5.129  12.801  0.3282  0.0806 -0.0053
10973W        W27107   3.779   9.980   2.666  0.0553 -0.2455  0.1599
10974W        W27108  10.748   7.378   4.370  0.0870 -0.1000 -0.1165
10975W        W27109   7.773  15.427   4.916 -0.2305 -0.1568  0.2004
10976W        W27110  11.575  10.917   4.957  0.0776  0.3538 -0.0120
10977W        W27111  15.436  18.291   5.594 -0.0888  0.0569  0.4054
10978W        W27112   8.753  11.066   2.466  0.0442 -0.0245  0.0436
10979W        W27113   1.769  13.126   2.508  0.0665 -0.3129 -0.4588
10980W        W27114   0.646   3.854  14.975  0.1631 -0.1083  0.0376
10981W        W27115  17.103   8.974   0.978  0.0865  0.2367 -0.1621
10982W        W27116  11.417   9.201  11.614 -0.0371  0.0325  0.2824
10983W        W27117   8.204   5.336  16.061 -0.0458  0.0701 -0.0127
10984W        W27118  18.092   4.893  13.412 -0.0805  0.2734 -0.2611
10985W        W27119  15.436   2.319   3.816  0.1615  0.1747  0.1239
10986W        W27120   0.942   1.534   0.449  0.1521  0.3234 -0.0576
10987W        W27121  10.931   1.857   5.203 -0.2125  0.1576  0.1429
10988W        W27122  15.861  15.356  13.286 -0.0878  0.2287  0.0033
10989W        W27123   9.742   3.303  12.264  0.0506 -0.1390  0.0389
10990W        W27124   3.994   8.691  10.116  0.1290  0.0403 -0.0182
10991W        W27125  13.421  11.405   1.982  0.2193  0.0099  0.0723
10992W        W27126   5.674  11.860   2.629  0.2855 -0.1754  0.2671
10993W        W27127  16.180   2.938   0.335  0.0661 -0.1718  0.2166
10994W        W27128   5.476   4.123   4.649 -0.0706 -0.0210 -0.0279
10995W        W27129   9.960   4.415  14.288 -0.3805  0.2046 -0.2043
10996W        W27130  10.039  13.365  12.992 -0.2620 -0.1550  0.0058
10997W        W27131  10.285   2.213  14.883 -0.1340 -0.1386  0.0717
10998W        W27132   7.760   7.980   0.075  0.2212  0.2122 -0.3078
10999W        W27133  10.190  18.500   0.134  0.0317  0.1874 -0.0905
11000W        W27134   8.662  14.627  13.347 -0.1864  0.0206  0.3082
11001W        W27135   3.340  10.638   2.720  0.3474 -0.1245 -0.1586
11002W        W27136  16.975  17.453  13.277  0.0336 -0.3142 -0.1990
11003W        W27137  10.245  17.607  15.613 -0.1899  0.4462  0.2213
11004W        W27138  17.190  13.741   1.134  0.0164 -0.1528 -0.0888
11005W        W27139  11.480  11.891   5.716 -0.1213 -0.2611  0.0477
11006W        W27140  16.447  15.642   4.872 -0.1121  0.0226  0.0309
11007W        W27141  15.510   2.199  14.249  0.2445  0.1130 -0.1369
11008W        W27142   7.208   4.993  15.718  0.2174 -0.0686  0.1508
11009W        W27143  18.138  15.205  14.657  0.1262 -0.1522 -0.2144
11010W        W27144  14.165  12.718   1.585  0.0692 -0.0016 -0.0034
11011W        W27145   9.089   1.732  12.529  0.2262  0.0544  0.0786
11012W        W27146   7.334  12.453   5.154  0.0240 -0.0896 -0.1550
11013W        W27147   3.598  17.431  15.626  0.0081  0.1072 -0.2347
11014W        W27148   4.504  16.975  13.766  0.1907  0.3024 -0.0565
11015W        W27149  11.472  15.975   2.017 -0.3180  0.2503  0.0235
11016W        W27150  17.942  10.469   2.912 -0.1392  0.1010  0.1099
11017W        W27151  13.275  14.506   4.670  0.0185  0.1094  0.0557
11018W        W27152   8.200  13.630   5.330 -0.2262 -0.2080 -0.2025
11019W        W27153   3.961  17.938  10.878 -0.1821 -0.2178  0.1713
11020W        W27154  18.492  15.218   3.319 -0.0733 -0.1752 -0.0367
11021W        W27155   3.219  13.680  12.250 -0.0320 -0.0999 -0.1222
11022W        W27156   0.902   3.835  11.439  0.0840  0.0987  0.6897
11023W        W27157   2.123   8.610   3.941 -0.2595  0.1188  0.0050
11024W        W27158  15.118   9.880   1.312  0.0018  0.2105 -0.0876
11025W        W27159   7.157   1.911  13.097 -0.1372 -0.2003 -0.1373
11026W        W27160  13.322  17.268  11.808 -0.1830  0.1463 -0.3558
11027W        W27161  10.314  15.953  11.711  0.0254 -0.2262  0.2209
11028W        W27162  15.530  10.937   2.627 -0.1040  0.1582 -0.0087
11029W        W27163  10.026   3.519   1.300 -0.1415  0.1853  0.0169
11030W        W27164   7.008  13.590  14.255  0.1024 -0.0810 -0.3782
11031W        W27165   8.439  10.814   0.529 -0.0200 -0.1099  0.2200
11032W        W27166   9.184  17.807   2.302  0.0791 -0.1346  0.1705
11033W        W27167   2.807  18.009   2.776  0.1281  0.1419 -0.3482
11034W        W27168  16.184  11.326   4.108 -0.3380  0.0401 -0.0102
11035W        W27169  16.067  15.171   1.980  0.0425  0.4485  0.2593
11036W        W27170  10.499  16.726   3.224 -0.2187  0.1204  0.0729
11037W        W27171  17.286   7.363   3.680 -0.1258  0.0720  0.0324
11038W        W27172  10.059   5.489   4.784  0.0216 -0.1861  0.0831
11039W        W27173  13.386   9.779  14.683 -0.0415  0.4368 -0.1469
11040W        W27174  10.392   8.632  12.162  0.3655 -0.1057 -0.1572
11041W        W27175  12.000  11.166   4.186  0.1089  0.3379  0.1163
11042W        W27176   0.509   0.004  12.884  0.3198 -0.1027  0.2566
11043W        W27177  16.545  15.130   0.430 -0.0763  0.0786 -0.0477
11044W        W27178   2.859   1.533   3.093  0.1474  0.1656 -0.2386
11045W        W27179  15.863  14.737   1.802  0.0530 -0.0505 -0.0820
11046W        W27180   4.553  12.173  13.904  0.0640  0.1101  0.3781
11047W        W27181  12.541   5.608  13.683 -0.0269  0.2142  0.0048
11048W        W27182   7.144   4.302   0.118 -0.1060  0.0121 -0.1728
11049W        W27183  17.991  15.191   3.290 -0.0086  0.0647  0.4390
11050W        W27184   8.545   6.748   1.978  0.2502 -0.1027 -0.1146
11051W        W27185   0.303  11.846  13.412  0.0019 -0.1368  0.0713
11052W        W27186   9.516   9.413  10.945 -0.2406  0.0056  0.0698
11053W        W27187  12.255   2.242  14.330  0.0923 -0.3764 -0.0719
11054W        W27188   8.707   1.414  14.763  0.2435 -0.0353  0.0532
11055W        W27189  18.426  12.666   3.762 -0.1337  0.0516 -0.2373
11056W        W27190   5.760   5.603   0.938  0.0794  0.4268 -0.4525
11057W        W27191  12.604  11.340   2.171  0.4555 -0.1624  0.1539
11058W        W27192   5.709  13.113   3.793 -0.4619  0.1205 -0.4041
11059W        W27193   2.939   0.984  14.310  0.0192  0.1677  0.2546
11060W        W27194  16.908   9.307   0.266 -0.2340 -0.1185  0.2455
11061W        W27195  12.702   1.135  15.621 -0.0773  0.0970 -0.3484
11062W        W27196  14.928  18.226  15.011 -0.0589 -0.2632  0.1308
11063W        W27197   1.779   2.357   0.549  0.1406 -0.3585  0.0234
11064W        W27198  10.324   7.147   4.530  0.3055 -0.0461  0.4017
11065W        W27199   5.749  11.398   4.529  0.0609  0.0554  0.2551
11066W        W27200  13.795  10.078   3.608 -0.1889 -0.2016 -0.0012
11067W        W27201   8.712   5.143   0.266  0.0402 -0.3024  0.0403
11068W        W27202  15.028   6.742   0.185 -0.0496  0.1624 -0.0916
11069W        W27203  10.898   6.809   0.207  0.0366 -0.4207 -0.4192
11070W        W27204  13.381   8.681   3.378  0.0120  0.0593  0.0871
11071W        W27205   8.586  11.167   1.293 -0.1319 -0.1773 -0.0726
11072W        W27206   5.415  11.601   1.148 -0.1650 -0.2010 -0.0184
11073W        W27207  13.099  17.793   5.044 -0.3572 -0.3441  0.1814
11074W        W27208  16.643   8.416  11.343  0.4490 -0.0333  0.1960
11075W        W27209   6.728   8.496  13.595 -0.2125 -0.2954  0.1602
11076W        W27210   5.832   2.700   2.153  0.0125 -0.1706  0.2583
11077W        W27211  18.473  16.379   1.137 -0.0590 -0.3984  0.0109
11078W        W27212   7.357  12.636   2.668  0.1288  0.3700  0.0222
11079W        W27213  13.971   6.002  12.257 -0.0143  0.1213  0.2494
11080W        W27214   6.934  17.813   2.469  0.1413  0.2542 -0.0012
11081W        W27215   2.126   9.670   3.756 -0.2169 -0.0979 -0.0386
11082W        W27216  17.980  10.863   2.502 -0.1682 -0.0635 -0.3294
11083W        W27217  14.399  14.172  13.404 -0.0276  0.2594  0.0514
11084W        W27218  12.758   1.669  14.900 -0.0070  0.0031 -0.3014
11085W        W27219  10.970   2.228   0.988 -0.1710  0.0512 -0.4191
11086W        W27220   3.906   5.773  13.647 -0.6176  0.1324  0.0247
11087W        W27221   7.365   6.712  15.647 -0.1300  0.2773 -0.1657
11088W        W27222   9.520   0.321   0.644 -0.2053 -0.0582  0.0133
11089W        W27223  14.528   2.484   0.567 -0.0889 -0.0063  0.0156
11090W        W27224  12.488   8.505   3.370  0.0729  0.0702 -0.1593
11091W        W27225  14.561   5.100   2.768  0.1162 -0.1457  0.1911
11092W        W27226  15.727   4.393   4.598 -0.2126  0.2065 -0.1473
11093W        W27227  11.885   6.368   2.834  0.0712  0.1898 -0.1082
11094W        W27228  17.384   2.426   0.641 -0.0950  0.0371 -0.0599
11095W        W27229  17.869   7.233  15.844 -0.2465  0.1286  0.0004
11096W        W27230  15.234   0.646  13.931  0.1240  0.0130  0.0538
11097W        W27231   2.922   0.725   1.716 -0.0970 -0.1115  0.0463
11098W        W27232  11.372   6.173   0.675 -0.1833 -0.1250  0.1933
11099W        W27233  13.432  15.716  15.488  0.0660  0.3553  0.0454
11100W        W27234   0.777  12.456  11.595  0.0644 -0.0701 -0.0360
11101W        W27235   0.037  10.713   2.207  0.0723  0.0403 -0.0304
11102W        W27236  13.246   9.031  15.431  0.0836  0.2833 -0.0429
11103W        W27237   4.489  12.269   1.186 -0.1951 -0.3228 -0.0903
11104W        W27238  14.794   3.550  10.948 -0.0659 -0.0299 -0.2877
11105W        W27239  15.632   9.778  14.675  0.2792  0.1534  0.1514
11106W        W27240   5.794   6.278  15.384  0.1333 -0.1429  0.1370
11107W        W27241  12.852   8.287   4.659  0.1093 -0.0819  0.0019
11108W        W27242   0.560   8.552   2.031  0.0605 -0.2573 -0.2298
11109W        W27243   0.844   2.497   4.432  0.3353  0.2097 -0.0845
11110W        W27244   2.644  14.031   4.067  0.0117  0.1307  0.1909
11111W        W27245   4.878   0.061   5.997 -0.0399  0.0808 -0.0934
11112W        W27246   4.997   6.309   2.704  0.1422  0.0121  0.0009
11113W        W27247  15.319   6.273   3.166 -0.0940 -0.0341 -0.1496
11114W        W27248  13.673   6.947   1.166 -0.2134  0.0691 -0.0813
11115W        W27249   1.628  15.355  10.775 -0.0238 -0.0766  0.0672
11116W        W27250   7.901  11.118   1.931 -0.0641  0.1181 -0.0918
11117W        W27251   7.202  17.840   4.135 -0.0643  0.0636  0.2833
11118W        W27252  15.200   3.610   2.514  0.1740  0.1240 -0.5336
11119W        W27253   0.808   1.533   3.320  0.0142  0.1100  0.1168
11120W        W27254   8.092  13.879   4.705  0.1645 -0.0228 -0.2832
11121W        W27255   0.343   6.306  10.981 -0.0149 -0.1409 -0.3897
11122W        W27256  12.429  13.147  15.444  0.1595  0.2018  0.0995
11123W        W27257   8.938   7.355  15.880  0.1335 -0.1289 -0.3034
11124W        W27258  18.210   0.433   4.062 -0.1889  0.0095  0.0401
11125W        W27259  14.652   7.376  11.332  0.1587  0.1279  0.0735
11126W        W27260   4.020   7.224   0.718  0.0836  0.1126 -0.1023
11127W        W27261   5.755  12.118  13.785 -0.0558 -0.4871 -0.0112
11128W        W27262  16.626  15.521   2.807 -0.3239  0.0195 -0.1274
11129W        W27263  18.157   4.740   1.923 -0.1737  0.1298 -0.0892
11130W        W27264  16.115   6.619   4.507  0.1394  0.0136  0.1706
11131W        W27265   3.340  18.085  14.232  0.1298 -0.1057 -0.0218
11132W        W27266   4.626  13.246  15.674 -0.3733  0.0498  0.0205
11133W        W27267  13.709  10.282  13.806 -0.2478 -0.2820  0.1698
11134W        W27268   7.572  15.050  14.985 -0.0892  0.2034  0.0598
11135W        W27269   4.961  14.083   1.427 -0.1282 -0.1955 -0.0371
11136W        W27270   3.127   9.476   2.296  0.6602 -0.1370  0.2950
11137W        W27271  12.568   4.366   3.247 -0.0963  0.0698  0.1847
11138W        W27272   0.665  18.289  14.646  0.3340 -0.0679  0.0141
11139W        W27273  12.194  16.567  11.958  0.0575 -0.3102 -0.0695
11140W        W27274   6.886  17.074  15.057  0.1619  0.1682 -0.0926
11141W        W27275   0.409  12.635   3.585 -0.1715 -0.1733  0.2436
11142W        W27276   4.513   5.795   2.715  0.2804 -0.3473  0.0317
11143W        W27277  13.902   6.832   4.686 -0.0990  0.2961  0.4478
11144W        W27278  10.517   0.166   2.603  0.0765 -0.2246 -0.2712
11145W        W27279   0.166  15.900   0.928 -0.0234  0.1626 -0.1417
11146W        W27280  14.277   4.593  11.947  0.2108  0.2347  0.1144
11147W        W27281   5.495  13.363  10.992 -0.2010 -0.0658 -0.2274
11148W        W27282   3.148  11.614   4.631 -0.2162 -0.1256 -0.2247
11149W        W27283  10.432   6.080  13.663  0.0899  0.2635 -0.1151
11150W        W27284   3.982  18.409  13.594 -0.2219 -0.0523 -0.1535
11151W        W27285  13.397   6.788   5.440 -0.2274  0.1866  0.0370
11152W        W27286   7.561  15.037   3.923 -0.0790 -0.0901 -0.2368
11153W        W27287  16.591   6.597   0.688 -0.2944  0.0420 -0.2517
11154W        W27288   5.612   4.892  13.686  0.0676  0.2430 -0.3685
11155W        W27289   7.987  10.694   6.533  0.4149  0.0490 -0.0530
11156W        W27290   9.059  11.881   1.283 -0.1326  0.1905  0.2283
11157W        W27291  13.900  13.965  15.046  0.1085 -0.2178 -0.1138
11158W        W27292  15.266  12.037  10.743  0.0013  0.1087  0.0522
11159W        W27293   4.448   0.775  11.707 -0.2640  0.0717 -0.0404
11160W        W27294   1.344  15.762  14.825 -0.0297  0.0477 -0.0620
11161W        W27295   5.774   5.546  12.923  0.1875 -0.2251  0.0737
11162W        W27296   5.854  16.820   5.722  0.1460 -0.1622  0.1771
11163W        W27297  11.361   3.092  11.839  0.0843 -0.2585 -0.1906
11164W        W27298   2.158   7.003  14.427 -0.0589 -0.2623  0.0595
11165W        W27299  14.898   0.667   5.071 -0.2904 -0.3391 -0.0871
11166W        W27300   5.495   1.145  15.566 -0.2116  0.2382  0.0049
11167W        W27301   6.670   4.186   1.902  0.2509 -0.0523 -0.1794
11168W        W27302   8.185   3.147   0.303  0.0185 -0.2601 -0.0896
11169W        W27303   9.067  14.404   1.364  0.0348 -0.0803  0.0061
11170W        W27304  11.796   3.148   3.667 -0.3099 -0.1519  0.0134
11171W        W27305   6.266   2.290   5.582 -0.0447  0.3651  0.3858
11172W        W27306   3.895  17.890   0.961  0.2408 -0.1721  0.1046
11173W        W27307  13.891  18.227  13.622 -0.1237  0.1906 -0.0582
11174W        W27308   2.030   0.130   0.402  0.1827  0.0923 -0.0709
11175W        W27309  10.886   8.526   4.586 -0.2869  0.1331  0.1291
11176W        W27310  11.306   4.649  13.349  0.1485  0.0498  0.2353
11177W        W27311   8.316  17.641   4.998  0.1731  0.0764 -0.1305
11178W        W27312   2.963   5.183  11.106  0.0531  0.0866  0.3971
11179W        W27313   3.110  12.158   3.418  0.0643 -0.0904  0.3234
11180W        W27314  17.615   5.844  11.735 -0.0597 -0.3081 -0.0328
11181W        W27315  10.178  10.206   4.071 -0.2483  0.0502 -0.2310
11182W        W27316   4.322  16.257   4.188 -0.1086  0.4017 -0.0939
11183W        W27317   6.592   3.219  13.403 -0.1290 -0.2474  0.0239
11184W        W27318   6.320   6.089  13.354  0.2119 -0.3063  0.1781
11185W        W27319   0.481  11.070   0.421  0.0696 -0.1056 -0.2127
11186W        W27320   5.508  12.979   1.994 -0.1141  0.0728 -0.2167
11187W        W27321  15.967  14.083  15.629  0.2036  0.1483 -0.3622
11188W        W27322  18.481  17.955  14.040 -0.0057  0.2510 -0.3192
11189W        W27323  10.189   5.636  12.063  0.1111 -0.1338  0.0865
11190W        W27324   9.467   4.890   4.553 -0.1203 -0.0131 -0.0765
11191W        W27325  12.268  10.214   2.234  0.1453 -0.1200 -0.0557
11192W        W27326   2.643  16.657   2.582  0.0910  0.1569  0.3171
11193W        W27327   6.370   4.281  13.707  0.3385  0.1547 -0.2805
11194W        W27328   4.722  18.429  11.369 -0.0217  0.3154 -0.0527
11195W        W27329   5.706  12.063   3.732 -0.1791 -0.2280 -0.0268
11196W        W27330  13.777  12.232   1.774  0.1936  0.0631  0.2806
11197W        W27331  12.742  13.091   4.031  0.0769  0.1987  0.4542
11198W        W27332   3.507   8.893   1.093 -0.1439 -0.2450  0.2678
11199W        W27333   6.599   6.869   3.701  0.0825 -0.1427 -0.0730
11200W        W27334   2.519   0.277   0.339  0.1659 -0.2902  0.0837
11201W        W27335   8.362   7.434   5.391  0.0334  0.0847  0.1819
11202W        W27336  12.652   7.438  14.849 -0.0985  0.2712  0.0318
11203W        W27337  17.890   7.285   4.983  0.1475  0.0721 -0.2462
11204W        W27338  10.191  11.240  14.456 -0.1907 -0.0419 -0.0401
11205W        W27339  10.607   8.860  14.013 -0.1354 -0.2239 -0.2155
11206W        W27340  15.312   6.821   5.498 -0.0966 -0.2129 -0.0219
11207W        W27341  14.811   0.350  13.787  0.0223 -0.1722  0.1320
11208W        W27342  13.008   7.178  16.049 -0.1045  0.1124 -0.0795
11209W        W27343  15.435   6.614  15.910 -0.1888 -0.1301  0.2130
11210W        W27344   2.882  12.507  12.922  0.0396 -0.1029 -0.3810
11211W        W27345  14.244   2.834  13.706 -0.1624 -0.0450 -0.0570
11212W        W27346  10.935  16.735   2.220 -0.1196 -0.1036  0.1997
11213W        W27347   2.130  11.566  15.112 -0.0776 -0.0987  0.1480
11214W        W27348   6.717   1.834   0.148 -0.1579 -0.2635 -0.3127
11215W        W27349  16.210  15.348  10.823 -0.1707  0.0460  0.1846
11216W        W27350   7.541   8.969   4.164  0.4530 -0.2066 -0.3492
11217W        W27351   5.740   2.756   4.550 -0.2468 -0.3044 -0.0818
11218W        W27352   0.596   1.106   0.534  0.4335  0.1857  0.0956
11219W        W27353  12.907  17.043   2.127  0.0190 -0.1292 -0.0778
11220W        W27354   2.921   8.180  14.835  0.0082  0.1194 -0.1380
11221W        W27355  12.085  13.611  14.090 -0.3019 -0.2602 -0.0050
11222W        W27356  14.489  10.002   0.525  0.1821  0.3517 -0.0984
11223W        W27357   9.478   1.507   1.986 -0.0281  0.0592 -0.2205
11224W        W27358   0.282   9.771  11.733  0.2725  0.0688 -0.1415
11225W        W27359  17.040   6.076  10.828  0.3035 -0.1233  0.3413
11226W        W27360  17.708  18.190  13.544  0.2864 -0.0756  0.0971
11227W        W27361  11.198   7.491  15.135 -0.0508 -0.0214 -0.0310
11228W        W27362   6.196  14.862  13.052  0.1142 -0.2110 -0.3557
11229W        W27363  14.630  14.609   0.955 -0.1158  0.5144  0.0847
11230W        W27364  17.218   4.505   4.754  0.1318 -0.1153 -0.2403
11231W        W27365  12.184   1.066  10.621  0.3395  0.1506  0.0075
11232W        W27366   5.482  10.477  12.468 -0.1211  0.3705  0.0158
11233W        W27367   8.267  15.370   0.015 -0.1766 -0.4367 -0.1159
11234W        W27368   0.285   0.536  11.053 -0.3820  0.2671  0.1157
11235W        W27369   5.034  17.022   2.418  0.0091  0.2658  0.3545
11236W        W27370   0.618  14.340   0.492  0.1902  0.1130  0.0714
11237W        W27371  14.163  11.784  15.096  0.4219  0.3606 -0.2035
11238W        W27372  16.822   4.745   1.215  0.4027 -0.2271  0.1350
11239W        W27373   0.951  17.737  11.200  0.1949  0.2575  0.3247
11240W        W27374   1.672  17.899   1.059  0.4460  0.3989 -0.0667
11241W        W27375  13.971   4.506   3.184 -0.1246 -0.1407  0.3900
11242W        W27376   7.405  15.051  11.576 -0.2412 -0.1481 -0.0938
11243W        W27377  16.915   9.617  13.286 -0.1191  0.1700 -0.0829
11244W        W27378   7.513   8.431   2.417  0.0137 -0.3189  0.1598
11245W        W27379   4.051  14.680  12.736 -0.4217 -0.0706 -0.2894
11246W        W27380  17.196  12.320   0.766  0.1554  0.1351 -0.2176
11247W        W27381  14.938   8.636   5.533  0.0892  0.2857  0.2116
11248W        W27382   7.529  10.843  14.350 -0.1136 -0.3885  0.2233
11249W        W27383   2.791   3.524   2.903 -0.1883  0.2932 -0.3865
11250W        W27384  11.340  11.924  14.919 -0.0317  0.0862 -0.1448
11251W        W27385  15.239   9.314   4.533 -0.0612 -0.0550  0.0405
11252W        W27386   9.943   9.993  11.959  0.2946  0.0858 -0.3558
11253W        W27387   9.344  16.390  13.347  0.1169 -0.1245  0.0490
11254W        W27388  13.847   7.640  13.165 -0.2531  0.0241  0.2263
11255W        W27389  18.316  10.736  10.579  0.0958  0.1502  0.1831
11256W        W27390   8.189  14.128  14.934  0.2062  0.2403 -0.0884
11257W        W27391  17.654  11.131  11.247  0.1787 -0.1391  0.0507
11258W        W27392   4.982  11.569  15.192 -0.2402  0.6079 -0.1415
11259W        W27393   4.087  14.187  10.657  0.3710 -0.0101  0.3372
11260W        W27394   8.944  14.991  13.671  0.0740  0.2384 -0.3348
11261W        W27395   2.647   3.579   1.980  0.0201  0.1004 -0.0768
11262W        W27396   0.324   7.111   1.856 -0.1587 -0.2182 -0.1801
11263W        W27397  16.497  17.450   5.004  0.0189  0.0994  0.1257
11264W        W27398   5.526   3.023  10.911 -0.4019 -0.1184 -0.3485
11265W        W27399  11.841  16.874   0.753  0.1134  0.0082  0.0587
11266W        W27400   9.823   3.749   3.588 -0.1040 -0.0110  0.2298
11267W        W27401   0.223   6.629   2.633 -0.1049 -0.1234  0.0559
11268W        W27402   9.817   5.705  10.737 -0.0976  0.0534 -0.1931
11269W        W27403   5.992  13.974  14.041 -0.0095  0.2070 -0.2332
11270W        W27404  10.657   3.315   3.443 -0.4929 -0.0167  0.2215
11271W        W27405  18.120   8.493  12.197 -0.1811 -0.3171  0.3025
11272W        W27406   1.703   0.940  11.140 -0.2573  0.0342  0.2945
11273W        W27407  11.185  15.196   5.722 -0.1058  0.2132  0.2312
11274W        W27408  11.036  11.735   5.902  0.0584  0.0410 -0.3845
11275W        W27409   9.669  11.621   4.585 -0.0951 -0.3341 -0.4086
11276W        W27410   7.204   6.768   1.280 -0.0646 -0.2897 -0.0333
11277W        W27411   3.741  18.313  14.438  0.0865  0.3868  0.1987
11278W        W27412   1.106  17.965  15.467  0.1824 -0.1773  0.0771
11279W        W27413   5.262   1.031  10.458  0.1583 -0.2542 -0.1948
11280W        W27414   4.468   0.963  12.191  0.0948 -0.2444  0.0215
11281W        W27415   6.356  14.029  13.659  0.1052  0.0155  0.1259
11282W        W27416   5.125  10.423   5.229  0.1470 -0.0829 -0.2672
11283W        W27417  18.218  16.122   1.710  0.0737 -0.2808  0.0601
11284W        W27418   9.122   6.822  15.144 -0.0012  0.0864  0.2630
11285W        W27419  16.679   3.403   3.086 -0.2477  0.0696  0.0479
11286W        W27420   5.884   1.622  12.657 -0.1105  0.0057  0.2013
11287W        W27421  11.231   0.831   0.843 -0.2602  0.1223  0.1310
11288W        W27422  12.978  17.958  14.694 -0.1738 -0.1506 -0.3240
11289W        W27423  18.099  16.079   3.754 -0.0362  0.1086 -0.2793
11290W        W27424   5.139   4.868   4.557  0.0357  0.1976 -0.0569
11291W        W27425   0.762  10.915   1.375 -0.0058 -0.0823 -0.0004
11292W        W27426   6.014   2.590  15.948  0.2526 -0.1260 -0.4270
11293W        W27427  17.096   4.094   1.228 -0.0082  0.1191  0.1294
11294W        W27428   9.920   3.984  14.740  0.0811  0.2243  0.1901
11295W        W27429   4.663   7.798   4.828 -0.1259 -0.1658 -0.2065
11296W        W27430   1.041   8.499   0.547 -0.1391  0.2732  0.0123
11297W        W27431  14.893  11.114  15.103 -0.0496  0.1864 -0.2168
11298W        W27432   9.612  12.798   2.643  0.1907  0.0129  0.0774
11299W        W27433   1.080  10.603   5.167 -0.2228  0.0316 -0.0205
11300W        W27434   9.960  14.658  12.832  0.1400  0.0285  0.1780
11301W        W27435   7.867   8.014   4.490  0.0882  0.1544  0.0781
11302W        W27436  12.018  12.572   3.098  0.1445 -0.1824  0.0230
11303W        W27437   3.685   6.443   5.644  0.1801  0.2923  0.1203
11304W        W27438  10.131   1.512  13.547 -0.0957  0.1875 -0.1756
11305W        W27439  16.149  11.520  14.946 -0.1695 -0.1394  0.0082
11306W        W27440  17.315  15.175   1.776 -0.1460 -0.0313  0.0095
11307W        W27441   1.606   6.576  12.950 -0.1139  0.2326  0.2441
11308W        W27442   4.593   9.651   5.192 -0.4593 -0.1370 -0.1248
11309W        W27443  11.648  18.148   3.133  0.0334  0.0411  0.1299
11310W        W27444   0.222   7.286   4.580  0.0769  0.0482  0.0555
11311W        W27445   9.263  16.155   3.210  0.0493  0.1249 -0.1824
11312W        W27446   8.697  10.096   2.006  0.2506 -0.4048  0.0745
11313W        W27447   7.807  13.964   5.435 -0.0841  0.0636 -0.3298
11314W        W27448  14.348   8.614  14.984 -0.0225  0.2422 -0.5965
11315W        W27449   0.829   4.932   2.343 -0.0319 -0.2377  0.2427
11316W        W27450   1.566  15.556  12.893 -0.1291  0.0088 -0.0924
11317W        W27451   6.331  15.413   2.614  0.2557 -0.1167 -0.1629
11318W        W27452   7.523   6.274  10.396  0.0091 -0.1798  0.2678
11319W        W27453   4.919   9.791   0.779  0.0060  0.0886 -0.2938
11320W        W27454   1.722  12.575   0.892  0.2413 -0.1252  0.0892
11321W        W27455  12.771   0.377   0.240  0.0428  0.1152  0.3211
11322W        W27456  12.040  15.454   1.427  0.0210 -0.0276 -0.0932
11323W        W27457  13.385   4.711  14.006  0.1108 -0.2332  0.0778
11324W        W27458   8.130   2.039   0.529  0.0528  0.2295  0.0637
11325W        W27459  15.873   1.858  12.022  0.0255  0.1546 -0.2125
11326W        W27460   4.827   3.883   1.852  0.0312 -0.2566 -0.0614
11327W        W27461  12.273  13.671  15.597 -0.0034 -0.1042 -0.4218
11328W        W27462  16.838   3.769   0.804  0.0055  0.1375 -0.2969
11329W        W27463  10.579   1.475  13.977  0.0662 -0.2050 -0.0556
11330W        W27464  12.100   5.713   5.844  0.3193 -0.4669 -0.0069
11331W        W27465   1.419   6.134   0.989  0.3158 -0.0293  0.1405
11332W        W27466  14.047   7.801  11.761 -0.2107  0.0466 -0.4319
11333W        W27467  10.293   1.529   1.068  0.1210  0.0507 -0.0926
11334W        W27468   8.396  15.023   5.321  0.0594 -0.2256  0.0545
11335W        W27469   1.844   4.150  11.185  0.1706 -0.1825 -0.2758
11336W        W27470   7.433   8.799  14.634 -0.0637  0.1924  0.3181
11337W        W27471  11.268   6.049   2.645 -0.2000  0.3214 -0.2249
11338W        W27472   4.426  12.193   2.070  0.2402 -0.0935  0.1642
11339W        W27473  17.804   9.086   1.895  0.1555  0.1261 -0.0502
11340W        W27474  13.769   2.520  15.195 -0.1285 -0.1234  0.0821
11341W        W27475  12.339   1.994  14.926 -0.0546  0.1739 -0.2087
11342W        W27476  11.561   1.767   0.522  0.3691 -0.0180  0.1834
11343W        W27477   6.192  15.038  14.393 -0.1058  0.1919 -0.0677
11344W        W27478  13.120   6.065   6.037  0.0224  0.1641  0.2374
11345W        W27479  18.260   5.388  15.728 -0.1466 -0.0417  0.2884
11346W        W27480  16.322  16.324   5.684 -0.1109 -0.1443 -0.1519
11347W        W27481  13.217   2.177  14.246 -0.0832  0.2640  0.0144
11348W        W27482  11.640   4.378   2.786 -0.0253 -0.0222  0.0259
11349W        W27483   4.262  13.470  11.260  0.0204 -0.3871 -0.1269
11350W        W27484  17.272   5.742   2.139 -0.0880  0.1840 -0.0704
11351W        W27485   8.809  13.544  15.973 -0.2286  0.0407 -0.1741
11352W        W27486   3.444   6.097  15.665 -0.0786 -0.1255  0.0410
11353W        W27487   5.536  15.380  11.957  0.1772 -0.0037  0.2330
11354W        W27488  11.028   9.686   3.845 -0.0083 -0.0644 -0.2175
11355W        W27489   1.176  17.584  14.215  0.2850 -0.2076  0.2408
11356W        W27490  15.093  13.831   1.448  0.0774  0.2564 -0.2222
11357W        W27491   6.331  14.876  11.125  0.0235  0.0244 -0.1358
11358W        W27492  10.805  16.401   4.795 -0.1173  0.0402 -0.0517
11359W        W27493   1.968   3.191  13.726  0.0328  0.0826 -0.1522
11360W        W27494  16.559   7.730   3.645 -0.0837  0.0962 -0.1301
11361W        W27495  13.552  17.940   2.680  0.1207  0.1885  0.0667
11362W        W27496  13.509   2.365  15.702  0.2997  0.4447 -0.2827
11363W        W27497   2.703   5.450  12.304 -0.3741 -0.0360 -0.0152
11364W        W27498  12.040  13.578  14.940 -0.5572  0.0685 -0.1487
11365W        W27499  10.249  10.672  15.178  0.2691  0.2154 -0.1306
11366W        W27500   9.521   9.235  14.679  0.2723 -0.1034  0.1649
11367W        W27501  13.326  12.136  13.637  0.1213 -0.0283 -0.1056
11368W        W27502   1.423   9.110   1.413 -0.1640 -0.1135  0.2663
11369W        W27503   3.116  16.832  15.458  0.0405  0.1138  0.0008
11370W        W27504  11.925  11.400   0.818 -0.1046 -0.2992 -0.3647
11371W        W27505  16.661  10.586  13.616 -0.0879  0.1520 -0.1229
11372W        W27506   8.856   1.887  10.926  0.2963  0.0122 -0.1217
11373W        W27507  15.508  14.672   1.190  0.1230  0.1625 -0.1652
11374W        W27508  14.324  11.017   1.194 -0.2621 -0.3988  0.2082
11375W        W27509  17.693  17.268  15.060  0.2231  0.0104 -0.0520
11376W        W27510  17.896   8.131  13.228  0.0391  0.1766 -0.0966
11377W        W27511   4.060   4.894   5.456  0.4549  0.1822  0.2135
11378W        W27512  14.234  17.023   4.044 -0.1517 -0.1869  0.0776
11379W        W27513  10.130  14.656   1.783  0.4030 -0.0161 -0.0916
11380W        W27514   6.772   9.150   3.444 -0.1619  0.0607  0.1581
11381W        W27515  16.840  17.926   0.960 -0.0697  0.0668 -0.1455
11382W        W27516  12.615  17.376  13.363  0.3043 -0.0353  0.1272
11383W        W27517   9.167   3.793  14.184 -0.3211  0.2118  0.0794
11384W        W27518   3.674   0.094  15.051 -0.1175  0.0619 -0.0115
11385W        W27519  15.743   1.016  14.677 -0.1453 -0.0205  0.1200
11386W        W27520  11.439   3.104  13.043 -0.0632  0.1376  0.0975
11387W        W27521   3.728   5.652   4.712 -0.0861  0.0425  0.0519
11388W        W27522  11.159   0.973  15.655  0.3312 -0.0915  0.1772
11389W        W27523  14.563  11.500   0.646  0.2813  0.0175 -0.2424
11390W        W27524  10.682   4.426  13.791  0.1860 -0.4105 -0.3009
11391W        W27525  16.535  12.952  12.563 -0.3393  0.0593 -0.1770
11392W        W27526   5.455   7.902  11.630  0.3232  0.0054 -0.0828
11393W        W27527  15.093   6.219   2.402  0.1021  0.0876  0.1000
11394W        W27528  17.287   5.038  14.050 -0.4555 -0.1389  0.2940
11395W        W27529  15.461   6.737  14.247 -0.0838 -0.3493  0.0794
11396W        W27530   9.666   9.765  14.004  0.5286 -0.0900 -0.1566
11397W        W27531  16.164  13.120  13.012  0.1483  0.1566 -0.2162
11398W        W27532  11.299   2.607  15.465  0.1698  0.1722 -0.1858
11399W        W27533  17.929   0.031   4.005  0.1618  0.2325  0.1850
11400W        W27534  14.316   2.426  16.013 -0.3009 -0.1017 -0.0945
11401W        W27535   6.819  17.011   1.357  0.3147  0.2167  0.0191
11402W        W27536   2.634   4.849   4.771 -0.0814 -0.2483 -0.4325
11403W        W27537  16.317  13.377   0.668  0.3729  0.0940  0.3431
11404W        W27538   0.920   0.887  10.889 -0.0347 -0.2651 -0.2810
11405W        W27539  12.831   9.047  14.532 -0.3149  0.1848 -0.1639
11406W        W27540  11.706  11.685   6.133 -0.0619 -0.0038 -0.0811
11407W        W27541   3.033  13.286   4.615  0.0573  0.0021  0.2353
11408W        W27542  10.153   2.783   5.143  0.2067  0.1079 -0.0099
11409W        W27543   4.597   0.380   4.787 -0.0025  0.2209 -0.0507
11410W        W27544  10.894  12.833   4.198  0.0700  0.1066  0.2221
11411W        W27545  14.782  13.951  11.704 -0.1647 -0.2024 -0.1748
11412W        W27546   0.251   9.307   2.878  0.0936 -0.2439 -0.0506
11413W        W27547  15.880  14.753   0.847  0.1193 -0.0302  0.3310
11414W        W27548   6.123  15.910   4.290  0.1216  0.1761 -0.0180
11415W        W27549  13.146   8.716   4.650  0.1478 -0.0146 -0.0197
11416W        W27550   2.608   9.403   0.048 -0.1683 -0.2606 -0.1623
11417W        W27551  16.216   9.856   2.122 -0.0786 -0.2358  0.0016
11418W        W27552  18.454  16.201   3.309 -0.1148  0.1168 -0.1687
11419W        W27553  13.055  17.738  15.509 -0.2474 -0.1069 -0.1951
11420W        W27554   5.212  14.486   0.672 -0.2135  0.1563 -0.3459
11421W        W27555  18.179   6.863   1.365  0.0298 -0.1443  0.0036
11422W        W27556   8.817   4.198   3.874  0.1971  0.3103  0.2426
11423W        W27557   4.322  12.065  10.086  0.2910  0.0377  0.0152
11424W        W27558   0.510  11.958  11.593  0.1281  0.0895 -0.2278
11425W        W27559  17.878  11.634   1.986  0.3309  0.1453 -0.0366
11426W        W27560  13.667   5.729  15.640 -0.3059  0.2498 -0.1643
11427W        W27561  14.563   3.927   5.258  0.1956 -0.1476 -0.0793
11428W        W27562   3.200   5.676  15.790 -0.1078  0.0863 -0.1721
11429W        W27563  12.183   8.349   0.973  0.0697  0.2566 -0.0406
11430W        W27564   5.349  16.324  13.020  0.2476  0.0935  0.0243
11431W        W27565   7.163   1.193   1.128 -0.2338 -0.0846  0.1716
11432W        W27566  15.923  13.189  13.881  0.0147  0.0405  0.3890
11433W        W27567  12.963   2.340  14.695  0.0122  0.0146  0.1286
11434W        W27568  15.989   5.676  12.202 -0.0958  0.0037 -0.0827
11435W        W27569   9.813  14.378  13.694  0.1908 -0.3691 -0.1195
11436W        W27570  10.365  14.401  15.532  0.1479  0.1362 -0.2393
11437W        W27571   3.520   5.319   1.258  0.0163 -0.0557 -0.1313
11438W        W27572  18.248  13.867   0.959  0.1928  0.0931  0.1876
11439W        W27573  17.301   2.275   1.753 -0.2892 -0.2556 -0.0180
11440W        W27574  16.007  10.188   5.273  0.2769  0.1005 -0.0498
11441W        W27575  16.297  17.993  11.715 -0.1784  0.3869  0.0799
11442W        W27576   4.905   5.040   2.516 -0.1728 -0.0237 -0.0862
11443W        W27577   5.469   9.416   1.455 -0.1206  0.2709  0.1668
11444W        W27578   6.205   4.022  11.641 -0.2319  0.1543 -0.4048
11445W        W27579   9.947  14.891  13.860 -0.3327 -0.1086 -0.2018
11446W        W27580  13.884   3.594   3.387 -0.0645 -0.1744 -0.3091
11447W        W27581   5.958   9.273   2.232  0.0338 -0.0788 -0.0340
11448W        W27582  16.528   1.528  15.224  0.1045  0.1336  0.0347
11449W        W27583   8.679   9.422   0.417  0.3174 -0.1782  0.2522
11450W        W27584   3.755  13.849   4.598  0.1481 -0.0675  0.0547
11451W        W27585   2.965   9.634  15.888  0.0537 -0.0930  0.1039
11452W        W27586   6.604  15.059   0.482 -0.1540 -0.0939 -0.0122
11453W        W27587   3.571   3.676   0.002 -0.1686 -0.2714  0.3046
11454W        W27588  15.636  11.724   4.867  0.3765  0.0627  0.0797
11455W        W27589   9.838  14.292   6.165 -0.1303  0.3355 -0.1774
11456W        W27590  10.525   8.380   4.956  0.0796  0.0269 -0.4682
11457W        W27591  16.402   9.498  14.414  0.1280  0.2799  0.1630
11458W        W27592   1.894   7.606  14.339  0.0506  0.0213  0.0474
11459W        W27593  17.641  18.408   4.465  0.3468 -0.2728 -0.2869
11460W        W27594  11.490   0.095   2.852  0.1676  0.0745 -0.3811
11461W        W27595  17.087  18.012  15.107  0.0383 -0.1136  0.1551
11462W        W27596  15.255  12.678   2.378  0.0245 -0.0955 -0.4580
11463W        W27597   8.904  11.056   2.949  0.0695 -0.0291  0.0783
11464W        W27598  15.776   1.287  13.909 -0.1899 -0.1090 -0.0403
11465W        W27599   1.453  14.982   3.167  0.0795 -0.1995 -0.3933
11466W        W27600   2.252   9.520  10.743 -0.0402  0.4148 -0.3266
11467W        W27601  10.825   3.091  13.090 -0.0822 -0.1209 -0.0540
11468W        W27602  14.976   6.396  12.474  0.2792 -0.0910 -0.0673
11469W        W27603  12.585  10.061  14.988 -0.3872  0.2583  0.1048
11470W        W27604  12.671  17.250   3.888 -0.0335 -0.3684 -0.0423
11471W        W27605   7.627   2.130   0.676  0.0036 -0.0994  0.0278
11472W        W27606  13.222   0.966   2.101  0.0561  0.2515 -0.1245
11473W        W27607   5.543  15.417  12.581 -0.0831  0.3541  0.0187
11474W        W27608  15.485  13.300   5.333  0.0848 -0.0539 -0.0391
11475W        W27609  11.122  11.548   1.942  0.0585 -0.2664  0.5278
11476W        W27610   6.029   7.916  13.861  0.0671  0.0844  0.0562
11477W        W27611   5.203  13.842   1.755 -0.0562 -0.4032  0.1186
11478W        W27612  12.123   2.297   2.853  0.2681  0.0113 -0.0412
11479W        W27613   8.197  17.712  15.105  0.0254  0.0614 -0.3373
11480W        W27614   1.174   7.256  15.460 -0.3717 -0.0421  0.0589
11481W        W27615   4.004   8.267   4.346 -0.1020 -0.0156 -0.0465
11482W        W27616  17.684  15.130  14.305 -0.2299  0.0111  0.0827
11483W        W27617   5.087  12.862  11.204  0.1108 -0.2759 -0.0477
11484W        W27618  14.646   9.493   0.560  0.0641 -0.1981 -0.1236
11485W        W27619  12.212  13.049   2.819 -0.1115 -0.5460 -0.0042
11486W        W27620  10.858   5.634  15.919  0.1790  0.0675 -0.0962
11487W        W27621  18.079  11.387  12.601  0.2221  0.3214 -0.1662
11488W        W27622   7.643   7.473   5.929 -0.2771 -0.1382  0.3943
11489W        W27623  17.412  17.585   2.838  0.0388 -0.0171 -0.0253
11490W        W27624   5.568   2.046  12.583  0.1563 -0.1354 -0.0554
11491W        W27625  17.941   5.393  13.446 -0.0323 -0.3142  0.2070
11492W        W27626  15.309   0.632  14.448  0.1631  0.2516  0.1712
11493W        W27627  15.643  11.900   0.140  0.1867 -0.3421 -0.0099
11494W        W27628  17.952  18.362  15.002  0.0969 -0.2206  0.0611
11495W        W27629   6.640  12.502   0.151 -0.0370  0.3237 -0.0307
11496W        W27630  12.915   8.867   0.982 -0.3713 -0.1728 -0.1568
11497W        W27631   6.253   5.575   1.781  0.2338  0.1157 -0.1449
11498W        W27632  14.397  15.228   3.404 -0.0359 -0.2484 -0.2587
11499W        W27633   3.122  12.756  13.813 -0.1744  0.1102  0.0783
11500W        W27634   8.543  17.119   3.833 -0.2418  0.1658  0.0422
11501W        W27635   2.515   3.088   3.016  0.1185 -0.3314 -0.1432
11502W        W27636   8.047   6.778   0.982  0.0896 -0.1999 -0.0012
11503W        W27637   8.680  13.912   5.476  0.1244 -0.0600  0.1373
11504W        W27638   2.346   2.247   1.014  0.1948 -0.1631 -0.0967
11505W        W27639   1.725  17.307  11.113  0.2421 -0.0126  0.0275
11506W        W27640   7.140   5.404   2.700  0.2471  0.1702 -0.4624
11507W        W27641   0.317  11.363  15.105  0.2746 -0.0754  0.1872
11508W        W27642   3.968  10.233   2.177  0.1352  0.0316 -0.1794
11509W        W27643   2.680   2.430   2.114  0.2543  0.0650  0.4816
11510W        W27644  14.832  10.680  12.804  0.0095  0.1414 -0.2000
11511W        W27645   7.345  16.256  13.019  0.0713 -0.0337  0.0041
11512W        W27646   6.235  15.372   0.864 -0.1355  0.0218  0.1298
11513W        W27647  17.698   2.755   3.777  0.3261 -0.0162  0.0458
11514W        W27648   3.612   2.128  16.061  0.0988  0.0783  0.2438
11515W        W27649  13.638   0.550  14.672  0.1523  0.3074  0.1764
11516W        W27650  16.554  17.589   3.911  0.1069 -0.1363 -0.2465
11517W        W27651  12.119  15.944  13.835 -0.0769  0.0502 -0.4851
11518W        W27652   2.535   5.345   0.281 -0.3323 -0.1464 -0.1196
11519W        W27653   3.770   6.159   0.021 -0.0754  0.0254  0.0577
11520W        W27654   4.853   1.044   3.600 -0.1988  0.0333  0.2972
11521W        W27655  15.869   6.504   0.082  0.0728 -0.0390  0.3861
11522W        W27656   7.173   6.372   4.198  0.1141 -0.2279 -0.2097
11523W        W27657   6.527  10.621  12.931  0.3126  0.0818  0.0948
11524W        W27658  12.542   6.354   5.204  0.0909 -0.1861 -0.1337
11525W        W27659  10.886  13.622  12.700  0.1284 -0.2677 -0.0111
11526W        W27660   4.747  17.249  14.611  0.3297 -0.0047 -0.1462
11527W        W27661  10.830   3.106   6.469  0.3336 -0.0603 -0.0734
11528W        W27662  13.904  13.653   1.627  0.2226 -0.0545 -0.4807
11529W        W27663   2.894   0.283   5.108 -0.0819  0.0974  0.0142
11530W        W27664   9.572   9.845   4.691  0.1586  0.0827  0.0313
11531W        W27665   4.365   0.999   3.939 -0.3708 -0.0749 -0.2220
11532W        W27666   9.589  15.763  13.657 -0.0086 -0.3009 -0.0862
11533W        W27667  10.873  10.233   2.633  0.0229 -0.0914 -0.0523
11534W        W27668  14.691  10.561   0.634  0.0338 -0.0684 -0.1526
11535W        W27669   4.767   4.414   4.805  0.1857 -0.2137 -0.1387
11536W        W27670   7.878  14.751   4.795 -0.3281 -0.2166  0.0726
11537W        W27671   8.770  11.602   2.154  0.3729  0.4158 -0.1707
11538W        W27672   3.200  15.874  12.874 -0.2249  0.0792  0.2115
11539W        W27673  13.933   2.342  14.661  0.3052 -0.1803 -0.4251
11540W        W27674   8.119   4.082  13.652  0.0094  0.0348 -0.1092
11541W        W27675  16.600  11.184  10.921  0.0766 -0.3915  0.1622
11542W        W27676   8.693  13.385  14.345 -0.0089  0.1309 -0.1381
11543W        W27677  17.282  11.376  10.288  0.0120  0.2298 -0.0393
11544W        W27678   3.687   8.361  11.510 -0.0184  0.1361  0.0079
11545W        W27679   9.761  10.579  14.362  0.3261  0.1956 -0.1336
11546W        W27680  16.278   4.295   4.139  0.2777 -0.3960  0.0650
11547W        W27681  13.506  17.613   6.043 -0.1732 -0.2684  0.1150
11548W        W27682   2.173  18.315   1.037  0.0145  0.2014  0.1401
11549W        W27683  16.371   3.663  13.809  0.2729  0.2087 -0.1493
11550W        W27684  13.169   8.696  13.355  0.2403  0.0064  0.0252
11551W        W27685   7.400   5.790  14.436  0.0160 -0.1133  0.1358
11552W        W27686  17.726  13.744  13.336 -0.3076 -0.0809 -0.1803
11553W        W27687   8.105  11.028   2.615 -0.1628  0.3293 -0.1702
11554W        W27688   8.716   3.144   3.400 -0.3086  0.1559  0.1859
11555W        W27689  18.204   4.854  15.792 -0.1255  0.1416 -0.0811
11556W        W27690   4.544  12.731  15.992  0.1436 -0.1105  0.0217
11557W        W27691  14.610   5.301   1.369  0.1075  0.4611 -0.1418
11558W        W27692   3.774  10.087  16.048  0.0564  0.1105 -0.1513
11559W        W27693  16.850  14.667  13.904  0.0327  0.1087 -0.0800
11560W        W27694   0.897   6.155   1.192 -0.1755 -0.3014 -0.0564
11561W        W27695  14.071  12.705  15.939 -0.0063  0.0455  0.0633
11562W        W27696  16.784  12.224   0.484 -0.0532 -0.0023 -0.1967
11563W        W27697  16.320   9.640   5.328 -0.2983 -0.1709 -0.0544
11564W        W27698   2.153   3.789  14.580 -0.1751  0.0446 -0.2608
11565W        W27699  13.473  17.135  13.283 -0.0058 -0.3058 -0.1271
11566W        W27700  18.146   5.829  10.563 -0.0192  0.0156 -0.2548
11567W        W27701   5.528  18.059   0.034  0.2302  0.0567 -0.0687
11568W        W27702   5.766   5.054  11.239 -0.0859  0.0093  0.4714
11569W        W27703   4.898  13.697   2.247 -0.1241 -0.3389  0.0655
11570W        W27704  16.384  16.877   2.051  0.0956 -0.0957 -0.3490
11571W        W27705   8.822  11.975  13.931 -0.0601 -0.0548 -0.1491
11572W        W27706  16.388   3.746   4.539  0.2169 -0.0877  0.1654
11573W        W27707  12.621   6.693   3.542  0.0801 -0.0270  0.0564
11574W        W27708   5.005  18.447   2.281  0.1972  0.1298 -0.0952
11575W        W27709  11.332   5.618   5.409  0.2726 -0.2810  0.0311
11576W        W27710  18.212  16.879   2.758  0.0268 -0.0539 -0.1403
11577W        W27711   0.919   0.506   3.788 -0.2013 -0.0563 -0.3585
11578W        W27712   8.506   7.093   5.745 -0.0823  0.1270  0.1054
11579W        W27713   8.953  18.214   4.691 -0.1324 -0.2685  0.0763
11580W        W27714   6.864  13.426  13.736 -0.4397  0.0140  0.1291
11581W        W27715   4.728   6.432  14.102 -0.2672  0.0947  0.4515
11582W        W27716   1.947  15.053  14.558  0.3546  0.1238  0.3266
11583W        W27717   2.350  16.675   3.715 -0.2596  0.4023  0.3066
11584W        W27718   6.952   0.732   1.109  0.2848 -0.0291  0.0422
11585W        W27719  17.467   5.174   5.308 -0.0264 -0.1876  0.4150
11586W        W27720  17.966   3.760  15.403  0.1280 -0.0992 -0.2133
11587W        W27721   2.507   5.250  15.579 -0.2832 -0.0685  0.2068
11588W        W27722  10.060   4.898  15.259  0.0701 -0.1918  0.0446
11589W        W27723   7.404   3.159   0.714 -0.3794 -0.0307  0.2185
11590W        W27724  16.807   3.681   0.278  0.0051  0.0599 -0.0563
11591W        W27725   6.114   7.163  15.764 -0.1849  0.2492 -0.0673
11592W        W27726   0.474  11.478  10.615 -0.0297  0.1763 -0.0358
11593W        W27727   7.341   9.745  12.740  0.3293 -0.3667 -0.3267
11594W        W27728  18.163   7.253  12.222 -0.0963  0.0669 -0.3933
11595W        W27729   7.594  18.420  14.712 -0.0303 -0.0801  0.0302
11596W        W27730  11.214  16.005  13.480 -0.0911  0.0667  0.3996
11597W        W27731   3.526   5.573   5.197  0.2222  0.1102 -0.1633
11598W        W27732   0.787   1.922  14.030  0.0115 -0.2145 -0.1244
11599W        W27733   3.857   0.702   1.397 -0.0832  0.0606  0.1083
11600W        W27734   5.698  15.668  11.505  0.0955 -0.1760 -0.0158
11601W        W27735   4.814   2.347   3.736 -0.1174  0.0028  0.0811
11602W        W27736  12.887  14.618  12.779 -0.0978 -0.2013  0.0633
11603W        W27737  13.247   1.902  13.727 -0.1271  0.1615  0.2207
11604W        W27738   3.859  17.223   1.548 -0.0919  0.0841 -0.0245
11605W        W27739   6.944  10.007  15.306  0.4351 -0.1552  0.1723
11606W        W27740  16.741  14.167   5.636 -0.1047  0.0553  0.2860
11607W        W27741   4.856   4.923  15.562  0.1643 -0.0627 -0.3240
11608W        W27742   8.041   2.195   4.514  0.4819  0.2976  0.3320
11609W        W27743  17.817  13.788  12.471 -0.4377 -0.2425  0.0113
11610W        W27744   2.146   6.555  11.382 -0.0287  0.3532 -0.1476
11611W        W27745   2.123  14.741  10.395 -0.2496 -0.2774  0.0083
11612W        W27746  16.210  14.074  14.147  0.1087  0.2459 -0.0651
11613W        W27747   0.530   1.087  13.881 -0.1044  0.0071  0.3768
11614W        W27748   1.958   5.685   4.687  0.0002 -0.2421 -0.3036
11615W        W27749  13.693   9.232  14.018 -0.0755  0.2884 -0.0679
11616W        W27750  14.670  12.197  12.879  0.0812 -0.3640  0.0895
11617W        W27751   7.000  16.318  12.214  0.1522 -0.2236  0.0581
11618W        W27752  11.028   6.376  13.221  0.1578  0.0484 -0.0722
11619W        W27753   2.086   0.629  13.099 -0.0348  0.0657  0.1469
11620W        W27754  10.357   6.188   4.731  0.0452  0.0567  0.0941
11621W        W27755  16.859  17.927  14.264 -0.0231 -0.1277 -0.0262
11622W        W27756  15.865  10.685   2.891 -0.2343  0.0743 -0.2545
11623W        W27757   9.110  17.367  15.777 -0.3200 -0.0726  0.0604
11624W        W27758   4.191   2.384  12.659  0.1423 -0.2213  0.2579
11625W        W27759  10.674  14.005   5.538 -0.2024  0.0739 -0.2598
11626W        W27760   6.626  13.083  15.550  0.0268 -0.0051  0.2177
11627W        W27761   7.654  11.269  12.412  0.0152 -0.3967  0.2814
11628W        W27762  17.120  11.156  15.868 -0.1092 -0.0867  0.3377
11629W        W27763   6.843   7.005   0.935  0.1275  0.4148 -0.1690
11630W        W27764   9.521   9.632   2.311 -0.0425 -0.0953  0.1854
11631W        W27765   8.379   9.459   5.069  0.1190  0.2315 -0.3114
11632W        W27766  16.863  13.420  15.825 -0.0527 -0.0248 -0.1135
11633W        W27767  16.655   9.656   1.618  0.0304 -0.2596  0.0548
11634W        W27768  12.867  17.844  11.245 -0.1999 -0.1265 -0.2509
11635W        W27769  13.444   8.550  11.545 -0.2018 -0.0650 -0.0171
11636W        W27770   0.409   5.996  11.797 -0.1124  0.0030 -0.1041
11637W        W27771   1.002   2.347  11.189 -0.2011 -0.1836 -0.0703
11638W        W27772   9.849  15.555   3.996 -0.0816  0.2796  0.2835
11639W        W27773  10.553   7.668   0.174 -0.0118  0.2059  0.0445
11640W        W27774   6.589  13.389  15.091  0.0592 -0.1941 -0.0616
11641W        W27775  12.297   9.555   4.340 -0.0680  0.4740  0.1773
11642W        W27776  10.384  13.871  15.379  0.1392  0.1590  0.2188
11643W        W27777   1.965  14.456  13.336  0.2084 -0.6412  0.1230
11644W        W27778  10.058   9.176  15.116  0.2479  0.1620 -0.0141
11645W        W27779   3.280   9.973  13.772  0.0694 -0.0742 -0.0402
11646W        W27780   6.375  16.195   5.246  0.2597  0.0893  0.1939
11647W        W27781   2.129   2.697  11.945 -0.2095  0.0034 -0.1635
11648W        W27782   3.180   2.353  11.649  0.4359 -0.3267 -0.3189
11649W        W27783  15.823   0.357   3.822  0.1361 -0.4034 -0.0843
11650W        W27784  13.201   0.528   2.378  0.1376  0.0019 -0.0593
11651W        W27785   0.888   3.632   1.955  0.2182 -0.1632 -0.3559
11652W        W27786   7.759  11.692  13.243 -0.1920 -0.2098 -0.1978
11653W        W27787  13.490  11.017   3.677  0.1757  0.2208  0.1754
11654W        W27788  12.756   0.971   5.015  0.1521  0.1983  0.0177
11655W        W27789  17.646  18.092   5.624 -0.1128 -0.1558 -0.0392
11656W        W27790  18.285   7.127  15.435 -0.3032  0.1921 -0.0683
11657W        W27791   8.896  11.669   0.723 -0.1316 -0.1134  0.0163
11658W        W27792   7.177  17.210   5.927  0.0352 -0.0834  0.1611
11659W        W27793  18.245  10.248  12.369  0.1561  0.2437 -0.0380
11660W        W27794  12.727   4.558   0.916  0.2142 -0.2197  0.0705
11661W        W27795  16.410   6.718   0.117  0.0933 -0.3273 -0.0208
11662W        W27796  18.359  12.599  10.661 -0.0550  0.1416  0.1176
11663W        W27797  17.114  12.650   3.639  0.0600 -0.0450  0.0783
11664W        W27798   9.613   3.800  15.690  0.2806 -0.3070  0.1811
11665W        W27799   8.397   8.039   5.379 -0.1157  0.2046  0.2328
11666W        W27800  14.252   9.780  11.745  0.2993 -0.2263  0.2188
11667W        W27801   9.460   9.185   0.062 -0.0501  0.2015  0.0919
11668W        W27802   3.590  14.088  14.618 -0.2661  0.5188 -0.3596
11669W        W27803  16.488  11.963   3.794 -0.0488  0.0270 -0.0723
11670W        W27804  12.744  17.680   1.492 -0.2069 -0.1692  0.0914
11671W        W27805   2.080  10.270  15.790 -0.1614  0.1213 -0.0130
11672W        W27806  16.598   3.370   4.899 -0.1824 -0.1232  0.0331
11673W        W27807  12.120  16.292   2.765 -0.0891 -0.2015  0.1518
11674W        W27808   2.843  15.218  14.871 -0.2275 -0.1187 -0.1870
11675W        W27809   2.708   6.571  11.715  0.0791  0.0667  0.0285
11676W        W27810   7.186   5.593   4.627  0.0864 -0.0277 -0.0823
11677W        W27811  10.127  10.593   5.873 -0.0409  0.2153 -0.2646
11678W        W27812   1.365  11.019   2.307  0.1346 -0.2262 -0.2625
11679W        W27813  17.719   8.248  12.376  0.3665  0.3153  0.0714
11680W        W27814   3.728  11.056   5.138 -0.1564  0.2150 -0.1993
11681W        W27815   1.123  18.357  13.488 -0.4233 -0.5233  0.0589
11682W        W27816   2.181   9.686   4.250 -0.1332  0.0887 -0.0163
11683W        W27817   4.368   4.959  15.589 -0.0318 -0.0089  0.2990
11684W        W27818  15.916  11.759  14.090  0.1191  0.0998 -0.1572
11685W        W27819   7.645  15.368  13.989 -0.1516 -0.3683 -0.1687
11686W        W27820   9.143   3.158   0.006 -0.0471 -0.2762  0.0565
11687W        W27821  14.293   3.399  12.399  0.0233  0.1671 -0.4309
11688W        W27822   3.848  13.169  14.354 -0.0690 -0.0361 -0.0199
11689W        W27823  10.486   0.244   5.228  0.3927 -0.0546  0.0506
11690W        W27824  11.654   6.109   0.223  0.0907 -0.0070  0.1233
11691W        W27825  13.690   3.429  15.278  0.1376  0.2529  0.1361
11692W        W27826  11.789   2.638   3.762 -0.1281  0.0653 -0.1403
11693W        W27827  10.909   1.306   1.944  0.1690  0.2193 -0.4484
11694W        W27828  10.462  18.245   5.084  0.1541 -0.2647  0.1450
11695W        W27829  17.501   1.950  12.620 -0.1971 -0.0955 -0.1011
11696W        W27830   1.102  17.710   0.351 -0.0225 -0.2737  0.2189
11697W        W27831  14.647   9.455  11.625  0.2160 -0.1673  0.2163
11698W        W27832  16.018  15.064   1.434  0.1150 -0.0803  0.0412
11699W        W27833   8.281   0.308  11.656 -0.1646  0.0595  0.0153
11700W        W27834   8.380  13.541   0.248 -0.0089  0.0197  0.2366
11701W        W27835  11.850   5.081   3.597  0.0296  0.4230  0.3405
11702W        W27836  14.553   7.815  12.597 -0.0391  0.1785  0.1775
11703W        W27837   5.971  11.047   4.995  0.0025 -0.1151  0.1330
11704W        W27838   9.601  11.069   3.286  0.0581  0.0977 -0.0943
11705W        W27839  15.281   9.545   1.620 -0.0980 -0.0463  0.2546
11706W        W27840   5.677  12.408  14.750 -0.1407  0.0072 -0.2881
11707W        W27841  17.978  11.480  15.937 -0.2713 -0.0764 -0.4044
11708W        W27842   0.103   9.143  15.606 -0.0081 -0.3089  0.1547
11709W        W27843  11.614  16.729  13.744 -0.1135 -0.2786  0.0464
11710W        W27844  16.069   8.939   1.836  0.3215 -0.2711 -0.1911
11711W        W27845  10.951  16.909   4.270  0.0922 -0.0845 -0.3841
11712W        W27846   7.773  11.728   2.273 -0.2251 -0.0428 -0.0798
11713W        W27847   3.665   5.281  11.748 -0.1250 -0.0626 -0.0941
11714W        W27848   9.515   1.086   0.567  0.0357 -0.2791  0.1627
11715W        W27849  16.192   5.768   2.330 -0.0379  0.1491  0.2522
11716W        W27850   2.750   3.764   3.367 -0.0680 -0.1122 -0.0694
11717W        W27851   1.227   3.323   5.353 -0.2719 -0.1976 -0.3040
11718W        W27852   5.495   3.549  15.324  0.1410 -0.0530 -0.2809
11719W        W27853  14.818  18.377   0.903  0.0107  0.1637 -0.0466
11720W        W27854  16.649  14.078   3.858 -0.4461  0.2768  0.0964
11721W        W27855  14.947  10.717   3.948 -0.2530  0.0291  0.0787
11722W        W27856   8.608   6.025  13.574 -0.0884  0.1540  0.3975
11723W        W27857  18.422   9.920   2.339  0.2276  0.0919  0.0043
11724W        W27858  17.553  17.716  12.152 -0.0441 -0.0501 -0.3748
11725W        W27859   8.718  14.210   3.986  0.0824  0.2084  0.0026
11726W        W27860  10.218   9.267   4.532  0.3263 -0.1044  0.0673
11727W        W27861   6.863   8.039   3.092 -0.0165 -0.2157 -0.0219
11728W        W27862   2.925   0.980   4.512 -0.0917  0.1457 -0.0453
11729W        W27863  15.679   2.685   0.385 -0.0318  0.2001 -0.0002
11730W        W27864  13.741  15.268  13.222 -0.0891 -0.1411  0.0805
11731W        W27865  12.733   9.485   1.678  0.3611 -0.2643  0.2286
11732W        W27866   6.760   4.544   0.854  0.2237  0.0166 -0.0052
11733W        W27867   6.456   7.820   1.301 -0.2143 -0.2347  0.1530
11734W        W27868   8.172  11.631   2.742 -0.2848  0.1475  0.0888
11735W        W27869   6.541   3.871   2.485  0.0847  0.1669 -0.1286
11736W        W27870   0.312   4.898  15.007 -0.0999  0.3157  0.0167
11737W        W27871   2.452   6.852  12.777  0.1717 -0.0898 -0.1077
11738W        W27872  16.022   4.895   0.324  0.2406  0.0759 -0.1768
11739W        W27873   5.336   5.253   4.181  0.0470 -0.1408 -0.1985
11740W        W27874  10.278   4.681   4.195  0.1035 -0.2426  0.0825
11741W        W27875  17.068  10.927   1.768  0.2616  0.0557  0.1242
11742W        W27876  12.452   9.317   1.122  0.0722 -0.3201  0.2212
11743W        W27877   4.302   1.496  12.347 -0.1545  0.1600  0.3641
11744W        W27878  14.637   9.132  13.403 -0.2492 -0.0315  0.0068
11745W        W27879   0.808   5.073  11.676  0.1278  0.0423 -0.0823
11746W        W27880  13.661   1.722   4.501 -0.0646  0.1482  0.2375
11747W        W27881  14.022  15.667   4.055  0.3744  0.0190 -0.1277
11748W        W27882   0.805   2.585  14.640  0.2464  0.3625 -0.0602
11749W        W27883   2.489  15.188   3.324 -0.1646  0.2083  0.0540
11750W        W27884  15.325   2.947  10.835  0.0427 -0.0003  0.3596
11751W        W27885   6.391   0.811  15.078  0.4185 -0.1126  0.1157
11752W        W27886   6.442   4.805  12.937  0.0651 -0.1089 -0.2238
11753W        W27887   9.546  14.495   4.147 -0.1005  0.3679  0.1670
11754W        W27888   7.221   5.110  13.127  0.0675 -0.2098  0.3666
11755W        W27889   8.905  18.197   1.427  0.0517 -0.0842  0.1389
11756W        W27890  17.200   8.407  12.079  0.0393 -0.0068  0.1928
11757W        W27891   1.295   2.010  12.162  0.0709 -0.0916 -0.3662
11758W        W27892  14.931   1.318   4.346 -0.1925 -0.2691  0.0076
11759W        W27893   1.920  14.697  12.562  0.1852 -0.0229  0.2217
11760W        W27894  16.583  11.789   3.211 -0.0687 -0.2196 -0.3137
11761W        W27895   2.350   4.541   3.555 -0.0556  0.0855  0.4737
11762W        W27896   0.613   5.063  12.180  0.2791 -0.1044 -0.1945
11763W        W27897   6.602  15.535   2.189 -0.2771 -0.2083 -0.0276
11764W        W27898   0.556  16.688   5.512  0.1029  0.3569 -0.2461
11765W        W27899  16.905  15.588  15.966 -0.4028 -0.1503 -0.2153
11766W        W27900   1.910   6.921  13.951 -0.1303 -0.0556 -0.0291
11767W        W27901   0.300   9.476  12.627 -0.1503 -0.0921  0.3559
11768W        W27902   0.510   7.340  16.040  0.1031  0.1576 -0.0602
11769W        W27903   2.696   8.918   2.749  0.2969  0.0275  0.0766
11770W        W27904   1.700   4.587  15.160 -0.0389 -0.0706 -0.0948
11771W        W27905   4.632  17.193   4.517 -0.2178 -0.0332 -0.0001
11772W        W27906   7.471  11.196   2.091 -0.0179  0.2193 -0.1205
11773W        W27907  11.090   6.818  10.629 -0.4475 -0.2712  0.1192
11774W        W27908  10.755  10.760  12.720  0.2530  0.2158 -0.1310
11775W        W27909  10.014   9.725  11.567 -0.0742  0.2641  0.0221
11776W        W27910   3.753  11.133  10.079 -0.1242 -0.1985 -0.1793
11777W        W27911   0.979   8.748  15.848  0.0656 -0.1201 -0.2245
11778W        W27912   8.254  10.551  12.969  0.0490  0.0607 -0.2895
11779W        W27913  12.796  17.743  15.097 -0.3235  0.1690 -0.0605
11780W        W27914   5.183   2.124   3.376 -0.1254 -0.1217 -0.2877
11781W        W27915  16.880  16.736  10.890  0.0004 -0.0849  0.0355
11782W        W27916  13.954  13.655   4.373  0.2348 -0.1440 -0.0921
11783W        W27917   5.765   2.078  13.006 -0.2259 -0.2832 -0.1181
11784W        W27918  15.361   5.241   1.075 -0.0563 -0.1504  0.0958
11785W        W27919  14.536   4.094   4.766 -0.1429  0.0010 -0.0179
11786W        W27920  12.611   8.291  15.586 -0.0518 -0.2149 -0.2554
11787W        W27921   5.887  14.788  14.822  0.0328 -0.2877  0.0470
11788W        W27922   1.955  13.612  15.619 -0.0330  0.0369 -0.1801
11789W        W27923   2.509  10.259   2.831  0.0320 -0.1995  0.0454
11790W        W27924  16.399  17.641   4.346 -0.0581 -0.1263  0.0102
11791W        W27925   5.051  17.859   5.056  0.2955  0.1140  0.3049
11792W        W27926   8.561  14.510  15.039 -0.0331 -0.0665  0.1992
11793W        W27927   9.508   8.184  14.620 -0.2263  0.0734 -0.0211
11794W        W27928   2.905   8.484  15.712 -0.5511  0.3974 -0.0833
11795W        W27929  15.176   6.494   1.573  0.0470 -0.1234 -0.1980
11796W        W27930   9.410   5.120   4.045  0.0288  0.0057  0.2290
11797W        W27931  15.600   7.074  12.544  0.1360 -0.1018  0.0522
11798W        W27932  18.440  14.155   1.776  0.2125 -0.0571  0.2230
11799W        W27933   5.039   2.755  13.969 -0.1201 -0.1329  0.1040
11800W        W27934  13.044   3.125   2.250  0.0614  0.0985 -0.0105
11801W        W27935   3.198  15.536  10.068 -0.1243 -0.3676 -0.0591
11802W        W27936  14.093  12.523   4.852 -0.0227 -0.3208  0.1446
11803W        W27937  14.020  14.357  13.116  0.0183 -0.0611 -0.0481
11804W        W27938  18.218   7.252   5.368 -0.2579  0.1264  0.0316
11805W        W27939  10.433  14.733  13.028 -0.0202  0.1317 -0.1009
11806W        W27940  17.335  13.736   2.836 -0.1970  0.0055  0.1074
11807W        W27941   2.619   3.245  15.814 -0.1569 -0.4458 -0.0326
11808W        W27942  10.395  11.346   1.900 -0.2624  0.0173  0.2499
11809W        W27943   7.835   9.843  12.859 -0.0446  0.0736  0.0650
11810W        W27944  12.913   0.645   3.021  0.0831 -0.0277 -0.0475
11811W        W27945  18.397  16.892  11.648 -0.1483 -0.3047  0.1317
11812W        W27946  12.627   8.587   1.379 -0.4150 -0.1248  0.2299
11813W        W27947   5.981   3.825   2.944  0.2595 -0.0090  0.0300
11814W        W27948  16.755  15.121  15.906  0.3328  0.1488  0.2237
11815W        W27949  12.601   3.720  11.699 -0.1912 -0.4023 -0.3613
11816W        W27950  18.389  13.383  11.595 -0.2893 -0.2902 -0.0304
11817W        W27951   3.222   8.884  15.558 -0.1247 -0.0158 -0.1716
11818W        W27952   2.942  13.086  14.610  0.0842  0.1802  0.0650
11819W        W27953  16.270  10.271  15.536  0.1340  0.1882  0.0216
11820W        W27954   3.479   4.817   4.626 -0.0160 -0.2164  0.0437
11821W        W27955   7.260   9.759  12.207  0.0483 -0.0718 -0.0853
11822W        W27956  16.310  15.375  14.145 -0.1495  0.2314 -0.0545
11823W        W27957  18.239   1.413   2.933  0.2263 -0.1856  0.1892
11824W        W27958   4.003  17.926  15.378 -0.0204  0.2478  0.4145
11825W        W27959   9.003   9.595  13.366  0.1850  0.3434  0.1867
11826W        W27960   3.247   1.344   4.593 -0.0026  0.3361 -0.1131
11827W        W27961  16.514   6.115   0.805 -0.0793  0.0741  0.0490
11828W        W27962  13.094  13.065   1.763 -0.1079 -0.1457  0.0728
11829W        W27963   9.754   2.254  14.301  0.0633 -0.0725  0.2174
11830W        W27964   1.112   2.732   1.242 -0.2583 -0.1861 -0.3965
11831W        W27965  11.253  14.193   0.823  0.0219  0.1634 -0.2291
11832W        W27966   0.341   5.349   2.290  0.0284 -0.3249 -0.1346
11833W        W27967  15.894  17.689   0.209 -0.0097 -0.2273 -0.0004
11834W        W27968   7.717   1.300   4.280 -0.1177 -0.1159 -0.2238
11835W        W27969   1.952  15.206   4.584  0.0519 -0.3458  0.1821
11836W        W27970   0.152   0.619  15.826  0.0249  0.0432  0.0686
11837W        W27971   2.060  17.537   2.007 -0.0298  0.2158  0.0230
11838W        W27972   8.757  16.368   5.335 -0.0199 -0.1367 -0.0647
11839W        W27973  17.535  12.640  15.231 -0.0057 -0.2936  0.0462
11840W        W27974   7.447  12.418   1.318 -0.3458 -0.0760 -0.0093
11841W        W27975   3.176   9.213   4.577  0.1106 -0.0587 -0.2872
11842W        W27976  11.372  14.899   4.996 -0.2002 -0.3828  0.0327
11843W        W27977   8.966   7.625  11.686  0.0276  0.3635 -0.3820
11844W        W27978   4.825   7.796   2.745 -0.0232  0.1126 -0.3257
11845W        W27979  13.437  12.374  11.293  0.0764  0.2437 -0.0533
11846W        W27980   7.487   2.918   2.050  0.0380 -0.2960 -0.5037
11847W        W27981   8.963  11.394  15.307 -0.1333 -0.1013  0.2193
11848W        W27982  17.444  10.798  15.791  0.0423 -0.2521  0.2775
11849W        W27983   5.170  13.357   3.851  0.1370  0.0864  0.2037
11850W        W27984  16.797  15.547  12.974 -0.4264  0.1936  0.0101
11851W        W27985  12.832   7.314   1.522  0.1211 -0.1881 -0.1519
11852W        W27986   1.876   7.553  12.373 -0.0324 -0.1370 -0.1448
11853W        W27987   8.256   2.625  12.838 -0.0011 -0.2003 -0.0836
11854W        W27988   6.219  11.214   4.406  0.0471  0.1319 -0.0205
11855W        W27989  17.783   3.865  15.821  0.1621 -0.0396  0.0739
11856W        W27990  16.122   4.935   1.671  0.3620  0.3133 -0.2030
11857W        W27991  16.700  17.782   1.401 -0.0234 -0.1760 -0.2826
11858W        W27992  13.830   5.992   1.395  0.1022  0.0837 -0.1768
11859W        W27993  11.540  10.172   0.584  0.0707 -0.2648 -0.1727
11860W        W27994   7.696   8.856  15.898 -0.3141  0.0165 -0.0263
11861W        W27995  17.941   1.812   0.075  0.1112  0.0278 -0.0005
11862W        W27996   7.323   3.152   5.213 -0.0151 -0.0454  0.1186
11863W        W27997   0.712   0.852   4.148  0.1190  0.1064 -0.2124
11864W        W27998   2.198   6.153   3.699 -0.0502 -0.0914  0.1705
11865W        W27999  12.868  10.519   0.093  0.1435 -0.3583 -0.0203
11866W        W28000   8.209   8.121   0.277  0.1268  0.0240  0.2163
11867W        W28001  12.719   0.274   3.809  0.1980 -0.3713  0.3459
11868W        W28002   2.623  10.036   4.256 -0.0472 -0.0673 -0.1520
11869W        W28003   8.768   7.666  14.523  0.4023 -0.0811 -0.2357
11870W        W28004   2.698  14.551   3.924  0.0356  0.2664 -0.3114
11871W        W28005   3.661   5.373  12.705 -0.0389  0.3726 -0.1816
11872W        W28006  12.652   6.332  16.051  0.1092  0.1108  0.0596
11873W        W28007  12.257  13.299   1.254 -0.1976 -0.0129 -0.2772
11874W        W28008   9.697   2.111   1.723 -0.0619 -0.2000  0.0881
11875W        W28009  17.183  11.174   2.196  0.0024  0.1231 -0.0487
11876W        W28010   6.065   0.365   1.646  0.0177 -0.0893 -0.3014
11877W        W28011   7.425  12.645   1.713 -0.2543  0.3269  0.1136
11878W        W28012   8.777  12.740   3.844 -0.0716 -0.0191 -0.1526
11879W        W28013  10.487   7.092   2.827 -0.1225  0.1896  0.1680
11880W        W28014   4.708  11.292   1.178 -0.3614 -0.0648 -0.0817
11881W        W28015   7.747   8.729   0.739  0.2286 -0.1819  0.2500
11882W        W28016  16.574   0.627   0.122  0.0996  0.1423  0.0661
11883W        W28017  13.757  10.357   3.059  0.0113  0.2968  0.0644
11884W        W28018  11.469   6.512  10.495 -0.2607 -0.2449  0.1742
11885W        W28019  18.125  18.288  11.910  0.1336  0.0109  0.2375
11886W        W28020  16.382   8.262  14.887 -0.0173 -0.1470 -0.2893
11887W        W28021  11.163  15.291   4.031 -0.1093 -0.0230 -0.1516
11888W        W28022   9.935   1.251   4.696  0.0724  0.0682 -0.0914
11889W        W28023  11.218   0.639   3.695 -0.0219  0.0532 -0.1043
11890W        W28024   7.706  12.174  13.456  0.0531 -0.1171 -0.1814
11891W        W28025  17.674   5.840   4.446 -0.1334  0.0183  0.0119
11892W        W28026   7.247  14.355  13.773 -0.2793 -0.3195  0.3088
11893W        W28027  18.095  14.725   0.563 -0.0413  0.0480 -0.2341
11894W        W28028   9.635   7.882  14.998 -0.0692 -0.1492  0.1050
11895W        W28029   4.703  13.061  14.114 -0.1450 -0.0747 -0.1493
11896W        W28030   9.073  15.905  12.373  0.2407  0.2214 -0.0663
11897W        W28031   0.237   2.807  14.533 -0.0663 -0.0979  0.0870
11898W        W28032   2.193   2.681  10.822 -0.0266  0.1585  0.0094
11899W        W28033  11.795   8.825   0.179 -0.1133 -0.0824  0.4668
11900W        W28034   8.434   0.171   3.784  0.1011 -0.0032  0.1774
11901W        W28035   8.786   0.624   3.310 -0.0059  0.0611 -0.0609
11902W        W28036   5.292   5.933   1.821  0.0420  0.1940 -0.0439
11903W        W28037   5.361   9.671  11.956 -0.0009  0.2564 -0.0171
11904W        W28038   0.722  16.374  14.014  0.2371  0.0021 -0.0425
11905W        W28039   0.475  17.740   1.168  0.1006  0.0355 -0.1716
11906W        W28040   1.211   3.342  14.462  0.0491  0.0595  0.1559
11907W        W28041  10.921   8.088   5.136  0.1062  0.0613  0.4120
11908W        W28042  16.785  16.062   2.969 -0.2085  0.3684 -0.0327
11909W        W28043  16.394  15.230   3.178 -0.1204  0.0798 -0.1847
11910W        W28044   6.897   8.267  11.265 -0.1400  0.0785  0.5069
11911W        W28045  12.007   4.102   2.979  0.1192 -0.3479  0.0984
11912W        W28046   8.878  16.963   0.634  0.0292  0.0117 -0.1423
11913W        W28047   6.130  17.155  14.562  0.2017  0.1935  0.0711
11914W        W28048   6.818  15.008   0.948  0.2190  0.1547 -0.2111
11915W        W28049  18.136  12.833  11.657 -0.1592  0.1522  0.1583
11916W        W28050  15.391   9.393  11.244  0.0880  0.2725  0.1224
11917W        W28051   3.092   0.930   4.029  0.1884 -0.0221 -0.0789
11918W        W28052  12.030  12.883  11.722  0.1232 -0.0427  0.1300
11919W        W28053  13.565   0.570  13.723 -0.2583  0.0638 -0.4296
11920W        W28054   6.477  13.862  12.154 -0.3275 -0.1735 -0.5054
11921W        W28055   0.374   1.113   4.809 -0.0783 -0.1921 -0.1715
11922W        W28056   9.367   9.597  11.466 -0.1748 -0.0955  0.0935
11923W        W28057  15.327   0.370   1.365  0.0910 -0.0717  0.0225
11924W        W28058   1.670   8.498   4.243 -0.1923 -0.1794 -0.1721
11925W        W28059  12.324  15.340  12.545  0.0672  0.0826  0.1945
11926W        W28060   3.301   2.154  13.026  0.1119  0.4308 -0.3120
11927W        W28061   4.835   3.038   2.543  0.0385 -0.0882 -0.0857
11928W        W28062   7.988   4.171  14.813  0.1308  0.0031 -0.1494
11929W        W28063  12.736   6.034   0.326  0.0412  0.1564  0.1279
11930W        W28064   9.413   2.474  13.480 -0.1722 -0.2139 -0.0679
11931W        W28065   8.390   4.636   0.934  0.2309  0.4164 -0.2760
11932W        W28066  12.484   4.315  12.416 -0.1256  0.0311  0.0624
11933W        W28067   9.750   6.168   1.890  0.2935 -0.3273 -0.1163
11934W        W28068   5.921  14.814   4.784  0.1571 -0.0156  0.0422
11935W        W28069  16.549  12.453  14.081 -0.2313  0.1493  0.0062
11936W        W28070   5.660  11.783   4.777 -0.0805 -0.3158 -0.1323
11937W        W28071   3.726  10.590  16.036  0.0362  0.2543 -0.0592
11938W        W28072   6.896   3.321  14.826 -0.1587 -0.3443  0.0525
11939W        W28073  13.973  15.420  14.916  0.0087  0.2313  0.0144
11940W        W28074   4.440   3.964  13.878 -0.3882 -0.0167  0.0739
11941W        W28075  12.226  15.185   3.309 -0.0298 -0.6825  0.3844
11942W        W28076  13.422   2.436   0.891  0.0318 -0.1124 -0.1416
11943W        W28077  16.645   8.013   2.528 -0.0936  0.1011  0.2597
11944W        W28078  18.009   9.101   2.370 -0.1739 -0.2477 -0.0094
11945W        W28079  11.973   7.039  13.720 -0.2980 -0.0087 -0.0173
11946W        W28080  17.719   1.718   2.509  0.1868 -0.1866  0.4881
11947W        W28081  11.355  10.901   3.072 -0.2378 -0.0661 -0.0881
11948W        W28082   3.509  15.784   2.637 -0.1304  0.1532 -0.1980
11949W        W28083  16.647  12.483  10.946  0.1172  0.2208  0.0242
11950W        W28084   7.658  11.677   2.765  0.0711  0.0892 -0.0280
11951W        W28085   8.901   5.319  13.271  0.0743 -0.2100  0.1242
11952W        W28086   4.901  14.039   2.683  0.1966  0.2786 -0.2014
11953W        W28087   7.337   1.212  11.926  0.3725 -0.3167 -0.1714
11954W        W28088  18.038   4.064   3.152  0.2987 -0.1841 -0.0970
11955W        W28089   6.553   1.023   1.240  0.1127  0.0271 -0.1158
11956W        W28090  11.816   1.607   2.031  0.3281  0.1129 -0.0100
11957W        W28091   6.922   4.678   2.133 -0.1416 -0.0771  0.1075
11958W        W28092   7.026   6.932   2.337 -0.1263  0.1173  0.0001
11959W        W28093  11.568  11.277  12.739 -0.1886  0.1905 -0.2066
11960W        W28094  10.379   0.580  14.986  0.0966 -0.1222  0.0654
11961W        W28095   2.115   3.100   3.402 -0.0023 -0.2000  0.0023
11962W        W28096  17.407   8.284  12.789 -0.0071 -0.0340 -0.0781
11963W        W28097   2.707   4.695  13.995  0.1138 -0.0035 -0.2076
11964W        W28098  11.941   8.406   2.366 -0.1518 -0.1683  0.1332
11965W        W28099  13.758   5.286   0.717 -0.0101 -0.1820 -0.0600
11966W        W28100   9.076   0.859   6.054 -0.0127  0.3644  0.2251
11967W        W28101   9.448   0.084  15.973  0.2241 -0.1706 -0.0750
11968W        W28102   5.085   1.087  15.376  0.1620  0.2568 -0.0833
11969W        W28103  10.952  13.453   3.575 -0.0316 -0.0207 -0.1022
11970W        W28104  15.020  15.740  11.428 -0.0837  0.0491 -0.3216
11971W        W28105  11.179  17.588  14.439  0.2564 -0.2291  0.2882
11972W        W28106  14.440   2.287  14.677 -0.0032 -0.3030  0.1961
11973W        W28107  12.502  14.912   3.874 -0.3340  0.0075  0.1713
11974W        W28108   8.998  16.625   0.176  0.2717 -0.0386  0.0016
11975W        W28109  15.331   8.033  15.585 -0.1912 -0.1712 -0.0784
11976W        W28110   7.597  15.406   3.544 -0.0920  0.2396  0.2481
11977W        W28111  17.068  10.872  15.449 -0.2383  0.0665 -0.0631
11978W        W28112   7.093   5.243  12.293 -0.1537 -0.0332 -0.0160
11979W        W28113  12.886   2.520  14.153 -0.1378  0.1318 -0.0005
11980W        W28114  16.601  13.135  15.491  0.1450 -0.0099 -0.1182
11981W        W28115   7.972  15.293   1.924  0.1167 -0.0452  0.0644
11982W        W28116   4.987   0.266  10.117  0.1036 -0.3049  0.0393
11983W        W28117  11.437  18.012  13.609  0.0475  0.0826 -0.1824
11984W        W28118  12.478  12.849  13.638 -0.0770 -0.1717 -0.0342
11985W        W28119  16.070   4.015   2.598 -0.1506 -0.3036 -0.2174
11986W        W28120  17.937   8.596  11.467 -0.0273 -0.2853 -0.2164
11987W        W28121  10.688   9.193   2.598  0.2691 -0.2159  0.0678
11988W        W28122  16.261   7.869  12.472 -0.0726  0.0829 -0.2144
11989W        W28123  13.652  11.350   3.308 -0.0190  0.0281  0.1465
11990W        W28124  17.963  14.219   1.354  0.2466 -0.3815 -0.4171
11991W        W28125  16.393  10.039   5.006 -0.1103 -0.0134  0.1958
11992W        W28126   9.536  16.905  14.420 -0.0675  0.2500 -0.0549
11993W        W28127   0.772  16.164  14.456 -0.0966  0.0664  0.2922
11994W        W28128   6.793   2.123   3.693 -0.2860 -0.5217  0.3121
11995W        W28129   9.861  12.719  13.616 -0.0427  0.1117 -0.1835
11996W        W28130  15.579   9.590  10.830  0.0416 -0.4184 -0.2695
11997W        W28131   0.279  14.908  11.352  0.0410 -0.2782 -0.1311
11998W        W28132  15.331  11.454   5.260  0.0898 -0.0177 -0.0462
11999W        W28133  12.758   6.028   3.359 -0.2983  0.2056 -0.0666
12000W        W28134  16.638  15.199  15.233 -0.2277 -0.0486 -0.2178
12001W        W28135  15.538   8.667   1.087  0.0927 -0.0283 -0.2932
12002W        W28136   5.047   5.699   1.423 -0.1210  0.1634  0.0425
12003W        W28137  14.980   0.290  11.739  0.0726 -0.3464 -0.0235
12004W        W28138   0.028  13.266   5.343  0.2660 -0.1541 -0.0279
12005W        W28139  13.200   0.117  13.627 -0.3175 -0.1839 -0.3151
12006W        W28140  12.861   7.640  14.455  0.3493  0.0462 -0.0136
12007W        W28141   3.111   5.474   2.771 -0.0003 -0.2075 -0.1666
12008W        W28142   6.226   7.449  13.215 -0.1110  0.1453 -0.1491
12009W        W28143  17.712  13.093  13.963  0.3011  0.2424  0.1762
12010W        W28144   9.009   2.080   4.523 -0.1471 -0.1051  0.1213
12011W        W28145   0.315  12.653   5.172 -0.2346 -0.1091 -0.1258
12012W        W28146  10.063   3.617  12.506 -0.0464  0.1801  0.1084
12013W        W28147   3.960   0.406   6.023 -0.0448 -0.1912  0.3674
12014W        W28148   9.661   9.072   2.884 -0.3770 -0.0798  0.0895
12015W        W28149   2.616   5.545  11.361 -0.1136 -0.1415 -0.3184
12016W        W28150  16.454   1.835   4.264  0.1526  0.0443 -0.0393
12017W        W28151   6.129  12.456   0.498  0.1533  0.1040 -0.4260
12018W        W28152   1.946  10.969  11.795  0.3083  0.0306 -0.0154
12019W        W28153  12.918  10.077  11.140  0.0207  0.0111 -0.1235
12020W        W28154  18.351   8.763   4.916  0.2573  0.2029 -0.1587
12021W        W28155   6.801  13.559  12.450 -0.1926 -0.0843 -0.1174
12022W        W28156   3.152   7.732  12.965  0.2077  0.3120 -0.0015
12023W        W28157   7.816   1.943   2.080  0.1284 -0.2290  0.3242
12024W        W28158  13.128  16.008  11.810 -0.0228  0.3982 -0.2436
12025W        W28159  15.431   3.120   1.686 -0.2321 -0.0278 -0.0832
12026W        W28160  17.394  18.340   0.758 -0.2194 -0.1432 -0.0544
12027W        W28161   2.649  16.413   0.184  0.1051  0.0978  0.0374
12028W        W28162  13.996   6.661   1.977  0.1632  0.0245 -0.1310
12029W        W28163  15.035   8.480   1.022  0.1521 -0.0906  0.1247
12030W        W28164   0.610   5.998  15.292  0.1225  0.2552  0.2066
12031W        W28165   8.698   5.757   5.375 -0.0445  0.1082  0.1241
12032W        W28166   7.788   7.196   3.429  0.2770 -0.1315  0.3427
12033W        W28167   3.984   1.142  12.094  0.3318  0.1604 -0.0311
12034W        W28168  17.129   1.154  13.068 -0.0037 -0.1007  0.0889
12035W        W28169  16.053   7.720  14.714  0.0450 -0.3211 -0.2852
12036W        W28170   8.296   2.016  13.501  0.1191  0.0317  0.0945
12037W        W28171   9.176   7.245   5.035  0.2239  0.0502 -0.2865
12038W        W28172  17.545  11.466  10.751  0.1372 -0.1467 -0.0793
12039W        W28173  14.040   2.392  12.434  0.1054  0.1348  0.1555
12040W        W28174  18.291  16.027   2.351 -0.0754 -0.0585 -0.2303
12041W        W28175   1.821   3.214   1.519  0.1347 -0.2891  0.1701
12042W        W28176  17.567   5.805   3.954 -0.2233  0.3495  0.1132
12043W        W28177   5.336  18.158  15.145  0.2715  0.0785 -0.1923
12044W        W28178  15.066   7.731  12.563  0.3976  0.0679 -0.4685
12045W        W28179  14.928  13.813   0.020  0.1060  0.1080  0.3500
12046W        W28180  10.321   7.731  14.856 -0.2388 -0.1266  0.0691
12047W        W28181  14.072   2.344  13.898  0.1797 -0.0889 -0.0604
12048W        W28182   9.661   3.196   0.255  0.1073  0.0891  0.0145
12049W        W28183  13.342   8.886  14.102 -0.2616  0.0137  0.0975
12050W        W28184   6.788  11.021   0.761 -0.3323  0.1668 -0.2484
12051W        W28185   3.030  15.664  13.402 -0.1702 -0.1638  0.0076
12052W        W28186  13.833   0.453   0.974  0.0793  0.1772 -0.2189
12053W        W28187  13.273  12.744  15.654  0.2579  0.1088 -0.0966
12054W        W28188  11.841   0.240  12.502  0.2405  0.0152  0.0101
12055W        W28189  17.353  10.513  12.979  0.2323  0.0840 -0.3399
12056W        W28190   6.885   1.484  12.777 -0.1773 -0.2262 -0.3793
12057W        W28191  12.599   9.434   0.239  0.1163  0.2790 -0.6488
12058W        W28192  15.189   6.304   3.638 -0.0256  0.0925  0.1073
12059W        W28193  15.995   2.396  12.166 -0.4169 -0.0134  0.2537
12060W        W28194   6.876   2.736  11.967 -0.1089  0.2804  0.0057
12061W        W28195   2.451   2.287  11.027 -0.1778 -0.1089 -0.1916
12062W        W28196   9.572   4.642   3.130 -0.1245  0.1872 -0.0824
12063W        W28197  13.466  18.207  13.311 -0.1929  0.0061  0.1329
12064W        W28198   7.621   6.315  11.423  0.0349 -0.1191  0.2559
12065W        W28199   4.442  10.302  13.792 -0.0279 -0.0736 -0.2485
12066W        W28200  16.130  16.437  14.901  0.1030 -0.1597  0.0005
12067W        W28201   2.364   4.030   3.683 -0.1461 -0.1799 -0.0706
12068W        W28202   1.817   8.820   1.109 -0.1950  0.1514  0.3514
12069W        W28203   4.520  16.246  13.454  0.1360  0.1009 -0.0265
12070W        W28204   7.795  16.498  12.953  0.1998 -0.0133  0.3933
12071W        W28205  14.326   4.164   2.912 -0.0793  0.0766 -0.0072
12072W        W28206  13.652   1.804  14.112  0.0036  0.1485 -0.1680
12073W        W28207  15.088  17.964  13.261 -0.1722 -0.0835 -0.1944
12074W        W28208   5.412   6.886   3.631  0.1652  0.0675 -0.4223
12075W        W28209  14.728   6.976  15.887 -0.0910 -0.3366  0.1238
12076W        W28210  16.336   3.265  15.425  0.1125  0.3499 -0.1841
12077W        W28211  12.308  10.511  14.778  0.0176  0.1075  0.1976
12078W        W28212  14.843   4.369  13.955  0.0627 -0.0267  0.3433
12079W        W28213   3.548  18.059  15.715  0.0083 -0.2554  0.2560
12080W        W28214  17.303  11.711  14.963  0.1684  0.1843 -0.6029
12081W        W28215   9.166   8.855   0.934  0.1198  0.0558  0.0331
12082W        W28216   4.017   1.755   5.236  0.2028 -0.0280  0.3481
12083W        W28217  14.963  15.209  15.067  0.1131  0.0109 -0.2744
12084W        W28218  14.426  11.861   3.502  0.1421 -0.3398 -0.0596
12085W        W28219   3.235   5.007   2.759 -0.0605  0.0869 -0.0789
12086W        W28220   2.625   9.320   3.786 -0.0224  0.3911  0.0917
12087W        W28221  10.792   1.773  13.180 -0.1993  0.1686 -0.0570
12088W        W28222   9.908  13.470  14.784 -0.3659  0.5128  0.0378
12089W        W28223   5.569   4.993  14.842 -0.2595  0.1154 -0.1882
12090W        W28224   7.854  15.877   4.218  0.2561  0.1941 -0.2025
12091W        W28225   5.630  13.637  12.759 -0.0581  0.2115 -0.1764
12092W        W28226   8.912   3.447  13.481 -0.1957  0.2263  0.0864
12093W        W28227   5.282  12.184   1.943 -0.0224  0.1332 -0.1338
12094W        W28228   8.680   1.975   3.532 -0.0483 -0.0674 -0.0307
12095W        W28229  15.615  11.581  12.636  0.0626 -0.3601  0.0133
12096W        W28230  16.096   3.810  13.372  0.0008 -0.0559 -0.3431
12097W        W28231  16.094  15.868   3.618  0.0904 -0.1329  0.0712
12098W        W28232  12.254  12.993  14.793 -0.1256  0.1064  0.1124
12099W        W28233  16.577   1.606   2.666 -0.5151 -0.2866 -0.2196
12100W        W28234  18.445  16.632   0.263 -0.2853 -0.5330  0.1564
12101W        W28235   4.134  13.780   1.051  0.2358 -0.1442 -0.0278
12102W        W28236   3.054  17.556  16.057  0.0286 -0.1600  0.0952
12103W        W28237  13.397  11.245   0.005  0.2380  0.1124  0.0061
12104W        W28238  12.412   6.623   2.800 -0.2346  0.1060 -0.1197
12105W        W28239   5.672  16.478   4.092 -0.2290  0.0681 -0.4955
12106W        W28240  11.746  15.090  14.029  0.1767  0.6092 -0.1802
12107W        W28241   0.834   4.384  12.697  0.0264 -0.4747 -0.1006
12108W        W28242   5.723  12.673   2.807  0.0208  0.0443  0.0022
12109W        W28243   3.163   7.711   0.541  0.0141 -0.0801 -0.2749
12110W        W28244  13.952   1.138   3.928  0.0113  0.0962  0.0693
12111W        W28245   7.900   1.670   0.854 -0.0246 -0.0653  0.1448
12112W        W28246   8.783  10.161   5.482 -0.1075 -0.0459 -0.0684
12113W        W28247   4.110   0.392   3.186  0.2967  0.0009  0.0985
12114W        W28248  12.400   7.750   0.333 -0.1456 -0.0799 -0.2039
12115W        W28249  10.261  10.239  15.397 -0.2161  0.3118  0.1207
12116W        W28250   0.250  14.542   1.548  0.0436 -0.0031 -0.1589
12117W        W28251   7.785   8.352   3.053  0.0132 -0.1915 -0.1978
12118W        W28252  11.435   3.607   3.507 -0.1149 -0.1287 -0.1110
12119W        W28253   0.478  14.150   4.322 -0.1108 -0.3615  0.0076
12120W        W28254  11.837   8.768   1.156  0.3117 -0.1492 -0.0910
12121W        W28255  10.615  17.951  14.045 -0.0476  0.0499  0.0239
12122W        W28256   7.217   1.913   0.957 -0.2889  0.1022 -0.2054
12123W        W28257  11.813  10.322  12.692  0.1198 -0.1050  0.1231
12124W        W28258   8.727   0.923  12.819  0.2080  0.1963 -0.0127
12125W        W28259  11.918   1.191  15.150 -0.1735  0.2605 -0.0761
12126W        W28260   0.479   4.844  14.274  0.0599 -0.1351  0.2535
12127W        W28261  12.007  10.213   0.478  0.0531  0.0960  0.0001
12128W        W28262  17.087   5.886  13.715 -0.0781 -0.0583 -0.3819
12129W        W28263   3.443   9.963  14.786 -0.0563 -0.1341  0.1494
12130W        W28264   1.714   4.189  10.278  0.1203 -0.1291  0.2407
12131W        W28265  12.940  15.309   2.737 -0.0685 -0.4701 -0.4792
12132W        W28266   8.116   5.486   1.698 -0.4625 -0.0536 -0.0138
12133W        W28267   3.823  12.457  15.000  0.0243  0.0286  0.1679
12134W        W28268   8.246  12.956   2.389  0.1305  0.0781 -0.1270
12135W        W28269  13.761   2.135   0.624  0.4095 -0.3691  0.3398
12136W        W28270  18.217  11.001  11.605 -0.2026 -0.2298  0.5316
12137W        W28271   7.541   1.362  13.388 -0.0678 -0.1713  0.1051
12138W        W28272  16.949  15.920   5.079 -0.2032  0.0776  0.1224
12139W        W28273  13.989  11.860  15.553  0.1914  0.0249  0.1280
12140W        W28274  11.566  14.055   2.497  0.1151  0.2101  0.0595
12141W        W28275  11.438   7.357   4.135 -0.0057  0.1192  0.1060
12142W        W28276   7.483   2.902   5.645  0.0505  0.3295 -0.0845
12143W        W28277   5.139   3.008   1.715 -0.4333 -0.2870 -0.2530
12144W        W28278   2.600   3.331   3.597 -0.1403 -0.0780 -0.0305
12145W        W28279  12.246   3.519   0.839  0.0833 -0.0915 -0.0127
12146W        W28280   6.072   8.578   0.420  0.2626  0.1731  0.1096
12147W        W28281   9.358  15.339   2.070 -0.0870  0.0728 -0.0017
12148W        W28282   7.399  10.115  13.037 -0.1482  0.3368 -0.0874
12149W        W28283   7.045   3.620  15.213 -0.1488  0.0455 -0.0550
12150W        W28284  11.157  12.054  14.386 -0.1210 -0.0186 -0.1054
12151W        W28285   9.495   7.407   3.394  0.0176 -0.1931  0.1234
12152W        W28286   0.617  12.295  14.366  0.0700 -0.3770  0.1496
12153W        W28287  17.806   7.480   3.388  0.0429 -0.2558  0.2404
12154W        W28288  18.341   7.100   0.589  0.2565 -0.0574  0.3013
12155W        W28289   6.838   6.334   5.061 -0.0063  0.0235  0.1239
12156W        W28290   8.796  17.081  11.970 -0.1278  0.3339  0.0710
12157W        W28291  14.732  15.242   2.078 -0.1607 -0.3221 -0.1031
12158W        W28292  17.486  12.243  12.085 -0.0986  0.0460 -0.2175
12159W        W28293   3.439   2.067  11.250  0.3018  0.1477 -0.0753
12160W        W28294  11.389   2.208   5.231  0.4561 -0.6008 -0.2716
12161W        W28295  12.676   2.550   1.182 -0.0947  0.3078 -0.3108
12162W        W28296  16.039   5.421   0.452 -0.2579  0.1344  0.2429
12163W        W28297   1.289   9.780  14.160 -0.1444 -0.1416 -0.0550
12164W        W28298  14.190  16.155   3.711  0.0060 -0.3771 -0.1517
12165W        W28299   2.545   1.463  12.126  0.0611 -0.0565  0.0323
12166W        W28300   1.680  14.456  13.852  0.0291  0.1158 -0.0325
12167W        W28301  14.109   1.892   2.823 -0.0489 -0.4121 -0.3707
12168W        W28302   8.431  13.283  13.707  0.1756 -0.0168  0.1411
12169W        W28303   0.697  17.900  11.717  0.0395 -0.1275 -0.0561
12170W        W28304   6.072  17.053   0.051  0.1281 -0.2110  0.1676
12171W        W28305   5.165   8.623  12.479 -0.0938  0.2969  0.1989
12172W        W28306   3.220   7.414  14.287  0.1658 -0.1817  0.0421
12173W        W28307  14.644   0.010   4.359  0.2991 -0.3728  0.0940
12174W        W28308   3.015  15.572   1.403  0.0580 -0.1148  0.2749
12175W        W28309  11.063  15.594   5.317  0.1353 -0.0330 -0.2095
12176W        W28310   4.726   0.536  11.376  0.0469 -0.3384 -0.1364
12177W        W28311  16.313   1.773   0.865  0.4142  0.0059 -0.0184
12178W        W28312   4.293  12.515   1.597 -0.2079  0.0839  0.1327
12179W        W28313   3.184   4.072   0.806 -0.1801  0.2185 -0.1020
12180W        W28314   5.840   6.701   3.894  0.1406  0.3493  0.0464
12181W        W28315   0.547   2.105  11.390  0.1827 -0.0080 -0.2270
12182W        W28316   2.485  10.641  11.234 -0.3816  0.1088 -0.1849
12183W        W28317  14.955   2.439   3.089 -0.1198 -0.0733  0.0755
12184W        W28318  13.090  12.684   0.058  0.1672  0.1088 -0.0398
12185W        W28319   7.685  12.940  12.249 -0.0757 -0.2872 -0.0074
12186W        W28320   4.749   7.700  11.442 -0.1282 -0.3202  0.1733
12187W        W28321   7.966   7.661   5.483  0.0896 -0.0190  0.0533
12188W        W28322   9.073   9.799   1.642 -0.3047 -0.0756  0.0287
12189W        W28323   6.277  12.684   0.936  0.1552 -0.0554  0.1712
12190W        W28324   7.856  13.394   0.977  0.3101 -0.0430  0.0707
12191W        W28325  14.765   5.293   4.682 -0.0227 -0.0076  0.1201
12192W        W28326   0.040   8.238   1.250  0.0469  0.0235  0.0662
12193W        W28327   6.019   0.281  11.140 -0.2635 -0.2487  0.0984
12194W        W28328   5.301   4.137  12.703 -0.2340  0.1242  0.0819
12195W        W28329   2.202  12.559  11.629  0.1026 -0.2011  0.0013
12196W        W28330   8.725  15.483   4.621 -0.0112 -0.1238  0.3220
12197W        W28331   3.833  15.140  12.958  0.0947  0.1164 -0.2605
12198W        W28332   4.336   5.246   5.741 -0.3335  0.3186  0.0228
12199W        W28333   8.058  17.843   1.381 -0.0791 -0.0322 -0.0635
12200W        W28334   1.329  17.565   0.797  0.0511  0.0481  0.0010
12201W        W28335  15.321   1.905  13.609  0.1773  0.1351  0.1767
12202W        W28336   3.765  16.621  11.876 -0.0333  0.3212  0.0147
12203W        W28337   2.158   1.957  15.008  0.3380 -0.2586 -0.3568
12204W        W28338  18.312   0.741  15.445  0.2174 -0.3209 -0.3817
12205W        W28339   3.828   5.086   4.366  0.1547 -0.3040 -0.2713
12206W        W28340  12.121   1.973  16.012  0.1404  0.0800 -0.0194
12207W        W28341  12.537  14.654   1.274  0.2833  0.2995 -0.1821
12208W        W28342  14.894   0.521  15.673  0.0699 -0.0702 -0.0703
12209W        W28343  18.284  14.062  14.942  0.0025 -0.0301  0.1495
12210W        W28344   9.814  12.882   0.050 -0.0867  0.0545 -0.0015
12211W        W28345  15.599  13.426  13.613  0.1548  0.1213  0.1626
12212W        W28346  14.741   1.977   1.335 -0.2309 -0.2454 -0.2618
12213W        W28347   9.907   7.471  14.978  0.1238  0.1911 -0.0563
12214W        W28348  17.286  10.952   3.871 -0.0481 -0.0398 -0.2261
12215W        W28349  15.612   9.488   0.538  0.1734 -0.3576  0.1041
12216W        W28350  15.986  18.262   0.138 -0.1887  0.1736  0.0524
12217W        W28351  10.344   5.001  11.288 -0.1503 -0.2379 -0.1060
12218W        W28352  18.053   4.229   0.876 -0.0316  0.2284  0.0566
12219W        W28353   6.446   6.604   2.810  0.2781 -0.1646  0.0201
12220W        W28354  17.575   4.208   3.325 -0.0802  0.3521  0.0899
12221W        W28355  11.542   5.257  13.603 -0.2130  0.4037 -0.2102
12222W        W28356   8.212   0.348  15.356  0.0752 -0.0502  0.1384
12223W        W28357   9.360   5.366   2.212  0.0339  0.1476  0.3184
12224W        W28358   0.724  15.419  15.802  0.1788  0.1038 -0.1591
12225W        W28359   5.543  10.417  11.332  0.0428  0.2604  0.2892
12226W        W28360  14.290  13.144   3.852  0.1627 -0.1498  0.0928
12227W        W28361   8.679   3.412   4.308 -0.0297 -0.0235  0.1989
12228W        W28362  14.544   4.776  13.680 -0.1202  0.0307 -0.0214
12229W        W28363  17.661   0.329   3.363  0.2261 -0.0889 -0.2210
12230W        W28364  11.683  10.864   3.988 -0.1579 -0.1511  0.4201
12231W        W28365   8.164  16.820  13.134 -0.1514  0.0773 -0.0158
12232W        W28366   4.197  13.141   0.001  0.2258  0.0172  0.2315
12233W        W28367   6.809   6.078   3.244 -0.3079 -0.3832 -0.0801
12234W        W28368  12.050  17.975  13.174 -0.1842 -0.2513 -0.1904
12235W        W28369   2.594  16.943  12.896  0.0746 -0.1169 -0.2390
12236W        W28370   8.489   0.487  12.912  0.0775 -0.0657 -0.1400
12237W        W28371   3.045  15.836   0.947 -0.0593  0.0959 -0.1533
12238W        W28372  17.855   3.438   4.570 -0.1219  0.0442 -0.0686
12239W        W28373   4.835   7.228   2.145  0.0195 -0.2774  0.3675
12240W        W28374   9.912   3.004   3.629 -0.1902  0.1588  0.0741
12241W        W28375   1.120   6.133  10.634  0.1255 -0.2516 -0.0244
12242W        W28376  15.704   0.140   0.079 -0.1513 -0.0486  0.0575
12243W        W28377   6.458  14.335  14.083 -0.1499 -0.1759 -0.2221
12244W        W28378  16.251   8.820  10.798 -0.0682  0.0638  0.0239
12245W        W28379  16.519   8.168  12.845  0.1186  0.1881 -0.0878
12246W        W28380  16.284  11.596   1.610 -0.2672  0.2658  0.2499
12247W        W28381   0.748   8.317  11.657 -0.2864  0.1530 -0.0082
12248W        W28382   9.830  12.008  11.472 -0.0431 -0.3161  0.3734
12249W        W28383  15.423   7.464   2.547  0.0129  0.1106  0.2157
12250W        W28384   4.866   0.955  15.813 -0.2641  0.0955 -0.6026
12251W        W28385  12.958   2.993  15.576  0.1220 -0.0721  0.1286
12252W        W28386   6.736   9.846   2.877  0.0589 -0.0293  0.1129
12253W        W28387   6.701   0.325   2.013  0.1024  0.1223 -0.1324
12254W        W28388   9.350   8.513  10.679 -0.2294  0.1045  0.1704
12255W        W28389   7.834   2.254  12.630 -0.0336  0.2847 -0.1683
12256W        W28390   9.922   2.436   5.954  0.0417 -0.3134  0.0061
12257W        W28391  16.232  15.458  15.236 -0.1060  0.0068  0.5635
12258W        W28392  10.509   2.675  14.839  0.3145 -0.0074  0.1208
12259W        W28393  12.185  17.895   1.577 -0.1608 -0.0567  0.2998
12260W        W28394  18.350   5.118   1.428  0.2752  0.2239  0.0270
12261W        W28395   0.299   6.803  15.258  0.4542 -0.1878  0.4840
12262W        W28396  13.182  18.414  11.840  0.0148  0.1028  0.1885
12263W        W28397   1.920  17.321   3.427  0.3757  0.1788  0.3202
12264W        W28398   7.062  14.852   2.299 -0.0506  0.2746 -0.4698
12265W        W28399  17.975   9.213   4.130  0.3857  0.1548 -0.1927
12266W        W28400   2.700   8.031   0.391 -0.0536  0.0541  0.2520
12267W        W28401  12.624  16.745   6.228 -0.2152  0.2228  0.0442
12268W        W28402  10.776  11.794   1.572  0.1719 -0.2412  0.2847
12269W        W28403   1.715   0.649  13.402 -0.3529 -0.0569  0.0609
12270W        W28404  11.416   3.376   3.947 -0.2657  0.0859 -0.2798
12271W        W28405   7.673  16.014  11.738  0.3346 -0.0905  0.1598
12272W        W28406  17.130  16.869   2.152  0.0307 -0.0999 -0.1658
12273W        W28407  17.245   1.921  13.018 -0.4042 -0.0666 -0.0409
12274W        W28408  13.226   7.331   5.552 -0.0627 -0.1559 -0.1682
12275W        W28409   2.126   2.775   2.889 -0.2580 -0.0592  0.0619
12276W        W28410  17.463   8.587   3.516 -0.1559  0.2812  0.3032
12277W        W28411   8.868   8.907   1.355 -0.0130 -0.0317 -0.2267
12278W        W28412  16.193   2.274   0.892  0.0312 -0.2854  0.1857
12279W        W28413  15.004   8.668   4.961  0.0387  0.1800  0.0568
12280W        W28414  13.164  14.824   0.640 -0.1129  0.0749  0.1390
12281W        W28415   3.212   2.571  14.004  0.0457  0.0802  0.0807
12282W        W28416  13.314   5.763   4.738 -0.0397  0.0942  0.1435
12283W        W28417   5.869  10.638   3.262 -0.0586 -0.1049 -0.1488
12284W        W28418  16.513  11.862   0.746  0.0122 -0.2082  0.0568
12285W        W28419   4.425   5.974  13.595 -0.0410  0.1440  0.0278
12286W        W28420   2.493  15.206  12.878  0.1112  0.2943  0.0345
12287W        W28421  14.350  14.411   1.751  0.0379  0.0244  0.1446
12288W        W28422   2.259   1.447   1.678 -0.0872 -0.3301 -0.1480
12289W        W28423   3.251   1.815  11.699  0.0147 -0.0069 -0.1391
12290W        W28424  12.578   5.750   5.080 -0.0141  0.0869  0.2571
12291W        W28425   9.705   1.203   4.275  0.2305 -0.0229  0.0813
12292W        W28426  10.905   2.522  15.170 -0.1051  0.1510 -0.0743
12293W        W28427   6.707   5.292  14.352 -0.0067  0.0699  0.3600
12294W        W28428   3.687  12.281  10.593  0.2890  0.3163  0.2158
12295W        W28429  17.551   6.864   4.995  0.0869 -0.2658 -0.0090
12296W        W28430   9.140   2.909  13.409 -0.1707  0.2654  0.0381
12297W        W28431  13.975   1.557  13.835  0.1325  0.2374 -0.0607
12298W        W28432  10.947   9.685  12.929  0.2634  0.0572 -0.0070
12299W        W28433  11.809   6.755  13.322  0.3073  0.0925  0.2188
12300W        W28434   1.001   4.531  13.464 -0.2944  0.0097 -0.0239
12301W        W28435   7.606  13.589   5.142 -0.2097 -0.1130  0.1581
12302W        W28436   0.398  15.870  15.750  0.2003  0.4203 -0.3375
12303W        W28437  15.801  12.889  14.273  0.0672  0.1150 -0.3336
12304W        W28438   8.758  15.843  10.835 -0.0839 -0.4587 -0.0839
12305W        W28439  17.767   5.931   0.407  0.0428  0.1189  0.3977
12306W        W28440  12.536   2.714   3.293  0.2361 -0.5916  0.0040
12307W        W28441  13.316   9.597   2.991  0.2133 -0.2119  0.0860
12308W        W28442   2.549   0.166   2.092 -0.0314  0.2484  0.0689
12309W        W28443   0.834  16.219   4.454  0.0993  0.0719  0.0164
12310W        W28444  15.842   6.970   1.360 -0.0169  0.0857  0.2077
12311W        W28445   8.726  12.187   5.234 -0.0122 -0.4612 -0.3963
12312W        W28446   8.470  14.560   0.996  0.0040  0.0326 -0.0724
12313W        W28447  17.524   4.212   5.216  0.1204  0.2044  0.0227
12314W        W28448   1.483   2.493   2.562  0.0934 -0.3734 -0.0029
12315W        W28449  16.189  14.066   1.117  0.0579 -0.3747  0.3658
12316W        W28450  18.045   6.553  12.065  0.0440 -0.1147  0.2049
12317W        W28451   8.725   1.423   2.370  0.1513 -0.2391 -0.4299
12318W        W28452   7.457  13.156  12.616  0.4022 -0.0311  0.0829
12319W        W28453   2.069  10.112   2.361  0.1683 -0.2381 -0.1355
12320W        W28454  18.459  12.445   1.358  0.1069  0.1886  0.1605
12321W        W28455  17.205  10.773   3.417 -0.0990 -0.1470 -0.0224
12322W        W28456  17.525   9.877   2.662  0.0152 -0.0728  0.1876
12323W        W28457  10.384  13.350   4.379  0.0678  0.0093 -0.2437
12324W        W28458   3.970  10.593  13.600 -0.1459 -0.2121 -0.4135
12325W        W28459   6.131   7.823   1.677  0.1572 -0.2655  0.2712
12326W        W28460   7.247  14.613  12.226  0.3065 -0.3106 -0.0087
12327W        W28461   2.530  16.320   4.053  0.1605 -0.0137  0.1410
12328W        W28462  17.690   6.187   5.832 -0.2715 -0.1221  0.1678
12329W        W28463  16.268  14.644   4.962  0.1174 -0.0995  0.4946
12330W        W28464   0.039   5.005  10.386  0.1624  0.0495  0.0353
12331W        W28465   2.661  11.446  13.598  0.0125  0.0748 -0.0880
12332W        W28466  18.026   8.418  15.978  0.2668 -0.3313 -0.0965
12333W        W28467  14.888   9.316   0.973 -0.3085 -0.0996  0.1309
12334W        W28468   8.206  15.366  15.604  0.0846  0.1349  0.2949
12335W        W28469  15.454   1.147  14.285 -0.0089  0.0597 -0.1316
12336W        W28470   3.107   9.930  12.786 -0.1221 -0.3209  0.3678
12337W        W28471   2.782  12.436   4.901  0.0608 -0.1284 -0.0389
12338W        W28472  14.937   3.960  14.287 -0.1081  0.0150  0.3690
12339W        W28473   8.450  16.004   0.879 -0.0485  0.0811  0.0880
12340W        W28474   3.673   5.321   3.967  0.0653 -0.1022 -0.0769
12341W        W28475  10.682   7.181   1.859  0.0949  0.0224 -0.0840
12342W        W28476   4.624  14.227   3.446 -0.1136 -0.1049  0.2559
12343W        W28477   4.758  16.539   1.685 -0.1501 -0.0078  0.0537
12344W        W28478   5.691  13.659  13.324  0.1656 -0.0682 -0.0108
12345W        W28479   7.777   7.492   0.164  0.1682  0.0646 -0.1048
12346W        W28480   6.342  17.511   5.726  0.0468  0.0777  0.0582
12347W        W28481  14.835  15.574   0.681 -0.4135  0.0664 -0.0895
12348W        W28482   5.738   3.712   0.665 -0.1866 -0.1865 -0.3362
12349W        W28483  14.049   4.317  10.486 -0.1945 -0.0107 -0.1964
12350W        W28484   8.929   8.721   0.415 -0.1000  0.0440  0.0233
12351W        W28485  12.946   3.211   4.122 -0.1554  0.4168 -0.1590
12352W        W28486   2.791   3.260   0.771  0.0589 -0.2067  0.1623
12353W        W28487  15.643  14.052   3.678 -0.0852  0.1243 -0.0267
12354W        W28488  11.681  16.583  16.053  0.3031 -0.2101  0.0415
12355W        W28489   0.297   3.779  12.131  0.1997 -0.1289 -0.2417
12356W        W28490  17.022   7.728   3.892 -0.0602  0.2450  0.2135
12357W        W28491   9.398   3.159   1.772  0.0157  0.0016  0.1800
12358W        W28492  17.108   8.856  14.511  0.1670  0.0463  0.0891
12359W        W28493   6.834  14.370   4.114 -0.0987  0.2991  0.2605
12360W        W28494  10.588   1.011  14.873  0.0013 -0.2282  0.0173
12361W        W28495   4.678  10.969  16.011  0.0620 -0.0208 -0.1164
12362W        W28496  12.757  13.480  15.629 -0.1146 -0.1934  0.5289
12363W        W28497  14.819   0.544  14.234 -0.2212  0.3304 -0.1031
12364W        W28498   1.420   4.057   4.841 -0.2851  0.2278  0.0535
12365W        W28499   6.467  18.069   3.915  0.0436  0.0502  0.3385
12366W        W28500  14.963  16.472   1.960  0.1651  0.0382  0.0340
12367W        W28501   3.121   8.531  14.573 -0.2924 -0.0247 -0.0703
12368W        W28502  14.717  11.961   3.922 -0.0502 -0.0726  0.0050
12369W        W28503  14.702   6.675  15.434 -0.0798  0.0337 -0.0924
12370W        W28504  11.201   1.629  11.925 -0.1290 -0.4813  0.0543
12371W        W28505  18.277  12.709  12.637 -0.0188  0.0692 -0.3161
12372W        W28506   4.431   8.966   1.058  0.1097 -0.0079 -0.2536
12373W        W28507  14.007  15.190  11.814 -0.2676 -0.1825  0.0485
12374W        W28508  10.509  14.395   3.380 -0.0489  0.0426  0.4456
12375W        W28509  17.136  10.778  13.377  0.0816 -0.1144  0.1245
12376W        W28510  12.707  18.408  13.511  0.1935 -0.0427  0.3991
12377W        W28511  12.574   6.384  12.169  0.5658 -0.1905  0.0584
12378W        W28512   2.861   4.188   3.849 -0.1040  0.0164  0.1891
12379W        W28513   6.202   0.658   1.272 -0.3425  0.0722  0.0833
12380W        W28514  16.921  10.540  11.820  0.1334 -0.1643  0.2813
12381W        W28515   7.369   7.555   3.561 -0.2089  0.1476 -0.2553
12382W        W28516   7.826  11.842  15.813  0.1095  0.2659 -0.0367
12383W        W28517  14.495  17.812   1.441 -0.0476 -0.1637  0.0525
12384W        W28518  15.194  16.358   0.987  0.0965 -0.0796 -0.0008
12385W        W28519   0.869   5.580  10.704  0.2470  0.0599 -0.0621
12386W        W28520  17.904  17.224   2.107 -0.3098 -0.3543 -0.0090
12387W        W28521   1.892  13.927   3.602 -0.1043 -0.2572 -0.3269
12388W        W28522  17.714   9.002  15.705  0.3101  0.1389 -0.1378
12389W        W28523   5.216   2.467   0.286  0.2562  0.2647 -0.4976
12390W        W28524   2.579   1.840   0.864 -0.1220 -0.3114 -0.2154
12391W        W28525  14.824   4.972  15.749  0.0959  0.1700 -0.0585
12392W        W28526   9.518  14.467  12.554 -0.1512  0.0854 -0.1794
12393W        W28527  11.229  15.868   6.172 -0.1314  0.0035 -0.0894
12394W        W28528   0.971   2.479  15.108  0.1935  0.0967  0.1004
12395W        W28529  15.425   3.165  13.480 -0.3999  0.3126 -0.0984
12396W        W28530  12.200  10.843   3.431 -0.0415  0.0972  0.0216
12397W        W28531   2.713  13.214   4.228  0.3294 -0.3446  0.2250
12398W        W28532   8.935   4.802  14.456 -0.1034 -0.0440 -0.0272
12399W        W28533  10.325   3.253   2.737  0.0716  0.1833 -0.4331
12400W        W28534  17.028   7.080   1.960  0.0046 -0.0946  0.0872
12401W        W28535   0.797   3.597   3.765 -0.0142 -0.4011  0.0421
12402W        W28536  13.153   9.636  15.470  0.2266 -0.0185  0.0311
12403W        W28537  12.774   3.462   5.011  0.1193  0.1822  0.1368
12404W        W28538   4.591   4.473  14.567 -0.0613 -0.1179 -0.3773
12405W        W28539  10.571   3.471   1.336  0.0695 -0.0630  0.2628
12406W        W28540   0.552  15.686   5.210 -0.4445 -0.0663 -0.0264
12407W        W28541  13.418   3.139  11.232 -0.0420 -0.1529  0.1072
12408W        W28542  10.069   1.800  14.811  0.0247 -0.0785 -0.3027
12409W        W28543  15.364   3.564   5.582 -0.2097 -0.0510 -0.3079
12410W        W28544   7.335   8.619  15.501  0.0847 -0.1704  0.1985
12411W        W28545   3.294   7.702   4.471 -0.2079 -0.1435 -0.2484
12412W        W28546   7.206   0.429  10.693 -0.1559  0.1263  0.1814
12413W        W28547  12.986   7.769   5.669  0.0151  0.2731  0.0252
12414W        W28548   0.503  17.452   3.045  0.2491 -0.0429 -0.3237
12415W        W28549   0.200  15.182  14.023  0.2394  0.1361  0.0410
12416W        W28550  16.084   7.026   1.868 -0.3011  0.1037  0.1094
12417W        W28551   1.367   5.840   4.837  0.2458 -0.0138 -0.0901
12418W        W28552   4.302   7.406   0.321  0.0384  0.2173 -0.2684
12419W        W28553   0.642  16.027  13.640 -0.0257  0.4152 -0.0436
12420W        W28554  16.868  15.770   1.756  0.2471  0.0046 -0.1231
12421W        W28555  18.319  15.137   5.137  0.2367  0.0432  0.2458
12422W        W28556   2.987   4.873   4.415 -0.0698  0.0607 -0.1097
12423W        W28557   7.417  16.922   2.092 -0.3356 -0.0396  0.3192
12424W        W28558  14.185   5.339   3.470 -0.0220 -0.1854  0.0355
12425W        W28559   9.749  17.708   4.369 -0.0873  0.0066  0.2083
12426W        W28560   1.744   9.376   3.779 -0.1980  0.1861  0.1223
12427W        W28561   8.887   6.560   3.180 -0.0186 -0.1247  0.3434
12428W        W28562  11.595   7.113   0.384 -0.1983 -0.3610  0.1039
12429W        W28563  10.663   2.922   2.732  0.1548  0.1607  0.0695
12430W        W28564  13.540   6.873  14.594 -0.4068 -0.1355 -0.0003
12431W        W28565  17.402   5.136  12.103 -0.1598  0.0875 -0.0414
12432W        W28566   3.744  17.373  11.379 -0.0439  0.1978  0.0297
12433W        W28567  14.887  15.307   3.999  0.1603 -0.0379  0.0562
12434W        W28568   1.552   3.921   4.216 -0.1006  0.0308 -0.0284
12435W        W28569  10.148   8.917  15.516  0.0489  0.1671  0.0496
12436W        W28570   4.347  10.816   0.404 -0.0754  0.1862  0.2299
12437W        W28571  14.595   2.170  13.200  0.0009  0.1461  0.1058
12438W        W28572  11.879  14.788  14.845 -0.0049  0.4555 -0.2614
12439W        W28573  15.668  11.243  15.015  0.0084  0.0659  0.0787
12440W        W28574  11.261   8.735   0.262 -0.2583 -0.4259 -0.0065
12441W        W28575  18.202  11.756  15.168 -0.0525  0.1489  0.0002
12442W        W28576   7.028   1.331  11.189  0.1363  0.0562  0.1703
12443W        W28577   3.717  18.247   1.671  0.0015 -0.0974 -0.2445
12444W        W28578   2.822  13.310   2.358 -0.1040 -0.0172 -0.1875
12445W        W28579  13.679   5.775  13.347 -0.4113  0.3905  0.2585
12446W        W28580  13.853   2.168   0.041  0.0095  0.0714 -0.3228
12447W        W28581   5.588   3.049   1.341  0.2480  0.1928  0.1862
12448W        W28582  10.685  14.086   3.002  0.0975  0.0599  0.0553
12449W        W28583  16.825  16.546   4.903 -0.0649 -0.1965 -0.1966
12450W        W28584   7.853   1.244  12.652 -0.1059  0.2109  0.1005
12451W        W28585   0.703  10.120  14.737 -0.1133 -0.4522  0.0898
12452W        W28586   9.861   3.178   2.672 -0.1583  0.0170  0.1027
12453W        W28587  12.881  15.286   4.031  0.2768  0.3006 -0.0676
12454W        W28588  16.089  11.089  12.948  0.0373  0.3021 -0.3173
12455W        W28589  10.684   0.112  14.897 -0.2729 -0.3262 -0.1602
12456W        W28590  12.480  10.072  13.854  0.0430  0.2523  0.0388
12457W        W28591  10.681   8.716  15.759  0.1509  0.3375  0.1530
12458W        W28592  17.638   3.814   2.898  0.2165  0.0374 -0.1433
12459W        W28593   3.017   4.136   1.768 -0.1945  0.1391  0.0996
12460W        W28594  16.959  12.076   3.523 -0.1199  0.0834 -0.1359
12461W        W28595   1.449  12.223  13.494 -0.1575  0.1022  0.0553
12462W        W28596  13.119  18.179   1.411  0.2993 -0.4834 -0.0078
12463W        W28597   7.734  15.969  13.994  0.1545  0.0020  0.0041
12464W        W28598   4.509   5.234  14.095 -0.0613 -0.0754 -0.1768
12465W        W28599  16.715  14.477   2.962 -0.0122  0.0243  0.1295
12466W        W28600   5.260   3.578   6.117  0.0684  0.0316 -0.0584
12467W        W28601  10.858  17.410   1.409  0.1350  0.1375 -0.2605
12468W        W28602  17.293  14.862  14.695 -0.0893  0.1504 -0.1038
12469W        W28603  10.295  15.220   1.105  0.2854  0.2278  0.0568
12470W        W28604  11.262   1.468  14.609 -0.2586 -0.0452 -0.0789
12471W        W28605   7.684   3.513   5.317 -0.0932 -0.0731  0.2181
12472W        W28606  12.096   6.471  12.939  0.3575 -0.0719  0.1431
12473W        W28607   3.062   5.650   3.780 -0.0092 -0.0013  0.0110
12474W        W28608  16.670   0.638  12.415  0.0112 -0.1067  0.3685
12475W        W28609  11.955  18.145   0.383 -0.1166  0.0392 -0.3147
12476W        W28610   1.725   3.478   0.870 -0.1110 -0.1212  0.1224
12477W        W28611   9.176  17.394   0.605 -0.0105  0.1200  0.1700
12478W        W28612   3.918  14.693   1.127 -0.0885  0.1474  0.0017
12479W        W28613  10.954   0.835   6.442  0.2505  0.0011  0.1553
12480W        W28614   3.613   0.891  14.988 -0.2517 -0.1271  0.0142
12481W        W28615  16.055   8.654   3.295 -0.0109 -0.1550  0.1141
12482W        W28616  15.115   1.227  11.755 -0.3536  0.2641 -0.1417
12483W        W28617   4.239   7.668  14.184  0.0103 -0.1324  0.0745
12484W        W28618  14.601  15.676   2.157  0.0054 -0.1644 -0.3495
12485W        W28619  11.257   9.803   1.297 -0.1565  0.0323 -0.1408
12486W        W28620   6.792  12.827   4.430 -0.1218 -0.2898  0.1441
12487W        W28621  12.697  15.091   4.946 -0.2060  0.1443 -0.0991
12488W        W28622   7.950  10.475   4.197  0.3170  0.1331  0.1317
12489W        W28623   2.530  13.933   1.854 -0.0748 -0.1183  0.2217
12490W        W28624  14.537   6.103  13.669 -0.0787  0.3640 -0.1403
12491W        W28625   0.828   6.942   9.770  0.2007  0.0954 -0.1294
12492W        W28626  14.017   3.263   1.896 -0.2046  0.0465 -0.4315
12493W        W28627  12.704   8.717   4.427  0.1962 -0.3770 -0.0536
12494W        W28628  14.851  17.114  13.262 -0.0457  0.2345 -0.2882
12495W        W28629   6.163   5.656  12.369  0.3045  0.1782 -0.1778
12496W        W28630   5.552   6.770   1.172 -0.1639 -0.0240  0.2552
12497W        W28631  16.996   8.584  10.118 -0.0611 -0.0225  0.0964
12498W        W28632  12.750  16.005   0.452 -0.1324  0.1458 -0.1850
12499W        W28633  12.149  15.466  13.900 -0.0677 -0.2672 -0.0119
12500W        W28634   2.310   1.592  10.989 -0.4740 -0.2335  0.2108
12501W        W28635   4.180  16.023  12.542 -0.0310  0.1343 -0.0473
12502W        W28636   6.792  10.135   1.431 -0.0831 -0.0129  0.2247
12503W        W28637  12.658   1.194  13.159 -0.0540  0.0390  0.0528
12504W        W28638  15.960   4.729   1.240  0.1667  0.0696  0.1054
12505W        W28639  14.662  13.027  15.550  0.0263  0.2738  0.3645
12506W        W28640  10.388  10.708   4.976  0.1088 -0.0212  0.0951
12507W        W28641   5.212   6.595   4.164  0.0341 -0.4007 -0.1222
12508W        W28642  15.220   5.827  15.297  0.0308  0.1408 -0.0382
12509W        W28643  13.749  10.404  15.387 -0.0602  0.1323  0.1189
12510W        W28644   8.312   1.400   5.534  0.1163 -0.0621 -0.0467
12511W        W28645   3.999  11.370   2.840  0.2396  0.2605 -0.0084
12512W        W28646  10.735  12.375  15.721 -0.3294 -0.1976  0.0951
12513W        W28647   2.429   1.661   2.736  0.4027 -0.2884 -0.0314
12514W        W28648   0.223   5.664  15.390 -0.2488 -0.0422 -0.2811
12515W        W28649  14.839  15.729  13.081 -0.0558 -0.4161 -0.0176
12516W        W28650   6.374   6.017   4.507  0.1289 -0.1978 -0.2706
12517W        W28651  10.989   1.207  11.841  0.1125 -0.0319  0.0289
12518W        W28652   2.998   3.058   3.760  0.2403  0.3526  0.0136
12519W        W28653  10.310  10.638   0.877  0.0622  0.1544 -0.3283
12520W        W28654   3.805   2.751   3.635  0.1085  0.4569  0.1233
12521W        W28655   8.122  16.285  14.648  0.1079 -0.3076 -0.1119
12522W        W28656   9.494  11.608  12.940  0.2578  0.0671 -0.0004
12523W        W28657   4.705  16.028  14.496 -0.1883  0.0173  0.1271
12524W        W28658  18.486  10.983   4.864 -0.0274  0.0089 -0.0273
12525W        W28659   4.100  14.598  14.287  0.3143 -0.0596  0.1336
12526W        W28660   1.476   0.164  13.723  0.2519  0.1489  0.1640
12527W        W28661   9.718   9.917  11.175 -0.0195 -0.0021 -0.4715
12528W        W28662   6.129  15.926  14.280 -0.2045 -0.0342 -0.1559
12529W        W28663  14.700  17.261  13.904 -0.0630  0.1201 -0.0014
12530W        W28664   9.811   8.628   0.241  0.0812 -0.0985 -0.1594
12531W        W28665  17.447   3.642  10.629  0.0291  0.0237  0.1709
12532W        W28666   0.253  10.252   2.434  0.2945 -0.0957  0.3618
12533W        W28667   2.471   4.997   3.412  0.1302 -0.2044 -0.1514
12534W        W28668  17.777   1.079  10.947 -0.0214 -0.0112 -0.1180
12535W        W28669   9.993   9.383   0.771  0.2159  0.2882 -0.1308
12536W        W28670  17.891  11.233  13.223  0.1409  0.2201 -0.1744
12537W        W28671   8.318  10.735  12.530 -0.0989  0.3601  0.0093
12538W        W28672   4.720   5.934   5.073  0.1259 -0.1351 -0.2461
12539W        W28673   5.027   3.351  11.787  0.1812 -0.0403  0.2144
12540W        W28674  13.504   4.981   5.007 -0.0977 -0.1138  0.0084
12541W        W28675  13.244  13.342  14.044 -0.2042  0.1390  0.1195
12542W        W28676   7.899   4.829  14.251 -0.1071  0.0910 -0.0078
12543W        W28677   7.629   7.554   4.279 -0.0662  0.0750 -0.1802
12544W        W28678   0.858  10.106   2.210  0.0144 -0.4562 -0.1145
12545W        W28679   9.938   8.181   0.012  0.0601  0.2190 -0.0835
12546W        W28680  11.667  11.752  14.541 -0.0073 -0.1380  0.3283
12547W        W28681   6.229  13.675   1.919  0.2059 -0.0465  0.0930
12548W        W28682   0.098  10.055  11.346 -0.0781  0.0879  0.0111
12549W        W28683   9.127   2.355   0.433 -0.0573 -0.0236 -0.4176
12550W        W28684   5.954   6.617   3.026  0.0855 -0.0658  0.0238
12551W        W28685  17.185   5.401   0.809 -0.2870  0.5018  0.1049
12552W        W28686  17.243   3.639   2.738  0.2368  0.3734  0.2859
12553W        W28687   8.770  12.179   3.419  0.4038  0.3347 -0.2045
12554W        W28688  11.403   6.869   3.772 -0.2194 -0.3510 -0.0961
12555W        W28689   2.561   2.900   2.271 -0.0176 -0.1034 -0.1296
12556W        W28690  17.218   4.694   3.258 -0.1830  0.1732 -0.0045
12557W        W28691   7.659  11.037   1.011  0.1088  0.2201 -0.0795
12558W        W28692  16.671   7.920  14.594 -0.0139  0.1616  0.0789
12559W        W28693   1.464  12.310   1.370  0.1496  0.0953  0.0510
12560W        W28694   4.478  13.716  11.756  0.0567 -0.1138  0.0368
12561W        W28695   6.511   3.804  13.108 -0.0524 -0.2898 -0.1200
12562W        W28696   5.674  15.176   4.560 -0.0917 -0.0785 -0.2035
12563W        W28697   0.457  17.435   4.961 -0.0615  0.0488  0.0817
12564W        W28698   1.453   7.644  14.643 -0.1792 -0.4074 -0.2698
12565W        W28699   5.013   1.232   2.725  0.0012 -0.2719  0.3921
12566W        W28700  12.158   7.949   4.217 -0.0423 -0.3958 -0.0992
12567W        W28701   8.693   7.299  12.043  0.0892  0.0128  0.2958
12568W        W28702   0.673   5.042  10.553 -0.2108 -0.1577 -0.0756
12569W        W28703   5.897  15.447   5.511 -0.2932 -0.0882 -0.3102
12570W        W28704   3.235  10.495  10.801 -0.0332 -0.0732  0.0998
12571W        W28705   2.738  10.573   4.087 -0.3512 -0.1444  0.0342
12572W        W28706   1.626   1.718   3.524 -0.2377  0.0964  0.1687
12573W        W28707  13.583   7.774   4.653  0.0885 -0.1467 -0.4286
12574W        W28708   8.586  16.728  15.891  0.1694  0.0470  0.0251
12575W        W28709   2.885  15.468  10.464 -0.1236 -0.2682  0.1177
12576W        W28710   6.491   8.935   5.148 -0.0776 -0.2112  0.1373
12577W        W28711   9.510   0.021  13.622  0.0636 -0.2909 -0.0909
12578W        W28712  11.075  11.248  11.882  0.1725 -0.2227  0.0786
12579W        W28713   5.455   4.764   4.113 -0.0839 -0.0869 -0.0406
12580W        W28714  12.975  11.459   2.527 -0.2598 -0.3856 -0.0915
12581W        W28715   4.240   3.739   4.613 -0.0554 -0.1545  0.2017
12582W        W28716   9.777  14.139  12.159 -0.0167 -0.0023  0.3226
12583W        W28717   1.360   6.798   2.329  0.1563 -0.0906  0.3839
12584W        W28718   5.352  12.748  16.008  0.0693 -0.2058 -0.1288
12585W        W28719   8.372  13.484   0.732  0.4275 -0.3605  0.0545
12586W        W28720  18.019  17.744   2.062  0.1052 -0.1217 -0.0507
12587W        W28721   8.324   9.708   3.841 -0.0508  0.1402  0.1702
12588W        W28722   9.449   8.848  12.473 -0.0085 -0.0097 -0.2880
12589W        W28723   4.569   8.573  14.058 -0.2733  0.3897  0.1141
12590W        W28724   5.252   3.050   4.084 -0.0004 -0.1939  0.1867
12591W        W28725   4.262   5.743   4.775  0.0797 -0.0226  0.0572
12592W        W28726   0.129   4.138  13.910  0.1278 -0.0694  0.3120
12593W        W28727  18.046  10.160   2.527 -0.1313  0.2122  0.2602
12594W        W28728   7.244  13.772  15.077 -0.1802 -0.0153  0.1631
12595W        W28729   3.386  11.708  15.493  0.0922  0.1479  0.2946
12596W        W28730  12.446  15.411  11.105  0.2116 -0.4368 -0.1713
12597W        W28731  13.767  15.788  14.567  0.2110  0.1709 -0.1890
12598W        W28732   3.284  10.518   3.758 -0.3113  0.0115  0.1849
12599W        W28733   6.994  15.194  11.834 -0.1784  0.2722 -0.1336
12600W        W28734  13.457   1.325   2.375  0.0047 -0.0390  0.0068
12601W        W28735   2.137  14.920  15.451 -0.0744  0.1241 -0.0098
12602W        W28736   1.603   7.423   5.051 -0.2702 -0.1130 -0.1375
12603W        W28737   9.432   6.724   0.880 -0.0213 -0.1223  0.0377
12604W        W28738   2.415  15.691  10.555  0.1646 -0.0138  0.3053
12605W        W28739   8.208  14.534   4.497  0.1484 -0.1002  0.3651
12606W        W28740  10.679  17.943  11.268  0.2961  0.0788  0.0056
12607W        W28741   8.332  17.945   5.415  0.1876 -0.0179  0.0584
12608W        W28742  10.662   5.653  15.432 -0.0465  0.3378 -0.0802
12609W        W28743   5.573   3.319   1.819  0.0134  0.2279  0.1773
12610W        W28744   1.517  13.401   2.868 -0.0429 -0.1173  0.2984
12611W        W28745   4.935   5.391  15.167  0.1843 -0.0622 -0.0969
12612W        W28746   7.060   6.967   3.358  0.0501  0.3567  0.0645
12613W        W28747  10.822   3.605   6.383 -0.1251 -0.0193 -0.0658
12614W        W28748  13.890  14.521   3.623 -0.0374  0.3339 -0.0413
12615W        W28749   4.064  15.188  11.042 -0.0795  0.0700 -0.1599
12616W        W28750   7.056   6.483  13.365  0.0319  0.2985 -0.1925
12617W        W28751  12.005  17.883  13.690  0.0263 -0.1608  0.2275
12618W        W28752  17.778   8.093   4.188  0.3767 -0.0714 -0.0398
12619W        W28753   8.784   6.175   4.488 -0.0043 -0.1374  0.0777
12620W        W28754  16.157   8.550  11.258 -0.3032  0.0889  0.0116
12621W        W28755  13.212   2.310  12.788 -0.2544 -0.0709 -0.2841
12622W        W28756  14.172   1.755  11.670  0.1966  0.0450  0.0441
12623W        W28757   1.172   7.025   9.313 -0.3214  0.1295  0.2722
12624W        W28758  14.045   8.060   0.356 -0.1725 -0.0683 -0.1558
12625W        W28759   1.289  17.762   4.733 -0.1232 -0.1822  0.1432
12626W        W28760   0.342  11.741   4.911  0.1963 -0.0558 -0.2375
12627W        W28761  15.679  16.961   1.567 -0.0535 -0.2409 -0.1674
12628W        W28762  18.252  13.323   2.386 -0.1831 -0.0042 -0.1048
12629W        W28763  17.403  14.400  13.382  0.0987 -0.0256  0.2091
12630W        W28764   8.539   2.341   0.796 -0.2644 -0.0465 -0.1842
12631W        W28765  16.536  17.101  10.730 -0.1831  0.0647  0.1097
12632W        W28766  12.525   4.119   2.843  0.0120  0.1489 -0.1025
12633W        W28767  17.953   8.678   4.036 -0.1660 -0.1167  0.1328
12634W        W28768  10.230   2.350   4.892  0.0456  0.0451 -0.0800
12635W        W28769  10.706  15.928   4.868  0.3000  0.0035 -0.3244
12636W        W28770   2.270  14.724  12.980  0.0927  0.1060  0.0508
12637W        W28771  10.934  15.551  12.811 -0.2315  0.4131  0.2746
12638W        W28772   7.928   2.586   1.335  0.2931 -0.3669  0.0132
12639W        W28773   1.746  14.803  11.635  0.1464 -0.0362  0.0198
12640W        W28774  12.073  11.578   1.887  0.2020 -0.1998 -0.1560
12641W        W28775   1.820  12.281  11.435  0.0352  0.0585 -0.1829
12642W        W28776   9.595  15.620   0.101 -0.0806 -0.2646  0.1915
12643W        W28777   0.575  12.044  12.874 -0.0854  0.1088 -0.0258
12644W        W28778   0.283   8.088  11.659  0.0278 -0.4063  0.0245
12645W        W28779   6.223  13.097  15.842 -0.1925 -0.2143  0.1260
12646W        W28780   6.735   1.326  12.346 -0.2353  0.1744  0.3814
12647W        W28781  18.022  16.550  11.475 -0.0278  0.0758 -0.0797
12648W        W28782   7.333  17.077   3.599  0.2301 -0.2999  0.2657
12649W        W28783   9.554   8.566  12.848  0.0361  0.0233 -0.3106
12650W        W28784   2.561  17.992  11.420 -0.3295  0.2843 -0.3465
12651W        W28785   9.792  17.682  14.476  0.1150 -0.3965 -0.0096
12652W        W28786   1.066   0.619   0.791 -0.1023 -0.0137 -0.1435
12653W        W28787   6.989   7.261   0.114  0.1024 -0.1643 -0.1868
12654W        W28788  16.435   4.982  14.493 -0.0333  0.1341 -0.2001
12655W        W28789   4.527   2.794  13.831 -0.0451 -0.0178  0.3749
12656W        W28790   8.568  16.209   2.805 -0.1258  0.0769 -0.0153
12657W        W28791   1.645  13.454  15.234  0.3016 -0.2186 -0.0510
12658W        W28792   0.141  12.678  14.990  0.0764 -0.1683  0.3727
12659W        W28793   5.115  18.364  16.056 -0.1947 -0.1224  0.0087
12660W        W28794   3.378  15.489   2.225 -0.0833 -0.3292 -0.2083
12661W        W28795   3.762   4.386  13.423 -0.0323  0.0757  0.0478
12662W        W28796  10.405   8.478   3.923  0.3521  0.0531 -0.0505
12663W        W28797   2.167  12.360   2.061 -0.0315 -0.0539 -0.2229
12664W        W28798  15.579  13.038  11.076 -0.3657 -0.0995  0.3890
12665W        W28799   6.813   9.921  11.416  0.1463  0.1614 -0.0595
12666W        W28800   8.075  13.762  12.215  0.5360  0.0937 -0.1967
12667W        W28801   3.428   6.029  12.801 -0.3710 -0.2224  0.5106
12668W        W28802   5.650  14.933   0.021 -0.0875  0.0631  0.0820
12669W        W28803   6.366   9.776   5.624 -0.0245  0.2531 -0.0038
12670W        W28804  13.318   1.076  13.126 -0.0133  0.0534  0.1613
12671W        W28805  11.941   3.887  13.582  0.1887 -0.2287  0.3217
12672W        W28806   5.852  10.389   5.086 -0.2423 -0.0560  0.0463
12673W        W28807  13.048   1.669   0.463 -0.5680 -0.0035 -0.0721
12674W        W28808   5.275   8.817   3.713 -0.0106  0.4173 -0.0306
12675W        W28809  15.322   3.878  15.611 -0.0933  0.1123 -0.0681
12676W        W28810  17.624  16.385   0.413 -0.0343  0.1162  0.0327
12677W        W28811   3.154   0.717   5.083 -0.0547 -0.1328  0.2016
12678W        W28812   4.856  18.416   1.312 -0.0580  0.1970 -0.2492
12679W        W28813   9.228  15.023   6.740  0.2347  0.2133  0.0039
12680W        W28814   9.665   1.748   3.418  0.1801 -0.1961 -0.1322
12681W        W28815  15.613  16.991   2.402  0.3069 -0.1072 -0.0364
12682W        W28816  14.060  14.438  14.223  0.2027 -0.0391 -0.0869
12683W        W28817  18.017   4.242   5.398  0.0790 -0.0413  0.2089
12684W        W28818  13.797   7.180  14.909 -0.0488  0.1926  0.0571
12685W        W28819   6.333  15.476   3.376  0.0042 -0.0179  0.0878
12686W        W28820   1.029  11.979  14.255  0.1782  0.1693  0.2272
12687W        W28821   6.340  13.998   5.079  0.2469 -0.2139  0.0498
12688W        W28822  16.620   9.953  13.111  0.2027 -0.0693 -0.2038
12689W        W28823   5.713   1.386  11.759  0.1229 -0.1659 -0.0034
12690W        W28824  14.312  13.128   0.532 -0.6592 -0.0972  0.3519
12691W        W28825   5.044  14.235   4.438  0.1571 -0.0380 -0.0293
12692W        W28826   6.297  17.750   6.270  0.3559 -0.0089 -0.0519
12693W        W28827   9.292  16.302   4.223  0.1689  0.0038  0.0775
12694W        W28828  16.541  14.311  13.346  0.1650  0.0872  0.1245
12695W        W28829  16.792   0.643   2.889  0.0086  0.1820 -0.1148
12696W        W28830   9.845   9.212  12.372  0.1509  0.1023 -0.2794
12697W        W28831   2.405  11.265  11.015 -0.1813 -0.0131 -0.1538
12698W        W28832   2.654   2.271  15.099 -0.0944  0.2011 -0.0729
12699W        W28833  15.464   2.290   1.596  0.0588 -0.0403  0.0749
12700W        W28834  12.967   8.579   2.106 -0.0058 -0.0967 -0.1511
12701W        W28835   0.551   5.270  15.366  0.1430 -0.0979  0.5524
12702W        W28836  18.449   6.107  15.466  0.0524 -0.2126 -0.1948
12703W        W28837   5.797  15.809  11.968 -0.0209 -0.0793 -0.1183
12704W        W28838  14.552  14.173   4.921  0.2051  0.1585  0.0867
12705W        W28839   3.415   8.130   2.864 -0.0537  0.0501 -0.1954
12706W        W28840  13.441   6.210  15.752  0.0155  0.0450 -0.1043
12707W        W28841   2.475   6.728  14.176  0.0117  0.1423  0.3669
12708W        W28842   2.836   2.759   4.858 -0.1498  0.2120  0.1231
12709W        W28843  17.507  11.964  10.905 -0.2027 -0.0031 -0.0357
12710W        W28844   5.256  11.826   3.413  0.0099  0.1813 -0.0384
12711W        W28845   4.588  10.204  10.974 -0.0651 -0.2724 -0.0473
12712W        W28846  17.225   1.781   5.241  0.0134  0.2788 -0.0805
12713W        W28847  10.918   2.768  14.590  0.0755 -0.4756 -0.1612
12714W        W28848   5.348   1.715   5.591 -0.1143  0.0661 -0.3497
12715W        W28849  16.810   1.619   4.974 -0.2896  0.0296  0.1794
12716W        W28850   0.621   7.568   3.009 -0.3170  0.0788  0.1205
12717W        W28851  14.839   7.338  14.910  0.0223 -0.3759  0.1203
12718W        W28852  12.012   2.645   1.577  0.2599 -0.0436 -0.3582
12719W        W28853   6.012  14.436  12.059  0.1412 -0.2313 -0.0971
12720W        W28854   6.139  12.440   3.598  0.0084  0.2412  0.1167
12721W        W28855  16.175  18.095  13.005 -0.1365  0.1148 -0.1589
12722W        W28856   2.679  17.086   2.175  0.0343  0.2734 -0.1311
12723W        W28857  13.678  15.273  15.693 -0.0995 -0.2823  0.4517
12724W        W28858  13.846  14.014   3.990  0.1108 -0.0432  0.0065
12725W        W28859   9.093   6.590   4.355 -0.2240  0.0990  0.0841
12726W        W28860   5.775   2.764   3.489  0.0647 -0.1231 -0.1941
12727W        W28861   8.166  17.214   0.165  0.0716  0.0686 -0.0071
12728W        W28862  16.755   1.141  10.971 -0.0464  0.3539 -0.2779
12729W        W28863  17.048  13.694  11.767 -0.2200  0.0967 -0.2400
12730W        W28864  18.253  15.109  11.178 -0.3415  0.4627 -0.2005
12731W        W28865  11.704  17.417  11.895  0.3963 -0.0313  0.1775
12732W        W28866   2.154  12.490  12.872 -0.0863 -0.0111  0.0985
12733W        W28867  13.341  10.860   0.805 -0.0281 -0.1712 -0.3717
12734W        W28868  17.107  16.127   4.609 -0.0654  0.1588 -0.4305
12735W        W28869  18.393   2.316   6.125  0.0692 -0.1075  0.0580
12736W        W28870   2.044  10.517   2.726 -0.0936 -0.3000  0.0001
12737W        W28871  14.637   5.143   5.226 -0.0949 -0.3869  0.1456
12738W        W28872   2.203  13.754  11.655 -0.2351 -0.0692 -0.0677
12739W        W28873   2.330  13.076  12.407 -0.1168  0.0667  0.0950
12740W        W28874  11.774  10.493  12.180 -0.2557 -0.3434  0.1023
12741W        W28875   7.335   7.106   0.912 -0.1528  0.1047 -0.2667
12742W        W28876  14.253  17.249  11.081  0.0898 -0.1975 -0.1694
12743W        W28877  15.201   5.503   3.793 -0.0865 -0.0191  0.0544
12744W        W28878   4.238  15.624   3.449  0.1246  0.0771  0.0547
12745W        W28879  13.338   0.501   0.880  0.1871 -0.0836  0.0048
12746W        W28880   5.482   3.065   5.719  0.0938  0.0874 -0.3371
12747W        W28881  10.925  15.473  13.308  0.1452 -0.0323  0.0125
12748W        W28882   7.963   2.506   4.892  0.1292 -0.0954 -0.3478
12749W        W28883   0.656   5.736  14.893  0.1186  0.1132  0.0604
12750W        W28884  17.099  16.887   1.238  0.1346  0.2774  0.1118
12751W        W28885  15.676   0.505   2.879  0.2245  0.3108  0.1479
12752W        W28886  10.971   9.107   5.993  0.2494  0.1144 -0.2216
12753W        W28887   8.711   8.901  16.057  0.2348 -0.0315  0.0883
12754W        W28888  18.237   0.897   2.822  0.0505 -0.3060  0.1067
12755W        W28889   0.316   9.978   1.987  0.1363  0.1786  0.1087
12756W        W28890   9.042  17.101   0.073 -0.2577 -0.0285 -0.1504
12757W        W28891   5.171   4.387  13.186  0.3389  0.2136  0.0266
12758W        W28892   9.395  13.226   2.519 -0.1369  0.3806 -0.4753
12759W        W28893   2.687  16.060  12.592 -0.0111 -0.2799 -0.0615
12760W        W28894  12.151  17.127   5.687 -0.0836  0.1928  0.2091
12761W        W28895  18.398  12.007   0.144 -0.1842 -0.1532 -0.0857
12762W        W28896   6.961  14.094  10.793 -0.4963 -0.1299 -0.1620
12763W        W28897   9.742  15.831   2.365  0.0580  0.1006  0.1251
12764W        W28898  14.254  14.852  16.060 -0.3500 -0.1764  0.1651
12765W        W28899   3.223   8.449   5.561  0.0112  0.0297 -0.1534
12766W        W28900   5.050   1.057  13.477  0.0293 -0.3328  0.1775
12767W        W28901   1.550  16.900  11.509 -0.2792  0.0321 -0.1106
12768W        W28902   8.239   0.965   1.374 -0.0010 -0.1061  0.1032
12769W        W28903   4.620  12.740  10.876  0.1015 -0.1672  0.1091
12770W        W28904   5.950  18.485   2.577 -0.0933 -0.0511  0.0902
12771W        W28905   6.621   1.865  11.646 -0.1781  0.2373  0.0073
12772W        W28906   5.220   3.415  13.726  0.0654  0.0048 -0.0576
12773W        W28907  15.070   6.036  14.716  0.0047 -0.0451  0.0674
12774W        W28908  12.008   1.523   0.201  0.0012 -0.3328 -0.0336
12775W        W28909   9.510   4.214   5.198  0.2555 -0.2163  0.0899
12776W        W28910   2.536  11.321   2.585 -0.2947  0.0098 -0.0290
12777W        W28911   6.634  16.012   1.348 -0.1396  0.0368 -0.0876
12778W        W28912   2.457   7.656   4.523  0.2695 -0.0537  0.0830
12779W        W28913  15.127  10.753  11.381 -0.1142 -0.0741  0.1406
12780W        W28914  11.986  17.728   2.464  0.1556  0.1986  0.1424
12781W        W28915  15.360   2.203  15.793  0.0045 -0.2286 -0.0584
12782W        W28916   4.957  10.237   2.649  0.1902  0.1330 -0.1725
12783W        W28917  11.201  13.003   6.459  0.1236 -0.1005 -0.2467
12784W        W28918  11.576   3.610   4.480 -0.1935 -0.0883  0.1596
12785W        W28919   3.832   1.396  12.512  0.0949 -0.0879  0.0649
12786W        W28920   3.968  10.112  11.259  0.1319 -0.0433  0.1436
12787W        W28921  17.997   2.755   1.830 -0.1507 -0.0836  0.2041
12788W        W28922  15.771   6.917   4.209  0.1491  0.1078  0.0617
12789W        W28923   8.211  13.719   1.264  0.2961 -0.1461  0.0472
12790W        W28924   8.512  16.148   1.881 -0.0370  0.1804  0.2136
12791W        W28925  12.336  13.001  14.128 -0.0959  0.0079 -0.2122
12792W        W28926   2.076   3.718  15.607 -0.1715  0.2294  0.1800
12793W        W28927   1.063   3.804  15.363 -0.2672  0.0447 -0.1100
12794W        W28928  15.745   8.938   0.478  0.2074 -0.0847  0.1885
12795W        W28929  12.291   9.422  14.456 -0.2189 -0.3326  0.1774
12796W        W28930  17.329   9.550  11.449  0.0610 -0.0829  0.3595
12797W        W28931   9.126   7.713   0.054  0.0689 -0.3931 -0.0065
12798W        W28932   1.605  11.514  15.822 -0.2130 -0.1216 -0.0896
12799W        W28933   9.992   5.973  12.418 -0.1542  0.0809  0.0718
12800W        W28934   2.229  17.407  12.815  0.1349  0.1126 -0.1985
12801W        W28935  11.008   1.344   5.248  0.3404  0.1064  0.0547
12802W        W28936   6.905   8.229   4.096 -0.1472  0.0565 -0.2236
12803W        W28937   8.696  13.144   0.317 -0.0168  0.2794 -0.2953
12804W        W28938  12.624  17.165   0.908  0.1548 -0.0340 -0.2077
12805W        W28939   1.693   4.851   2.310  0.0586  0.1059  0.2203
12806W        W28940   2.861   5.207   2.381  0.0027  0.1163  0.2694
12807W        W28941   9.361   0.833  14.776 -0.0134 -0.3863  0.0344
12808W        W28942   3.247   6.004   3.516 -0.3720 -0.0057 -0.3193
12809W        W28943  15.304   6.193  12.781  0.0658  0.2259 -0.1518
12810W        W28944  15.883   2.387  11.364 -0.1244  0.0281 -0.0403
12811W        W28945  12.846   0.166   2.220  0.2597  0.0752  0.1179
12812W        W28946   9.015  17.861   1.830  0.2958  0.1407 -0.1973
12813W        W28947   4.703  14.112  12.755 -0.0471 -0.2418 -0.1788
12814W        W28948  18.337  14.671  14.713 -0.1436  0.1299  0.0518
12815W        W28949  13.604   8.824  13.675 -0.1466  0.0740  0.2754
12816W        W28950   8.929   5.667   4.488 -0.1598 -0.0986 -0.2634
12817W        W28951  15.981  10.784   3.367  0.1829  0.0329  0.5223
12818W        W28952   1.687  11.518   2.651  0.2602  0.0292  0.1737
12819W        W28953  15.510   3.615  12.780  0.0010 -0.3814 -0.0699
12820W        W28954  13.776  12.419  15.637  0.3749 -0.0674 -0.0863
12821W        W28955  15.722   9.299   1.995  0.0952 -0.0098 -0.1256
12822W        W28956   3.598  11.043  12.283  0.0840  0.0860 -0.0778
12823W        W28957   4.154  14.567  11.841 -0.1255  0.3631  0.1152
12824W        W28958  10.453   4.998   1.479  0.0216 -0.1956 -0.1006
12825W        W28959  12.772  17.768  14.107 -0.0524 -0.1196  0.0064
12826W        W28960   8.533  17.880  14.222  0.0485  0.2089  0.0056
12827W        W28961  18.413   7.861  11.454  0.3091  0.2243 -0.1019
12828W        W28962  17.706   7.218  11.958  0.0117  0.3380  0.3054
12829W        W28963   6.005   3.905   5.858  0.2946  0.0986  0.3004
12830W        W28964  18.207   4.418  13.098  0.2455 -0.0845  0.0456
12831W        W28965   7.499   3.960  11.256 -0.0374 -0.3668 -0.0100
12832W        W28966  12.752   1.580   3.281 -0.3529 -0.1538  0.2182
12833W        W28967  12.971   9.989   3.076 -0.1001  0.1117 -0.2073
12834W        W28968   9.606   4.391  14.800 -0.0251  0.0500  0.0659
12835W        W28969   6.829  17.201  12.648 -0.0838  0.0821  0.1161
12836W        W28970  16.806  13.608   0.389  0.0291 -0.2272 -0.3217
12837W        W28971   4.713  11.473  16.028 -0.2497 -0.2101  0.1513
12838W        W28972   3.876  11.930  13.805 -0.0318  0.0194  0.1005
12839W        W28973   6.475  16.551   2.457  0.0126  0.1595  0.1633
12840W        W28974   2.557  13.442  12.790  0.0822  0.0209  0.3075
12841W        W28975   0.060   9.880  13.674 -0.1281 -0.2107  0.3980
12842W        W28976  12.435   6.205  15.611  0.0293  0.1545 -0.1312
12843W        W28977  15.798   8.433   2.299  0.2174 -0.2561  0.2021
12844W        W28978  18.207   9.636  14.972 -0.0759  0.1071 -0.2373
12845W        W28979  10.062  14.917   5.575  0.1454  0.1073  0.0580
12846W        W28980  16.206   4.478  14.585  0.3418 -0.0661 -0.2418
12847W        W28981  13.540  18.262  11.533  0.2161  0.0364 -0.0920
12848W        W28982   9.848   7.878  11.360 -0.1679 -0.0348 -0.2553
12849W        W28983   4.969  16.057  15.203 -0.3255  0.1066  0.0059
12850W        W28984  14.085   8.734   0.228 -0.1262 -0.3663 -0.5240
12851W        W28985  11.450   4.521  14.198 -0.1639  0.2514  0.0394
12852W        W28986  14.418   5.598   4.866  0.1206  0.0638  0.1647
12853W        W28987   8.375  17.829  11.515 -0.3080 -0.3863 -0.0723
12854W        W28988  14.667   0.207   5.045  0.3089  0.2888 -0.1290
12855W        W28989  15.304   4.479   4.332  0.1323  0.1990  0.2043
12856W        W28990  17.856   0.712   5.204  0.2146 -0.2835  0.1715
12857W        W28991  15.490  15.006   2.176  0.1392  0.2146  0.2128
12858W        W28992  16.747  15.205  13.394 -0.2068 -0.0135 -0.0417
12859W        W28993  10.866   5.275   2.517 -0.3858 -0.2305 -0.0169
12860W        W28994   9.692  17.587  15.054  0.1321 -0.0843 -0.0602
12861W        W28995  11.343  14.680  14.980  0.2943 -0.3184  0.1691
12862W        W28996  10.127   5.333   2.741 -0.3268 -0.2648 -0.0299
12863W        W28997  13.283  17.558  16.027 -0.1781  0.1627 -0.1968
12864W        W28998   8.517  12.990   2.809 -0.1866 -0.0009 -0.2127
12865W        W28999   9.505  13.947   6.292 -0.1888 -0.2382 -0.2070
12866W        W29000  16.858  12.945  14.302  0.2593  0.0978 -0.3010
12867W        W29001   1.509  13.299  11.216 -0.2471  0.1647  0.3495
12868W        W29002  16.826   5.904   1.548  0.1171 -0.0886  0.0033
12869W        W29003  16.429  17.170   4.080 -0.1996  0.0994 -0.0452
12870W        W29004  15.895   2.290   3.444  0.0172  0.0920 -0.0017
12871W        W29005   5.161   8.390   5.311  0.0644 -0.0117  0.0299
12872W        W29006   1.075  10.395  13.193 -0.3812  0.0944  0.0574
12873W        W29007   9.836  15.423  14.613 -0.0398  0.2387  0.0211
12874W        W29008   8.383  17.472  14.540  0.0314  0.0409  0.1069
12875W        W29009  12.101  12.297  11.504 -0.3126  0.3212  0.0639
12876W        W29010   8.907   1.512   1.895 -0.1002  0.5810 -0.3307
12877W        W29011  16.444  13.644   3.764 -0.1287 -0.3851  0.0998
12878W        W29012   2.089  13.676  11.081 -0.0496 -0.0742  0.1517
12879W        W29013   5.177  16.998   4.575 -0.1157 -0.0047 -0.1784
12880W        W29014  12.520   6.276  11.550  0.2618 -0.1180  0.0233
12881W        W29015  14.291   3.897   0.116 -0.0554 -0.0498  0.2685
12882W        W29016   3.941   6.416  14.257 -0.0774 -0.1234 -0.0706
12883W        W29017   2.796   2.035   5.757 -0.1501  0.0670  0.1859
12884W        W29018  11.178   6.419  15.828 -0.0152  0.0797 -0.1059
12885W        W29019  16.716   0.595  15.577 -0.2701 -0.1142 -0.0361
12886W        W29020  13.229  13.669  11.971 -0.1792 -0.0081 -0.0357
12887W        W29021   5.437   5.323  15.355 -0.0270 -0.1346  0.0857
12888W        W29022   4.583   3.517  15.187  0.0881 -0.0345 -0.1675
12889W        W29023   4.953  10.476  12.328 -0.0127 -0.1851 -0.0467
12890W        W29024   8.449   4.231  13.283  0.0529 -0.2153  0.0667
12891W        W29025  12.145   3.106   2.321 -0.1660 -0.1817  0.3152
12892W        W29026  10.407   6.427   5.200  0.1112 -0.1947  0.3198
12893W        W29027  17.292  12.995   4.134  0.1193  0.0276 -0.0373
12894W        W29028   4.318   7.227  10.983 -0.1318  0.2348 -0.0886
12895W        W29029  13.301   5.236   4.642  0.3371 -0.0688  0.0340
12896W        W29030  15.858   7.606  12.633 -0.0319  0.0493 -0.0370
12897W        W29031   2.947  16.644  13.191  0.1619  0.1137 -0.0591
12898W        W29032  14.005   0.887   4.421 -0.1860  0.2450 -0.0222
12899W        W29033  14.606  11.781   0.256  0.0204  0.0042 -0.0804
12900W        W29034   0.703   3.509   5.232 -0.1594  0.1213 -0.0483
12901W        W29035  12.619   2.279   4.004  0.1273 -0.0649  0.3359
12902W        W29036   5.614  11.358   2.139 -0.1092 -0.2948  0.0223
12903W        W29037   9.676   3.650  14.382  0.2706  0.0514 -0.0226
12904W        W29038  12.425   2.301   5.760 -0.3042  0.0830 -0.0760
12905W        W29039  17.268   4.421  13.187 -0.0669 -0.4512 -0.0799
12906W        W29040  13.417   8.778   3.869  0.0752  0.0107 -0.1701
12907W        W29041   8.171  11.193  12.578  0.0800  0.0925 -0.0467
12908W        W29042   8.189   0.923   5.412  0.0011 -0.1966  0.3846
12909W        W29043   0.817   9.821  16.014  0.0121 -0.1288 -0.0823
12910W        W29044   9.426   3.294  12.694 -0.5326 -0.1243 -0.0605
12911W        W29045   7.528  11.741  12.686 -0.3127  0.3568 -0.5369
12912W        W29046   5.475  13.792  15.624 -0.0260  0.0581 -0.0176
12913W        W29047   5.142   2.981  14.559  0.0440  0.0979 -0.3493
12914W        W29048   2.906   8.415  12.440  0.1741  0.0076 -0.2475
12915W        W29049   2.562  11.447   0.779 -0.0797  0.0694 -0.0719
12916W        W29050   5.944   8.265  14.230 -0.0652 -0.3184 -0.2058
12917W        W29051   7.898   6.837  13.020 -0.1569  0.0528  0.0665
12918W        W29052  14.156  13.514   0.103 -0.2228  0.2720 -0.1386
12919W        W29053   7.909   4.997  13.710 -0.2254  0.1373 -0.4178
12920W        W29054  15.262   7.770   4.625 -0.1563  0.0845  0.1467
12921W        W29055   8.424   4.871  13.575  0.1546  0.4129 -0.2235
12922W        W29056  18.057  17.442  15.585  0.1776 -0.1133  0.1447
12923W        W29057   1.448  13.953   2.818 -0.0417 -0.0667  0.3992
12924W        W29058   5.873   3.443  12.289  0.0997  0.2938 -0.1218
12925W        W29059   3.122  11.654   1.579 -0.2339 -0.0066 -0.2300
12926W        W29060   9.703  12.969  12.981  0.1098  0.1106  0.2646
12927W        W29061  16.667   6.028  15.691  0.6179 -0.0849 -0.0379
12928W        W29062  11.934   3.677  13.026 -0.1560 -0.1422 -0.1373
12929W        W29063  18.216   3.732   1.735  0.1617  0.0540 -0.1265
12930W        W29064   7.127  13.733   2.863 -0.1263  0.1298  0.0002
12931W        W29065   5.417   7.969   4.115  0.3891 -0.0728  0.2177
12932W        W29066  12.974   8.279   2.573  0.1708  0.0905 -0.2261
12933W        W29067  14.819   1.111   4.850  0.2002  0.3203  0.2384
12934W        W29068  14.183   4.470  12.788  0.3363  0.1121 -0.2793
12935W        W29069   3.641   3.743  12.090  0.0016 -0.1502 -0.0019
12936W        W29070  15.320  15.751  15.965 -0.1165 -0.0577 -0.0563
12937W        W29071   4.173  12.174  14.671 -0.2811 -0.1792  0.0461
12938W        W29072   0.982   7.320  10.764 -0.0092 -0.1834  0.0672
12939W        W29073   4.437   2.636   4.305  0.2970 -0.0898 -0.0522
12940W        W29074   7.433   7.338  13.575  0.1838 -0.0389 -0.2225
12941W        W29075  15.397  14.829  15.817  0.0778 -0.2479 -0.1353
12942W        W29076   3.283  17.963   1.895 -0.0599  0.2119 -0.2907
12943W        W29077   8.682   3.608   3.041  0.2762 -0.3011  0.0570
12944W        W29078  13.983   9.009   2.167 -0.0160  0.2172  0.1216
12945W        W29079  10.942  13.854   1.238 -0.3766  0.0104  0.1404
12946W        W29080   0.803   2.666  12.613  0.0366  0.1483  0.1340
12947W        W29081   3.378   7.475  11.452  0.0685  0.4161  0.1684
12948W        W29082  11.039  18.355  12.860  0.0136  0.5557 -0.2553
12949W        W29083  17.319  12.575  11.750  0.1025  0.2681  0.1865
12950W        W29084   4.068   9.320  12.010 -0.3704 -0.3308 -0.2364
12951W        W29085   9.308   8.509   5.732 -0.0824 -0.1313  0.1432
12952W        W29086   0.677   9.125   2.954  0.1114 -0.0174 -0.4323
12953W        W29087   1.827  13.846   1.010  0.2085 -0.0471  0.2046
12954W        W29088   6.830  10.536  11.083 -0.0608  0.1692 -0.2401
12955W        W29089  13.277  14.938  12.537 -0.2513 -0.3249 -0.1208
12956W        W29090   3.195  14.865   5.530  0.3557  0.0977 -0.1490
12957W        W29091   5.534   8.536   0.621  0.5828  0.0655  0.1673
12958W        W29092  10.933  16.588   1.219 -0.0826 -0.0880 -0.4133
12959W        W29093  16.518  12.801   1.717 -0.1974  0.1762 -0.0730
12960W        W29094   2.513   1.324   3.531  0.3056 -0.0305 -0.1713
12961W        W29095   8.530  13.229   2.070  0.1787 -0.0821  0.2039
12962W        W29096   5.963  12.349  13.091 -0.0400  0.1185  0.1113
12963W        W29097   2.111   5.311  11.126  0.0883  0.3582  0.1031
12964W        W29098  10.998  15.129  13.899  0.1073 -0.0812 -0.1414
12965W        W29099  12.896   5.527   5.381  0.0123 -0.1829 -0.0688
12966W        W29100   2.440  14.145   3.356  0.0207 -0.5518  0.0185
12967W        W29101   0.724   0.118   5.983  0.1575 -0.0438  0.1312
12968W        W29102   4.637   6.769  13.318 -0.0653  0.1818  0.0011
12969W        W29103   0.883   2.625  13.693 -0.1105 -0.0630  0.0447
12970W        W29104  15.320  15.189   1.284 -0.1678  0.2268  0.2185
12971W        W29105   0.033   3.540   4.337 -0.1232 -0.2461  0.2976
12972W        W29106  12.007   7.479   4.077 -0.0088  0.1646 -0.0699
12973W        W29107   5.235  12.442   3.660  0.0088  0.2291  0.0386
12974W        W29108  15.227   3.311  11.612  0.2665  0.2923 -0.0655
12975W        W29109  10.856   9.737   1.788  0.1665 -0.0659  0.0930
12976W        W29110  12.228   0.167  12.085 -0.1572  0.0020  0.0415
12977W        W29111   2.979   9.638   1.271 -0.2565 -0.0992  0.0622
12978W        W29112  15.847  16.432  13.387 -0.2739 -0.0239 -0.0473
12979W        W29113  17.205  18.316  15.723 -0.0261 -0.2037 -0.2829
12980W        W29114  15.394   7.617   0.784 -0.0673 -0.0477  0.2578
12981W        W29115   5.186  18.166   3.588  0.1400 -0.0057 -0.0394
12982W        W29116   9.129   6.529  12.450 -0.0488  0.1726 -0.3125
12983W        W29117   0.558  13.369   4.049 -0.1883 -0.0269  0.0429
12984W        W29118   5.000   8.885  15.450  0.4019  0.0244  0.0760
12985W        W29119   3.788  16.990   1.126  0.0845  0.0477 -0.1654
12986W        W29120   8.195   3.892  14.076  0.0840  0.6314 -0.1924
12987W        W29121   9.072  15.380   2.998 -0.1436 -0.0288 -0.2350
12988W        W29122  10.308  10.683   4.006  0.0856 -0.4144 -0.1037
12989W        W29123  10.338   2.534   2.982 -0.1334 -0.1979 -0.2829
12990W        W29124   5.968   0.781  13.821  0.0823 -0.0089 -0.1520
12991W        W29125  13.040  14.797  15.749 -0.0151 -0.0745  0.1268
12992W        W29126  12.407   1.813   3.984  0.2824 -0.0150 -0.2498
12993W        W29127  16.002  17.051  12.491 -0.0130 -0.1407 -0.2252
12994W        W29128   2.836   7.697  14.629 -0.0693 -0.4596  0.2936
12995W        W29129  16.312  15.746   4.069  0.0614  0.2335  0.1713
12996W        W29130   6.566   7.494   0.140 -0.0018  0.0155  0.1024
12997W        W29131   9.740   5.371   1.233 -0.2169 -0.0792  0.0503
12998W        W29132   4.859   2.735   2.179 -0.2525  0.0648  0.1151
12999W        W29133  11.109  11.607   2.390 -0.0644  0.1194  0.0757
13000W        W29134   9.996   2.469  15.722  0.0683 -0.0886 -0.1102
13001W        W29135   4.436  13.277   1.274 -0.0503  0.1588 -0.0532
13002W        W29136  13.484  14.439   1.286  0.0803 -0.0225  0.1750
13003W        W29137  12.947   2.761   0.379  0.0818 -0.0113 -0.0620
13004W        W29138   5.442  10.176  13.831  0.0009  0.0942 -0.1238
13005W        W29139  12.124   5.947   1.178 -0.2098 -0.0707  0.0203
13006W        W29140   6.872   0.657  15.115 -0.0679  0.0787 -0.0713
13007W        W29141   1.293  14.490  14.189  0.0003 -0.1610 -0.2772
13008W        W29142   3.736   2.337  13.850  0.5405 -0.0996  0.1284
13009W        W29143  16.434  14.985   4.052 -0.0822 -0.1872 -0.1314
13010W        W29144  17.181   6.794  14.300 -0.2644 -0.0394  0.5258
13011W        W29145   7.038  15.548  11.435 -0.0833  0.0016 -0.1370
13012W        W29146  12.789  15.463  11.469 -0.0007 -0.0161  0.1836
13013W        W29147   5.371  13.868   3.030  0.4605 -0.1793 -0.1171
13014W        W29148  17.114   2.173   3.763  0.0850 -0.0817 -0.1771
13015W        W29149   1.768   5.192  14.608 -0.0699  0.1737 -0.1542
13016W        W29150   0.385   4.715   0.384  0.1657  0.2066 -0.2747
13017W        W29151   5.872  15.755  15.753  0.2494 -0.1955  0.0611
13018W        W29152   0.287  17.121  11.979 -0.2929  0.0873 -0.4011
13019W        W29153   9.486  13.210   5.429  0.3519  0.2288  0.1241
13020W        W29154   6.652   1.663  15.338  0.0532 -0.1903  0.2265
13021W        W29155  11.312   5.963  12.401  0.0440 -0.2308 -0.0003
13022W        W29156   0.433  12.217   4.882 -0.0875 -0.1125  0.1288
13023W        W29157  16.601  17.830  13.111 -0.2790  0.1190  0.0989
13024W        W29158   2.718   9.886   5.620 -0.8155 -0.0015  0.2373
13025W        W29159   3.369   0.497   1.628 -0.2784 -0.1548 -0.1854
13026W        W29160   4.112   8.188  12.008  0.3727 -0.1294  0.0058
13027W        W29161   6.904  14.558  14.097  0.1310 -0.2182 -0.2926
13028W        W29162  18.504   4.343  11.541 -0.2105 -0.1064  0.0063
13029W        W29163   8.711  16.552  14.838  0.0078  0.3664  0.1036
13030W        W29164   4.802   0.602   1.507  0.2385  0.1150  0.0648
13031W        W29165  17.728   7.183   4.444 -0.0432  0.0360 -0.0351
13032W        W29166  18.086   4.464   3.485 -0.1795 -0.1206  0.1214
13033W        W29167  10.612  13.355   1.788  0.0965 -0.0183  0.0991
13034W        W29168   1.548  15.890  12.254 -0.1332 -0.2358  0.2954
13035W        W29169  16.482  12.795   4.857 -0.2606 -0.1597 -0.0762
13036W        W29170  16.504  10.748  11.255  0.0565  0.2029 -0.0243
13037W        W29171  10.297   5.068   4.913 -0.2269  0.2066  0.0459
13038W        W29172   5.521  11.498   5.609 -0.1225  0.0885 -0.0247
13039W        W29173   0.107  15.401  11.700 -0.0377  0.1078  0.0622
13040W        W29174   9.294  11.853  11.477 -0.1760 -0.5741 -0.1525
13041W        W29175  11.611  11.445   1.699 -0.0810  0.0100 -0.0792
13042W        W29176   3.868   7.297  11.244  0.0280  0.0975 -0.2415
13043W        W29177  12.377   3.767   3.260  0.4184 -0.2502  0.0902
13044W        W29178  12.516   9.072   1.554  0.0318 -0.2125  0.0875
13045W        W29179   3.773   7.589  13.602 -0.3334  0.0320  0.0385
13046W        W29180  17.841   6.118  14.573  0.2099  0.0397 -0.0978
13047W        W29181   0.192   8.525   3.478  0.1011 -0.1084 -0.1341
13048W        W29182   5.024   2.049   4.232 -0.4607  0.0997 -0.0682
13049W        W29183   3.889   8.214  11.101  0.1575 -0.1898  0.0392
13050W        W29184  12.243   9.155  12.581 -0.3155 -0.0238 -0.0780
13051W        W29185  15.757  12.567  15.733 -0.2883 -0.0618 -0.1995
13052W        W29186   9.790   7.878  13.705 -0.2468 -0.0032 -0.0503
13053W        W29187  14.737  10.351  15.505 -0.1161 -0.1179 -0.2943
13054W        W29188  14.330  11.500  14.651  0.1410 -0.1511  0.2559
13055W        W29189  15.176   1.872  14.877  0.1650  0.2674 -0.1341
13056W        W29190  14.147  16.412  13.266  0.3008 -0.0828 -0.3577
13057W        W29191  10.054  15.614  13.750  0.2185  0.0533 -0.0198
13058W        W29192   4.375  10.028   0.673 -0.4831 -0.2139 -0.1373
13059W        W29193   7.456   9.192   0.092 -0.0713  0.0544 -0.2784
13060W        W29194   9.517   7.996  14.143  0.1847 -0.1275  0.0854
13061W        W29195   6.463  11.773  14.391 -0.0612  0.0602 -0.0280
13062W        W29196  10.831  10.659  13.959  0.1629 -0.1755 -0.0212
13063W        W29197  11.598   9.952   2.208  0.4302  0.2775  0.1145
13064W        W29198  11.861   1.140   5.401  0.1363 -0.0487 -0.2414
13065W        W29199  18.215  11.198  12.094  0.2290  0.1226 -0.0913
13066W        W29200   7.722  14.487   0.053 -0.1906  0.3027  0.1816
13067W        W29201   7.764   1.674   2.497 -0.0983 -0.0813  0.0819
13068W        W29202  17.733   7.905  12.741 -0.0826  0.0404 -0.1010
13069W        W29203  11.827   3.549   4.949  0.0525 -0.1922  0.2852
13070W        W29204  12.263  14.202  15.522  0.1964  0.0261 -0.1728
13071W        W29205   7.920   2.120   3.375 -0.0197  0.1060  0.3157
13072W        W29206   3.134   2.319  15.905  0.3936  0.3780 -0.2808
13073W        W29207   5.351  10.153   4.811  0.1275 -0.0682 -0.0909
13074W        W29208  15.425  14.583   3.881 -0.1758 -0.0940  0.0127
13075W        W29209  14.800   3.344  12.511  0.1925 -0.0233 -0.0698
13076W        W29210   8.228   7.164   1.419 -0.0657 -0.1141  0.0537
13077W        W29211   9.674  12.645  15.187  0.3485 -0.0760 -0.1425
13078W        W29212   6.916  17.384   3.282 -0.1514  0.0299  0.2422
13079W        W29213   6.448  14.156  11.597  0.0150 -0.0868 -0.0829
13080W        W29214   0.570   2.170  14.475 -0.2414 -0.4285  0.0461
13081W        W29215  10.932  12.380   0.470  0.0968  0.0016 -0.1207
13082W        W29216  16.219  12.617  12.909  0.0434  0.2945 -0.4691
13083W        W29217   3.099   2.072   1.725 -0.1200 -0.3407  0.2793
13084W        W29218   1.593   2.788   0.691  0.2782 -0.0883  0.2450
13085W        W29219   0.087   2.663  14.073  0.3352  0.1765  0.1542
13086W        W29220  15.829   9.602  14.262 -0.0047  0.2190  0.1424
13087W        W29221  14.319   0.426   5.375 -0.2627  0.1163  0.0160
13088W        W29222  15.313  18.212   2.410  0.1361 -0.2980 -0.0550
13089W        W29223  14.403  17.941  14.170  0.0293  0.2093  0.0777
13090W        W29224  18.431   0.537  10.283 -0.1499  0.2282  0.4010
13091W        W29225  15.032  12.688  12.348 -0.0650  0.1002 -0.0260
13092W        W29226   1.310   5.863  12.387 -0.2685 -0.1526 -0.0296
13093W        W29227  15.777  10.699   4.555 -0.2352  0.0797 -0.2038
13094W        W29228   9.634  12.405  11.241 -0.0391 -0.3067 -0.2080
13095W        W29229   7.161   1.890  15.266  0.0592 -0.0559  0.0997
13096W        W29230   3.191   6.493  15.397 -0.0366 -0.1023 -0.0744
13097W        W29231  16.303   1.053   4.537  0.1617  0.2181  0.0596
13098W        W29232   7.432  10.600   0.502 -0.0131 -0.0303  0.1580
13099W        W29233  10.610  12.598   3.291  0.0315 -0.5194  0.1334
13100W        W29234  11.388   7.407  15.692 -0.0628 -0.0558 -0.0772
13101W        W29235   4.724   8.857  14.535  0.0900  0.1917 -0.1553
13102W        W29236  16.273   6.173   2.927 -0.1612  0.1774 -0.2155
13103W        W29237   7.318   7.746   0.186 -0.3141 -0.0390  0.0893
13104W        W29238   8.475   7.543  13.486  0.0933  0.0535  0.3253
13105W        W29239   0.926   8.950   3.750 -0.1475 -0.1712  0.1846
13106W        W29240   6.730   5.151   4.449 -0.4629  0.1723 -0.0288
13107W        W29241  16.595   2.084   5.376  0.2026 -0.1989  0.2167
13108W        W29242   2.923   7.269  11.295  0.1415 -0.3082 -0.0935
13109W        W29243   9.166  11.707   1.873 -0.0057  0.0444  0.2450
13110W        W29244  15.787  11.111  14.034  0.1781 -0.2184  0.0692
13111W        W29245   3.189  15.027   3.955  0.0513  0.2145 -0.2308
13112W        W29246  13.096   0.306  15.119  0.2063 -0.0268  0.0492
13113W        W29247  10.257  15.197   2.609  0.6051 -0.0451  0.0737
13114W        W29248   8.277  12.092  12.628  0.0363 -0.0121 -0.2229
13115W        W29249   6.686   5.885   6.083 -0.1054  0.2924  0.0818
13116W        W29250   1.789   9.459   9.859  0.0075 -0.1939 -0.1162
13117W        W29251  10.499  14.688  14.746 -0.3107 -0.2715 -0.0200
13118W        W29252   8.973  13.767   6.246  0.0800 -0.2269 -0.1783
13119W        W29253   8.576   9.767   0.095 -0.1295 -0.1521 -0.0801
13120W        W29254   8.452  18.056  12.768 -0.1019  0.1908  0.2322
13121W        W29255   6.327   0.685   1.880 -0.0755 -0.1155 -0.2536
13122W        W29256   1.378  10.257  10.022 -0.3033 -0.4226 -0.0488
13123W        W29257  13.945  18.298   1.057  0.1431  0.0059 -0.2214
13124W        W29258   1.608   8.484   0.597 -0.0972 -0.0600 -0.1719
13125W        W29259   6.289   2.798   5.370  0.0975 -0.2350  0.2704
13126W        W29260  16.075  15.905  15.597 -0.0047 -0.4381 -0.0248
13127W        W29261  15.975   3.344  13.556  0.0422  0.1779 -0.0283
13128W        W29262  12.278   2.355  11.081 -0.0103 -0.0995  0.3052
13129W        W29263   6.923   8.504  15.755  0.2026  0.3109 -0.1812
13130W        W29264  17.367   4.965  13.472 -0.1322 -0.1499  0.3428
13131W        W29265   2.252  17.527   5.488  0.0562  0.0465  0.0058
13132W        W29266   1.506  11.987  15.880 -0.1430  0.0302 -0.2521
13133W        W29267   9.693  12.334   1.854  0.0381 -0.3888  0.1024
13134W        W29268   3.963  14.118  14.278 -0.0083  0.1221 -0.1971
13135W        W29269  11.655  11.359   5.156 -0.1834 -0.1139  0.1833
13136W        W29270   7.579  16.440   4.846  0.0821  0.5950  0.0462
13137W        W29271   2.430   1.665  12.754  0.4719 -0.0596  0.1243
13138W        W29272  14.003   0.984  15.758  0.1691 -0.0406 -0.2773
13139W        W29273   9.327  10.229  15.882 -0.2635 -0.0130 -0.0579
13140W        W29274   9.993   4.099  13.316  0.0283 -0.1540 -0.2056
13141W        W29275  14.165  17.571  11.492 -0.0815 -0.0878  0.2783
13142W        W29276  16.475   6.246  12.136  0.0960  0.2572 -0.0028
13143W        W29277  13.248  11.710   0.212  0.1721  0.4380  0.2449
13144W        W29278   8.639  17.505   2.569 -0.3073  0.5150 -0.0389
13145W        W29279   1.885   5.565   4.154 -0.0108 -0.5475  0.2237
13146W        W29280   0.093   5.795   1.290  0.3059 -0.3180 -0.0702
13147W        W29281  17.405   7.104   0.053 -0.1666 -0.1749 -0.2004
13148W        W29282   9.970  17.690   0.319 -0.3273 -0.0048 -0.1412
13149W        W29283  18.175   3.434  10.446 -0.0193 -0.4646 -0.2756
13150W        W29284   8.601   8.978   4.802  0.1137  0.1724  0.0474
13151W        W29285   7.267   1.116   4.060  0.1725 -0.0804  0.1230
13152W        W29286  15.221  10.891   4.522 -0.0458  0.1392 -0.0688
13153W        W29287  16.835   7.079  15.449  0.1281 -0.0889 -0.0776
13154W        W29288   1.681   7.921   0.720  0.3560 -0.4222  0.1034
13155W        W29289   0.952  10.280  13.659  0.0582 -0.0616  0.0395
13156W        W29290  11.886   2.364  14.707 -0.3362 -0.0089  0.0522
13157W        W29291  16.436   6.338   3.810 -0.1788  0.0320 -0.1415
13158W        W29292  12.792  16.736   1.098  0.0832 -0.2352 -0.1203
13159W        W29293  12.750   4.100  15.771 -0.1743  0.3021 -0.0992
13160W        W29294   4.569  15.109   0.491 -0.3669 -0.3501 -0.0569
13161W        W29295  17.340   6.381  15.948  0.1752 -0.0675 -0.1135
13162W        W29296  10.206  14.665   0.415  0.0190 -0.0423  0.2126
13163W        W29297  15.683  15.997   4.832  0.1696 -0.0279 -0.0335
13164W        W29298   2.202  11.624   5.501  0.1290  0.0863  0.2012
13165W        W29299  17.027  17.208  12.453 -0.1753 -0.1210  0.0016
13166W        W29300   8.438   1.043  14.918  0.0630 -0.1587 -0.1305
13167W        W29301  15.366  17.648  15.627  0.1119 -0.3028 -0.1600
13168W        W29302  17.359   7.510   2.095 -0.1272 -0.2309  0.0815
13169W        W29303   6.164  17.135   5.415 -0.0339  0.1695  0.0477
13170W        W29304   6.543   1.921   4.522  0.0982 -0.3149 -0.1023
13171W        W29305   1.146  10.280   4.762 -0.1727 -0.0617  0.2920
13172W        W29306  11.560   9.631   2.876  0.0061 -0.1331  0.0549
13173W        W29307   7.900   5.265   0.903 -0.3055  0.2406  0.1669
13174W        W29308  17.915   6.519   0.351 -0.0459 -0.0105  0.0678
13175W        W29309   2.835  14.885  13.052  0.0894 -0.0853 -0.0239
13176W        W29310   7.493  13.760   0.788  0.2144  0.0340  0.1758
13177W        W29311   4.121   1.296   1.772 -0.0197 -0.1523  0.2232
13178W        W29312  11.177   3.491  12.508 -0.0949 -0.1010 -0.2220
13179W        W29313  16.118   6.924   2.399 -0.1522  0.2372  0.0122
13180W        W29314   2.532   8.853  10.174  0.0125 -0.1567 -0.1931
13181W        W29315   2.031   1.597  16.017  0.0227 -0.3092  0.1034
13182W        W29316  10.936   0.910   5.488  0.0388  0.0402 -0.1127
13183W        W29317   5.296   3.554  14.395  0.0238 -0.0755 -0.1416
13184W        W29318   2.610  17.431   0.093  0.1784  0.3261  0.2042
13185W        W29319   0.861   0.573   1.313 -0.2079  0.0171  0.1627
13186W        W29320   1.583   5.243   0.559  0.2331  0.1721 -0.1788
13187W        W29321  17.990   0.493   2.576 -0.2451 -0.5152  0.3561
13188W        W29322  16.099   1.723   1.722 -0.0401 -0.1904  0.0239
13189W        W29323  17.170   4.906  10.126 -0.1000 -0.0657  0.4100
13190W        W29324  14.650  10.780  11.484  0.1556 -0.0126  0.0311
13191W        W29325  14.515   5.888   3.132  0.3822 -0.2377 -0.0679
13192W        W29326   1.726   6.655   5.101 -0.1088 -0.2011 -0.3863
13193W        W29327  15.934  10.093  14.363  0.1110 -0.2616  0.2732
13194W        W29328  17.023   3.834   5.142 -0.1580 -0.1739  0.0207
13195W        W29329   2.850  11.818   0.768  0.0168 -0.0617  0.2015
13196W        W29330   1.231   9.314  13.840  0.1325  0.0554  0.1202
13197W        W29331  16.163  13.991   2.672 -0.0021 -0.1032 -0.1932
13198W        W29332  14.719  15.099   4.452  0.0855  0.1166 -0.0585
13199W        W29333   7.755  17.414  12.693 -0.3848 -0.3948 -0.3811
13200W        W29334   2.668   1.471   4.548 -0.1489  0.1074  0.1010
13201W        W29335   4.765  17.324  13.300  0.0450  0.0345  0.2299
13202W        W29336  13.005  15.751   4.103 -0.0605  0.3126  0.0599
13203W        W29337  12.422   7.726   5.149 -0.0547  0.0055  0.1163
13204W        W29338  10.784   7.155   5.497  0.0608 -0.1356  0.0992
13205W        W29339   5.214  17.573  11.900  0.0525 -0.1959  0.0004
13206W        W29340  15.818   7.209   0.942  0.1411 -0.2023  0.1285
13207W        W29341   2.298  10.919   2.866  0.0666  0.0384  0.2023
13208W        W29342   8.082  15.841  14.920  0.3448 -0.0491  0.1805
13209W        W29343   0.507  15.398   4.720  0.0303  0.0545  0.1376
13210W        W29344   9.519  15.397   1.567 -0.0168 -0.2336 -0.1555
13211W        W29345  16.921  16.800  13.896 -0.3188  0.1348  0.2886
13212W        W29346  11.537  16.306  15.134  0.2525 -0.2058  0.1905
13213W        W29347  12.360   1.243   5.120 -0.3527  0.0449  0.1652
13214W        W29348  13.059  12.656   3.991 -0.1307 -0.0150 -0.4911
13215W        W29349  10.400   5.914   0.737 -0.0020 -0.0037  0.0214
13216W        W29350  18.295  16.263  14.395  0.1484  0.3539  0.0387
13217W        W29351  15.499  14.810   0.265  0.1898 -0.4281  0.2594
13218W        W29352   2.145  16.207   4.985 -0.1279 -0.1959 -0.0425
13219W        W29353   3.132   6.048   1.613 -0.0436  0.1220  0.2762
13220W        W29354   7.575   4.550  13.854 -0.1139  0.0953  0.0089
13221W        W29355   7.544   4.069  15.978  0.2481 -0.1564  0.1483
13222W        W29356  17.081   9.202   2.289  0.2703 -0.0413 -0.1396
13223W        W29357  12.450   2.227   0.889  0.0739  0.1683  0.2064
13224W        W29358   0.868   1.383   5.326  0.1704 -0.1077 -0.2055
13225W        W29359   0.127   2.539  12.184  0.1217 -0.2297  0.1095
13226W        W29360  15.852   7.812  12.163  0.1745 -0.0713 -0.2132
13227W        W29361   1.147  11.049  14.803 -0.0317 -0.1981  0.0942
13228W        W29362   7.448   4.763  14.315 -0.0203 -0.1710  0.2274
13229W        W29363   4.164  11.041  13.856  0.0799  0.1128 -0.1348
13230W        W29364   1.358  16.213   1.569 -0.0778  0.0893  0.0172
13231W        W29365   9.050  16.806  15.763  0.1903  0.1491  0.0350
13232W        W29366  13.932  12.312   0.065  0.1682  0.2289  0.0164
13233W        W29367  16.920   5.064  13.544  0.2429 -0.0221 -0.1208
13234W        W29368  17.412   7.004  10.684  0.2193 -0.1208  0.4189
13235W        W29369   4.427   4.479   3.407  0.0269  0.2174 -0.0925
13236W        W29370   7.748  15.947   1.261  0.1254 -0.0663 -0.0438
13237W        W29371   6.698   2.369  13.918  0.0893  0.2748 -0.2094
13238W        W29372  13.402   0.306   4.068 -0.3555 -0.0690  0.3341
13239W        W29373  15.808  13.314   0.753 -0.2023 -0.0344 -0.1880
13240W        W29374  18.205   7.749  12.965  0.1680  0.1849  0.0784
13241W        W29375  10.564  16.225   3.869 -0.0057 -0.0058 -0.2653
13242W        W29376  17.776  13.129  14.483 -0.0585 -0.2524  0.2784
13243W        W29377   2.226   9.928   3.069  0.3297  0.0935 -0.1359
13244W        W29378   9.526  13.045   0.917  0.0521  0.0707 -0.0405
13245W        W29379  15.856   0.384   3.330  0.0761 -0.0056 -0.0180
13246W        W29380   8.800  12.254   4.726  0.1367  0.2460 -0.1576
13247W        W29381   3.707  18.176   5.109 -0.2363  0.1141 -0.0199
13248W        W29382   1.696   7.674   3.591  0.3617  0.0659 -0.0692
13249W        W29383   3.835   8.762   3.925 -0.1794  0.0957 -0.1180
13250W        W29384  15.840   2.881   5.836 -0.2357  0.0803 -0.3650
13251W        W29385   3.989  13.662   2.383  0.2271  0.0046 -0.1324
13252W        W29386   1.607   7.104  15.008  0.2951  0.1146 -0.2822
13253W        W29387   2.488  15.287  15.500 -0.0962 -0.0511  0.1978
13254W        W29388  15.732  15.614   9.894  0.0387 -0.0591 -0.0654
13255W        W29389  12.316  16.015  14.491  0.0448 -0.0963  0.1544
13256W        W29390   1.071   9.783  15.571 -0.0708  0.1334 -0.0547
13257W        W29391  10.168  14.053  13.544 -0.3426 -0.1615  0.0533
13258W        W29392   8.107   0.987  15.424 -0.1622 -0.1973 -0.1703
13259W        W29393  18.318  17.721   4.592 -0.0963  0.0185  0.1713
13260W        W29394   3.134  14.835   0.056  0.1037  0.2641  0.0012
13261W        W29395  14.305  11.660  12.135  0.2636  0.0263 -0.1582
13262W        W29396  17.854   8.887  12.348 -0.1915  0.3762  0.0433
13263W        W29397  14.754   8.808   4.058  0.2122  0.1349 -0.0312
13264W        W29398   9.689   1.453  11.809 -0.1180 -0.0318 -0.2658
13265W        W29399  13.767  10.709   1.005  0.0836 -0.0911  0.2102
13266W        W29400  18.138   9.908   0.592 -0.0620  0.0421  0.0157
13267W        W29401  13.541   3.750  15.630  0.0187 -0.0262 -0.1946
13268W        W29402   5.299   7.285   1.882 -0.2215 -0.0307 -0.1364
13269W        W29403  15.709   3.781   2.302 -0.0655 -0.1949 -0.0013
13270W        W29404  15.216   1.828   1.472  0.2600  0.3137 -0.2863
13271W        W29405   7.399   3.082   1.572  0.0349 -0.5536 -0.1788
13272W        W29406   8.643  11.986  15.941  0.0320 -0.0089  0.3578
13273W        W29407   3.733   3.236   4.226 -0.1809  0.1998  0.0934
13274W        W29408   3.717  11.989  15.151  0.0935 -0.2062 -0.4289
13275W        W29409   0.000   8.644   1.632  0.2710 -0.4167 -0.3251
13276W        W29410   8.097  13.678  11.614 -0.0031  0.1148  0.3764
13277W        W29411   3.953  16.295   2.048  0.1382  0.2405  0.2776
13278W        W29412   6.152  17.646   1.785 -0.0183  0.0054 -0.1855
13279W        W29413   7.290  10.381  11.889 -0.0584 -0.0433  0.3293
13280W        W29414  10.258   5.928  14.268 -0.0347  0.1047 -0.2988
13281W        W29415   2.604  15.656  15.958  0.1954 -0.1320 -0.0565
13282W        W29416  13.675  15.221  12.698 -0.0825 -0.2725  0.0184
13283W        W29417   6.376   2.375   0.342 -0.1109 -0.1780 -0.3887
13284W        W29418  13.999   1.677   0.167  0.2483 -0.0029  0.1023
13285W        W29419  16.486  18.164   3.448 -0.2074 -0.4477 -0.0265
13286W        W29420  16.661  13.156   1.100 -0.0425  0.0639  0.1134
13287W        W29421  17.447   1.648  15.103  0.0916  0.1452  0.0571
13288W        W29422  13.775   0.823  11.870  0.1186  0.2082  0.3746
13289W        W29423  11.981  17.132   0.298  0.2417 -0.1052  0.0524
13290W        W29424   9.841  17.536  12.249 -0.0215 -0.2981 -0.1953
13291W        W29425   1.955   2.134  12.189  0.0583  0.3825  0.2189
13292W        W29426  13.046  10.964  12.866 -0.0728  0.1215 -0.5509
13293W        W29427  11.446  15.637   3.767  0.1823  0.3070 -0.0907
13294W        W29428  17.445   6.558   2.049  0.0267  0.2506 -0.2171
13295W        W29429  18.028  15.709   4.550  0.2090 -0.1385  0.0554
13296W        W29430   1.607  17.149   0.765  0.2080  0.0145  0.1349
13297W        W29431   1.508  17.204  12.604 -0.1728 -0.1704 -0.2574
13298W        W29432  14.756  14.543   4.690  0.1463  0.1181  0.0816
13299W        W29433   8.142   9.928   1.939  0.1339  0.0256 -0.0164
13300W        W29434   0.214   0.933  11.407  0.3004 -0.0532  0.0047
13301W        W29435  13.523   9.730  12.439  0.1243 -0.1508  0.1039
13302W        W29436  11.000   6.263   0.242 -0.0381  0.0640  0.0738
13303W        W29437   4.510   4.348  15.247 -0.1516 -0.1284  0.2493
13304W        W29438   9.589   9.851  14.754 -0.1681 -0.0246 -0.4253
13305W        W29439  18.397  17.233  14.490 -0.1255 -0.1939 -0.2866
13306W        W29440   0.059  11.528   2.543 -0.2128 -0.0285  0.0415
13307W        W29441   3.228  14.856  11.780 -0.0037  0.0841 -0.5291
13308W        W29442  11.859   2.773  14.975 -0.0684 -0.2961 -0.2307
13309W        W29443  14.978  11.876   3.526 -0.2727  0.0380  0.1787
13310W        W29444  16.757  13.123   0.619  0.0604 -0.1617 -0.1459
13311W        W29445  13.225   5.407  13.362  0.1326 -0.0607 -0.1565
13312W        W29446  10.091   7.568  13.402  0.0216  0.1570  0.1330
13313W        W29447  14.913  11.766   2.414  0.2294 -0.1052  0.0237
13314W        W29448   1.845   6.384   1.426  0.0860  0.2097 -0.1449
13315W        W29449   5.108  13.618  12.932 -0.2956  0.1297 -0.2674
13316W        W29450  11.348   1.726  11.198  0.0158  0.1525 -0.1319
13317W        W29451   9.798   9.039   4.454 -0.0774  0.0094  0.1662
13318W        W29452  15.648  15.011   3.677 -0.0724 -0.1738  0.2540
13319W        W29453   8.138   7.873  13.715  0.2841  0.1724 -0.0698
13320W        W29454  16.122  16.834   2.483  0.0986 -0.0169  0.2358
13321W        W29455   6.893   7.536  14.739  0.3977  0.1242  0.0243
13322W        W29456   0.541   0.786  15.485 -0.1452 -0.1942 -0.0321
13323W        W29457   0.739  14.126  13.057 -0.0198 -0.1856  0.1100
13324W        W29458   6.915  15.917   2.271  0.0416  0.0215 -0.0098
13325W        W29459   7.981  14.629   1.649  0.2060  0.1636  0.0418
13326W        W29460   0.842  13.605  13.227 -0.2198  0.0371 -0.2072
13327W        W29461   4.608  17.623   3.212 -0.1729  0.2897 -0.2157
13328W        W29462  10.601   7.115   3.423  0.0172  0.0270 -0.1624
13329W        W29463   8.314  15.822   2.884 -0.0794  0.2330  0.2961
13330W        W29464  16.601  18.199   2.435 -0.2775  0.0994  0.3128
13331W        W29465  10.552   9.318   5.687  0.0467 -0.3544 -0.0692
13332W        W29466   2.875  14.100   0.785 -0.0721 -0.3014 -0.2079
13333W        W29467  16.016   0.550  14.556 -0.0436 -0.1339 -0.2175
13334W        W29468  14.356  10.670  13.168 -0.0619 -0.0287  0.1626
13335W        W29469  10.843   6.816   4.498 -0.0971  0.2512 -0.0027
13336W        W29470  14.420   4.370   3.386  0.2241  0.0846 -0.0437
13337W        W29471   5.718   7.152   4.974  0.1863  0.1248  0.1139
13338W        W29472  16.891  17.505  11.529  0.0619 -0.1296  0.3789
13339W        W29473  14.247   6.362  15.282  0.0327 -0.0132  0.1776
13340W        W29474   0.122   3.609   3.217 -0.0460 -0.0674  0.0579
13341W        W29475  11.515  18.114   4.949  0.0363  0.2549  0.0200
13342W        W29476  13.355  10.485  14.149  0.1885  0.1072  0.0440
13343W        W29477   9.589  11.118   4.778  0.1873 -0.2815 -0.2594
13344W        W29478  17.895   9.880   2.997 -0.0569  0.0863 -0.0438
13345W        W29479  14.531  12.249   0.092  0.0677  0.0672  0.0201
13346W        W29480   6.137  13.527   2.407  0.0499  0.0778  0.0425
13347W        W29481   8.605   3.105  14.229  0.1269  0.0067 -0.0887
13348W        W29482  12.900  16.958   2.940 -0.2172  0.4540  0.0036
13349W        W29483  10.161   7.034   3.675  0.1702 -0.0461 -0.0025
13350W        W29484   5.519  15.180   1.336  0.3928 -0.1692 -0.0310
13351W        W29485   7.765   6.889  12.204 -0.1761  0.4381 -0.0561
13352W        W29486  11.407   3.202   5.114 -0.1532  0.0853 -0.1038
13353W        W29487   4.759  13.230   2.487 -0.4632 -0.0832  0.1401
13354W        W29488  10.214  15.989   2.627  0.2616  0.1913 -0.0032
13355W        W29489  14.401  15.400   3.881 -0.1156 -0.0701  0.0494
13356W        W29490   3.586   4.100  13.871  0.3412 -0.2078  0.0811
13357W        W29491  18.064   1.382   1.525  0.2688  0.1862 -0.3286
13358W        W29492   5.357   6.838  10.339  0.0495  0.0823  0.2801
13359W        W29493  13.912  14.670   2.913 -0.2138  0.1834  0.1206
13360W        W29494  11.474  15.013  12.704 -0.1795  0.2274  0.1093
13361W        W29495  16.025   0.596   0.125 -0.3015  0.3084  0.0066
13362W        W29496  10.255   9.623  12.021  0.0355 -0.1479  0.1906
13363W        W29497  14.112  11.903  13.609  0.0471 -0.0514  0.3995
13364W        W29498  13.568  12.857  14.706 -0.0267  0.2324 -0.0981
13365W        W29499  14.385  13.624  11.862 -0.1746  0.1099 -0.3271
13366W        W29500   4.500  12.269  11.142 -0.1062 -0.2299  0.2705
13367W        W29501  16.143   9.894   1.537 -0.0266  0.1607  0.2052
13368W        W29502   7.071   9.388   4.192 -0.1532 -0.1819  0.0569
13369W        W29503  18.469  12.718  13.796 -0.1158  0.2662 -0.1025
13370W        W29504   4.090   2.441   2.736 -0.1122 -0.2153 -0.0135
13371W        W29505  17.841  16.769   2.408  0.3234 -0.1014 -0.0044
13372W        W29506   3.684   3.759   2.899  0.0283 -0.1235  0.0999
13373W        W29507   6.949   5.271  16.049 -0.3715  0.0273  0.2245
13374W        W29508   0.046  15.903  10.995 -0.0815 -0.2649  0.4820
13375W        W29509  10.537   1.765   5.437 -0.1318  0.0729  0.0448
13376W        W29510  17.097   5.939  13.152 -0.1845 -0.0630 -0.2786
13377W        W29511  16.793   5.034   2.168 -0.0458 -0.0982 -0.1775
13378W        W29512  14.213  14.314   4.502  0.1480  0.0102  0.2146
13379W        W29513   0.176   3.389  13.356  0.2051 -0.3891  0.1466
13380W        W29514  14.008   6.146  14.750 -0.0154 -0.0931  0.0331
13381W        W29515   0.928   2.102   4.834  0.1442  0.3294  0.1067
13382W        W29516  12.662  10.859   1.928  0.0554  0.2129  0.0861
13383W        W29517  12.416   5.098   1.797 -0.0673 -0.0106 -0.2070
13384W        W29518   4.408   1.892  14.355 -0.0129 -0.2227  0.1806
13385W        W29519   4.601  10.548   3.013 -0.5122 -0.2290  0.2279
13386W        W29520   0.152   1.387   0.273  0.0823 -0.1121 -0.1772
13387W        W29521  16.633   6.822  10.350  0.1394 -0.2557 -0.1305
13388W        W29522  14.839   3.992   2.001 -0.1581  0.1779 -0.1522
13389W        W29523  17.219   3.223  13.054 -0.0138  0.1017  0.0666
13390W        W29524   9.846   4.982   5.171  0.3306 -0.1405  0.0294
13391W        W29525  14.927  14.077  13.963  0.3235  0.0642 -0.3507
13392W        W29526   3.090  11.077   4.833 -0.3273 -0.2658  0.0358
13393W        W29527  16.537  16.811   1.132  0.0086  0.1005 -0.1126
13394W        W29528  12.282  11.839   5.855  0.0310  0.2501 -0.0872
13395W        W29529  11.150   0.162   1.150  0.1875  0.0885  0.0081
13396W        W29530  15.531   1.869   3.798  0.2392 -0.1102  0.1734
13397W        W29531   2.873  14.336   3.025  0.0329  0.2909  0.2411
13398W        W29532  13.611   1.818   5.000  0.2152 -0.2819  0.0709
13399W        W29533  11.920   2.588  13.925 -0.1062 -0.0534  0.1092
13400W        W29534  15.213  17.111  15.367 -0.1598 -0.3068  0.2399
13401W        W29535  16.494  16.206   0.388 -0.3177 -0.1045 -0.2609
13402W        W29536  10.207  11.444   2.367 -0.1821 -0.0327 -0.1538
13403W        W29537  17.246   5.963   3.229 -0.0289  0.2598 -0.0456
13404W        W29538   7.989   7.131   5.148  0.0942 -0.0329 -0.1034
13405W        W29539   9.963   9.273  11.884 -0.1509  0.2653  0.1414
13406W        W29540   9.686   0.041   2.017 -0.1392 -0.0622  0.0037
13407W        W29541   3.205   7.255   3.512  0.0061 -0.1090  0.2071
13408W        W29542   5.799  17.496  11.853 -0.0183 -0.4003 -0.0877
13409W        W29543  12.750  14.221  11.927  0.2401 -0.4281  0.3468
13410W        W29544  13.021   8.413   4.146 -0.2249  0.3015  0.1924
13411W        W29545   3.400  15.683   3.196  0.0015 -0.3239 -0.1727
13412W        W29546   7.560   7.731  15.809  0.0170  0.5353  0.0093
13413W        W29547  17.041  11.772   5.604 -0.0143 -0.0196 -0.1002
13414W        W29548  11.907  14.382  13.092 -0.0415  0.0954  0.2580
13415W        W29549  14.859  11.517   3.188 -0.1601  0.2793  0.0410
13416W        W29550  12.335  12.193   4.968  0.0549  0.1168 -0.0031
13417W        W29551  16.868  14.624   9.760 -0.3521 -0.0652  0.0535
13418W        W29552  17.584  11.891  13.229 -0.0110 -0.0483 -0.0459
13419W        W29553   4.410  14.973   4.715 -0.2004  0.1019  0.2788
13420W        W29554   5.256   2.677  13.466  0.0439  0.0468 -0.1676
13421W        W29555   2.372  11.925  15.907 -0.0758  0.1304 -0.0621
13422W        W29556   1.361   6.346  15.044 -0.1534  0.2751  0.0492
13423W        W29557   3.038  14.130   2.128  0.0273  0.0580  0.1698
13424W        W29558  11.676   6.558  13.749  0.0849 -0.1836  0.0971
13425W        W29559   2.122  14.483   2.285  0.0534 -0.1237 -0.4181
13426W        W29560  10.069   1.681   1.880  0.0250  0.0461 -0.0459
13427W        W29561   1.477   7.212  13.854  0.0151 -0.1085 -0.0007
13428W        W29562  13.733  10.802   4.113  0.1869  0.0874  0.0219
13429W        W29563  11.636   3.479  11.552 -0.2364  0.2001 -0.0589
13430W        W29564   6.294   7.011   0.741 -0.1995 -0.0908  0.2848
13431W        W29565  16.847   7.998   5.452 -0.0908  0.2467  0.0286
13432W        W29566   2.440  14.608  15.669  0.4511 -0.1379  0.1905
13433W        W29567  17.569   0.605   2.209  0.3484  0.4700  0.1654
13434W        W29568   6.312   0.540  10.081  0.1173 -0.0486  0.0405
13435W        W29569  12.682  14.210   1.477  0.1760 -0.3689 -0.1463
13436W        W29570  11.653  17.164  15.104 -0.1769 -0.4121 -0.0983
13437W        W29571  11.383   5.020   5.545  0.0779 -0.1385 -0.0786
13438W        W29572  16.131   5.145  12.378  0.1796 -0.0765  0.2518
13439W        W29573   2.238  16.673  15.642 -0.1214 -0.0695  0.0168
13440W        W29574   2.981   9.128  11.198  0.1960 -0.3191 -0.0257
13441W        W29575   6.814   4.497  12.502 -0.0562  0.3260 -0.1348
13442W        W29576  18.175   5.751  13.143 -0.2180  0.1285  0.2504
13443W        W29577   0.644   5.130   4.235 -0.3739  0.0879  0.2327
13444W        W29578   6.461  17.349   2.515 -0.1503  0.3463 -0.2452
13445W        W29579   9.722  12.642   4.549 -0.0795 -0.0945  0.0464
13446W        W29580  14.261  17.744  14.659 -0.1969 -0.0960 -0.4447
13447W        W29581   4.599   3.989   5.011 -0.0806 -0.0051 -0.0066
13448W        W29582  15.565  16.653   4.137 -0.1094  0.0172 -0.4048
13449W        W29583   3.497   4.572  11.216  0.0509 -0.0777 -0.1547
13450W        W29584   1.941  18.160   0.530  0.1019 -0.2291  0.1128
13451W        W29585  12.798   4.033  13.760  0.1064 -0.1941  0.1347
13452W        W29586   8.676  17.404   0.246 -0.2421  0.0320  0.2326
13453W        W29587  12.785  16.489   3.384 -0.0234 -0.0416 -0.0628
13454W        W29588   1.813   3.401  14.754  0.0410  0.0465  0.1502
13455W        W29589   2.228   8.017   1.027 -0.0171  0.0348  0.0754
13456W        W29590  11.574   1.341   3.815 -0.0912 -0.0245  0.2308
13457W        W29591   9.108  11.810   2.421  0.0679  0.3285 -0.2038
13458W        W29592  16.181  13.255   4.638  0.1409 -0.3133  0.0352
13459W        W29593  10.345  12.387  14.206  0.0592  0.0718  0.1310
13460W        W29594  11.851  15.068   2.250  0.0910  0.2682 -0.0125
13461W        W29595  13.650  12.550   5.223  0.0597  0.0033 -0.3180
13462W        W29596  11.330   6.230   5.557 -0.2116 -0.0001 -0.3428
13463W        W29597  11.993   1.559   3.921 -0.2373 -0.3855  0.0826
13464W        W29598  12.218   2.528   1.981  0.0756 -0.3112 -0.1090
13465W        W29599   7.658   6.352  15.756  0.1797  0.0433 -0.0057
13466W        W29600  10.553   0.979   0.096  0.2520  0.4156  0.0419
13467W        W29601  10.177  14.769  15.946  0.0872 -0.0848 -0.2008
13468W        W29602  10.606   1.953   4.805 -0.1449  0.2663  0.1863
13469W        W29603  16.678  11.241   2.068 -0.1343  0.0167 -0.0732
13470W        W29604   2.569   1.947  12.250 -0.1573  0.1720 -0.2081
13471W        W29605   4.804  13.996  14.868 -0.2281 -0.1269 -0.3676
13472W        W29606   8.000   6.271   3.420  0.0756 -0.0878 -0.2201
13473W        W29607  13.388  12.711  11.653  0.0877  0.0687 -0.2734
13474W        W29608   9.743  16.329  12.932  0.1622 -0.1653 -0.1289
13475W        W29609   8.153   2.440   2.880  0.2344  0.1067 -0.0591
13476W        W29610   3.967  14.125   2.206  0.0262 -0.3825  0.2321
13477W        W29611  10.818   9.152  11.503  0.1729  0.4009  0.3465
13478W        W29612   3.289  15.258   5.770  0.1979  0.0946 -0.1207
13479W        W29613   9.279   6.612   2.853 -0.4069  0.2967  0.2092
13480W        W29614   9.091   9.976   4.820 -0.1152  0.0643  0.0703
13481W        W29615  16.979  12.404  14.499 -0.1632 -0.1710  0.1360
13482W        W29616  15.537  10.390  14.505  0.2056 -0.2927  0.4124
13483W        W29617   4.766   5.127   4.491 -0.2531 -0.1108 -0.0072
13484W        W29618  10.634   3.800   0.390 -0.0861 -0.1177 -0.1360
13485W        W29619  11.756   7.720   1.640 -0.2764  0.0949 -0.0320
13486W        W29620  17.958  15.745   2.076 -0.0654  0.1332 -0.1146
13487W        W29621  10.200   0.589   0.220 -0.4586 -0.0851 -0.0038
13488W        W29622  13.822   2.820  11.478 -0.1340  0.0255 -0.2774
13489W        W29623  17.078   3.790  15.026 -0.0791 -0.0393 -0.0770
13490W        W29624  14.028  18.494   4.345 -0.1358 -0.0402 -0.0143
13491W        W29625  17.551  16.568   1.252 -0.1327  0.0653  0.0838
13492W        W29626   4.264  13.081  12.369  0.1724  0.0234 -0.0223
13493W        W29627   0.268   0.883   2.755 -0.3855  0.4320 -0.0244
13494W        W29628   3.722   8.794  15.516  0.3020 -0.0629 -0.0333
13495W        W29629   0.193  13.744  10.828 -0.1386 -0.0089 -0.2776
13496W        W29630   1.607   2.671   5.982 -0.0644 -0.0040  0.2208
13497W        W29631   9.596   2.923  13.150 -0.0614 -0.1087 -0.0444
13498W        W29632  18.037  14.662   1.999  0.0637  0.0973  0.1242
13499W        W29633  13.199   2.598  15.076  0.5238 -0.1097 -0.0100
13500W        W29634  10.836   2.372   5.292  0.1755 -0.1181  0.0964
13501W        W29635   9.957  15.821  14.356 -0.1396 -0.2572  0.1063
13502W        W29636  11.076  18.122   4.582  0.1106 -0.2499  0.1515
13503W        W29637   8.239   6.112  12.468  0.3725 -0.1411 -0.1069
13504W        W29638   0.314   2.984   2.328 -0.0406  0.0093 -0.1457
13505W        W29639  15.576   2.437   4.706  0.3439  0.3857 -0.4460
13506W        W29640   3.501  17.038  13.188  0.1491  0.1940  0.1889
13507W        W29641   9.249  12.533   3.640 -0.0522  0.0113  0.2257
13508W        W29642   6.790   3.410   3.864 -0.1627  0.0977  0.0733
13509W        W29643  16.291  15.123   4.840  0.0197  0.0293  0.3919
13510W        W29644  13.991  10.107   4.338 -0.2677  0.0309 -0.1602
13511W        W29645  14.729   5.250   4.119 -0.0916 -0.1398  0.3297
13512W        W29646   0.796  14.495   0.917  0.0079 -0.1168  0.0355
13513W        W29647  18.221   0.729  11.439 -0.0896  0.0410 -0.2170
13514W        W29648  18.443   5.663   3.861 -0.1081  0.1190 -0.2209
13515W        W29649  15.508   8.940   2.356 -0.2906  0.0304 -0.1197
13516W        W29650  18.103   4.598  14.396  0.1931  0.0768 -0.2963
13517W        W29651   5.138  10.136   3.643 -0.0752 -0.0992  0.3528
13518W        W29652  13.506   0.470   1.338  0.2321 -0.2032  0.0749
13519W        W29653   0.674   0.767   4.647  0.0974 -0.0946  0.4351
13520W        W29654   2.352   6.753   5.770  0.0694  0.1619 -0.3533
13521W        W29655   7.010   3.587   2.693  0.0470 -0.2350  0.1174
13522W        W29656  17.566   0.056  11.169  0.0396  0.2072  0.2942
13523W        W29657  10.900   4.635  14.233 -0.0053 -0.0277  0.0658
13524W        W29658   0.474  15.255  12.542 -0.0023  0.2847  0.0411
13525W        W29659  11.232   2.092  11.600 -0.3955 -0.0172  0.3214
13526W        W29660   8.883  14.141   3.473  0.1225 -0.4451  0.0440
13527W        W29661  15.766  15.284  10.976  0.3335  0.1732  0.0820
13528W        W29662  13.467  10.983  14.308 -0.1714 -0.1044  0.2577
13529W        W29663  11.691   5.298   3.144  0.2147 -0.0215  0.0945
13530W        W29664  16.319   0.520  11.512  0.0887  0.1084  0.1749
13531W        W29665   4.958  10.654   2.383  0.2159  0.2153  0.3574
13532W        W29666   3.471  16.156   3.121 -0.2181  0.0717 -0.2538
13533W        W29667  17.466   1.072  13.467  0.2194 -0.0891  0.5013
13534W        W29668   3.428  12.429   4.201 -0.1593 -0.0866 -0.0084
13535W        W29669  12.266   1.453  14.826  0.0646  0.0200 -0.1084
13536W        W29670  12.541   1.812  15.797 -0.0799 -0.0907  0.1624
13537W        W29671  13.040  18.063  16.011 -0.3270  0.2427  0.0081
13538W        W29672   1.872  11.271   3.450 -0.0491  0.1154  0.0549
13539W        W29673   2.700   5.867  14.168 -0.2234 -0.2243  0.0611
13540W        W29674   7.194  14.286  15.238  0.1191  0.0053  0.1064
13541W        W29675  16.975   5.178   3.252  0.0379  0.4925 -0.1214
13542W        W29676  13.136  16.206   4.196 -0.2295 -0.0252 -0.0234
13543W        W29677   1.714   0.018   2.300 -0.0120 -0.2730  0.0270
13544W        W29678   8.205   8.701   4.836  0.2765 -0.1434  0.3882
13545W        W29679  10.719   5.898   4.512 -0.4340 -0.1000  0.1795
13546W        W29680   9.361   5.833  13.865  0.0764  0.0290 -0.2880
13547W        W29681   0.718  15.267  14.347 -0.2016  0.2109 -0.2390
13548W        W29682   2.652   9.280   0.902 -0.1953 -0.2962 -0.0504
13549W        W29683   2.265   5.130  11.598 -0.0864 -0.0542  0.0402
13550W        W29684   2.323   8.535   3.508  0.3056 -0.0205  0.1037
13551W        W29685  17.069   8.561   4.353  0.1322 -0.2995  0.1845
13552W        W29686  12.367  14.719   3.450 -0.0304 -0.2933 -0.0667
13553W        W29687   2.099   6.246  12.272  0.0746  0.0090  0.2252
13554W        W29688   0.207   8.544   5.509  0.0846  0.0733 -0.1707
13555W        W29689  18.276  16.418  12.440  0.0195 -0.0659  0.1185
13556W        W29690   9.002   1.353   6.199  0.2654  0.1131 -0.0661
13557W        W29691   3.038  13.870  15.806 -0.0187  0.1116  0.3500
13558W        W29692   3.838   4.185  15.020  0.1486  0.2767 -0.1375
13559W        W29693  17.817  16.860  13.276  0.2573 -0.2400  0.0510
13560W        W29694  11.521  11.887  15.385 -0.1724 -0.0575 -0.0166
13561W        W29695  15.094   0.598   0.347  0.4085  0.2486  0.1294
13562W        W29696   4.385  15.026  14.470  0.1979  0.4128  0.0606
13563W        W29697   4.009  13.550  12.586  0.0896  0.0461  0.0695
13564W        W29698   1.898   8.922   4.991  0.2233 -0.0793  0.2114
13565W        W29699   8.320   3.938  12.244 -0.1110 -0.2942  0.0795
13566W        W29700  17.684  12.169   4.187 -0.2064  0.0383  0.0555
13567W        W29701   0.146  18.454   1.608 -0.1485 -0.1733 -0.1208
13568W        W29702  14.526  10.908   4.436  0.2325  0.1041  0.1113
13569W        W29703   4.918   0.614  13.142 -0.2620 -0.1012  0.0664
13570W        W29704   0.147   9.762   3.669 -0.2802  0.3473 -0.1858
13571W        W29705   3.309  11.375  11.545  0.2546  0.2201 -0.3105
13572W        W29706   7.636   9.163  14.292  0.0508  0.1283 -0.2962
13573W        W29707   9.191   7.195  14.233 -0.1619  0.0615  0.0086
13574W        W29708   5.448  16.824  12.736 -0.1206  0.3023 -0.1001
13575W        W29709   2.228   1.639   6.289  0.0768 -0.1372 -0.0294
13576W        W29710  15.117  10.943   0.529  0.0818  0.3680  0.2330
13577W        W29711  16.936  15.197  14.802  0.0001  0.0193  0.0483
13578W        W29712  14.745  14.273   0.088 -0.2205 -0.1021 -0.0389
13579W        W29713   7.332  12.557  11.205  0.1892  0.0260 -0.2591
13580W        W29714   1.637   5.439  11.353  0.2384 -0.0223 -0.0744
13581W        W29715   2.839   6.973   0.979 -0.0457 -0.1917  0.0752
13582W        W29716   4.442   5.284   2.062 -0.3304 -0.1459 -0.4723
13583W        W29717  10.884  12.389  10.598  0.0647 -0.3067 -0.1857
13584W        W29718  17.480  11.627  15.815  0.1544  0.2529 -0.1313
13585W        W29719  10.525   0.246   2.059  0.0828 -0.1576 -0.1344
13586W        W29720   7.673   8.853  11.568 -0.3608  0.2742  0.1853
13587W        W29721   6.738  17.676   3.970 -0.3289 -0.1450 -0.0935
13588W        W29722   4.230  11.352  15.838 -0.1430  0.0858 -0.2310
13589W        W29723   1.813  15.962   1.774 -0.0508 -0.3603  0.1418
13590W        W29724   5.220  11.617   4.564 -0.2435 -0.4246  0.0504
13591W        W29725   8.745   3.270   5.612 -0.0373 -0.0785  0.0369
13592W        W29726   9.891   6.607  14.355 -0.2291 -0.1070  0.4034
13593W        W29727   1.927  13.143   0.625  0.0513 -0.0612 -0.0526
13594W        W29728  13.601  16.813   0.663 -0.1208  0.1075  0.2449
13595W        W29729   4.127  12.845   1.932  0.0103  0.1508  0.3991
13596W        W29730  17.161  15.797   4.260 -0.1368  0.3622  0.2123
13597W        W29731  11.352  13.650   3.813  0.3629 -0.1820  0.0004
13598W        W29732   5.900   0.868  15.313 -0.3541 -0.1092 -0.0743
13599W        W29733  18.252  13.738  10.666 -0.0497  0.4028 -0.0332
13600W        W29734   5.042   7.481  12.381 -0.2134 -0.1416  0.3379
13601W        W29735  10.799   2.734  13.873 -0.0625  0.1224  0.1816
13602W        W29736  16.789  11.508   1.633 -0.0760 -0.1520  0.4001
13603W        W29737   1.374  17.534   3.519 -0.1044 -0.2521 -0.1248
13604W        W29738   3.297   7.120   3.022  0.0890  0.2007  0.2084
13605W        W29739   4.954  17.350  15.541  0.1521  0.0132 -0.1694
13606W        W29740  13.589  11.668  15.873 -0.1440  0.2429 -0.0921
13607W        W29741  17.734   7.027   1.208 -0.1609 -0.2268  0.2374
13608W        W29742  12.577   8.532   3.968 -0.2537  0.2584 -0.0309
13609W        W29743  15.471   4.015   4.380 -0.1984  0.1888 -0.0739
13610W        W29744  17.604   8.264  15.768 -0.0510  0.1023  0.0730
13611W        W29745   2.841  12.139   2.604 -0.1362  0.1618  0.1618
13612W        W29746  11.725  16.843  14.246  0.0753 -0.0532  0.2899
13613W        W29747   6.386   1.454  12.956 -0.0619 -0.1422 -0.0974
13614W        W29748   2.010  10.678  15.524 -0.0771  0.1547 -0.1611
13615W        W29749   8.546  13.738  12.266  0.1680 -0.1427  0.4275
13616W        W29750  16.158  17.518  14.478 -0.3742 -0.1623 -0.3412
13617W        W29751  11.266   2.092   1.359 -0.0903  0.3569  0.0154
13618W        W29752   2.193  16.665   2.765  0.0079  0.1298 -0.1633
13619W        W29753   3.359  13.720   3.648  0.0244  0.0078  0.1636
13620W        W29754   3.115   7.170   0.503 -0.1100  0.1856  0.0103
13621W        W29755  12.328  11.447  11.123 -0.2436  0.1804  0.3248
13622W        W29756  13.265   9.129   2.065  0.2775  0.1695 -0.1111
13623W        W29757   9.781   9.332  11.383 -0.1579 -0.3074 -0.0710
13624W        W29758  16.427   2.368  15.663  0.1987 -0.0918 -0.3074
13625W        W29759   5.950  17.937  12.037  0.2213  0.0500  0.2404
13626W        W29760   8.306   9.123  13.245 -0.1831  0.2305  0.0790
13627W        W29761  14.004   7.503   0.332  0.2725  0.0552  0.0343
13628W        W29762   1.875   2.217   3.682 -0.0989  0.0183 -0.1988
13629W        W29763   2.375  10.202  15.224  0.0743 -0.1587 -0.2403
13630W        W29764  12.990   0.601   4.121  0.0030  0.2848  0.2062
13631W        W29765  12.893  14.607   4.029  0.2615  0.1615  0.0093
13632W        W29766  15.135   9.087  14.035 -0.0360  0.2484  0.1169
13633W        W29767  17.876  16.033  14.106  0.0317  0.1401  0.0328
13634W        W29768  18.101   3.112   1.429  0.0716 -0.0728 -0.2231
13635W        W29769  15.137  10.981  16.091 -0.0132  0.2287  0.3570
13636W        W29770   0.523  14.853   3.614  0.0374  0.3424 -0.0130
13637W        W29771   4.098   3.333  15.322  0.0022  0.1696  0.0991
13638W        W29772   9.938  15.632   1.853 -0.0248 -0.1315 -0.3877
13639W        W29773  16.258   9.424  11.617  0.0890  0.1193 -0.1416
13640W        W29774   2.765   7.854   9.943  0.1943 -0.0375 -0.1356
13641W        W29775   6.634  10.266   0.928 -0.0386  0.3879 -0.0546
13642W        W29776   7.857   0.135   3.168 -0.1492  0.0300 -0.1768
13643W        W29777  17.275  15.917   0.318  0.2419  0.1293 -0.0641
13644W        W29778  10.006   3.665   4.783 -0.0807 -0.2480  0.0109
13645W        W29779   5.305  11.347   3.566  0.2564 -0.1463 -0.2325
13646W        W29780   3.972  12.854  13.934  0.1737 -0.0429 -0.1002
13647W        W29781  14.195  11.727   5.179  0.0099 -0.2581  0.1578
13648W        W29782   7.407  16.729  12.136 -0.4152  0.1776 -0.2400
13649W        W29783  12.999  18.024   2.244  0.0689 -0.2517  0.1528
13650W        W29784   2.080  17.515  14.543  0.1442 -0.3571  0.0863
13651W        W29785  11.390   1.624   5.154  0.0170 -0.1369  0.0910
13652W        W29786   2.207   7.371   3.544 -0.1929 -0.0478  0.0661
13653W        W29787   1.788  12.496  11.936  0.1597 -0.0796 -0.0473
13654W        W29788   3.429   4.901   0.897 -0.2006 -0.3515  0.0025
13655W        W29789   2.464   4.949  12.197  0.0105 -0.2163  0.0125
13656W        W29790  13.004  17.321  15.286 -0.2868  0.2220  0.2782
13657W        W29791  18.277   9.798  12.671  0.1634 -0.0151  0.1197
13658W        W29792  18.318  15.819  14.091 -0.1532  0.1564  0.0758
13659W        W29793   9.216  16.683   4.495 -0.0634 -0.1222  0.0499
13660W        W29794   2.795   4.328   0.821 -0.0334 -0.3280  0.1822
13661W        W29795   6.612  11.079   1.528 -0.0313  0.3356  0.2637
13662W        W29796   9.283  18.303   1.076 -0.0757 -0.1059 -0.0218
13663W        W29797  10.056   8.327  12.273  0.0118 -0.0192  0.3600
13664W        W29798   1.695  15.034   1.588  0.1386  0.4420 -0.0687
13665W        W29799   8.233  13.482  13.203  0.1118  0.3211 -0.0532
13666W        W29800   9.676   2.823   2.341 -0.1258 -0.0106  0.0693
13667W        W29801  14.140   3.761   4.397  0.1341 -0.0690  0.0392
13668W        W29802   9.361  12.463  12.193  0.2345  0.1034 -0.0638
13669W        W29803  14.140   8.146  13.518  0.1046  0.3326 -0.1561
13670W        W29804   6.429  17.973   2.541 -0.0482  0.1522 -0.2924
13671W        W29805  16.147  13.603   0.166 -0.1028  0.1715  0.0364
13672W        W29806  17.447   9.309  15.420  0.2054 -0.1774 -0.3457
13673W        W29807   2.276   3.836   0.322  0.2328  0.1480 -0.0858
13674W        W29808   7.207  10.608  14.009 -0.0671 -0.1348  0.0495
13675W        W29809  11.423  17.558   3.746  0.3162 -0.1754  0.0809
13676W        W29810  14.971  14.939  11.549 -0.1281  0.2704 -0.1291
13677W        W29811   6.762  13.094  13.281  0.0880 -0.2443 -0.1616
13678W        W29812  17.184  13.880  15.777  0.3424 -0.1666 -0.0439
13679W        W29813  16.208   9.389   1.640 -0.0261 -0.0502 -0.0877
13680W        W29814  18.435  10.802   5.338  0.0609  0.2864 -0.1500
13681W        W29815   8.469   9.740   2.326 -0.1331 -0.0933 -0.4066
13682W        W29816  11.478   1.000  15.104 -0.1611 -0.1366 -0.2348
13683W        W29817   8.026  13.816   0.532 -0.1205  0.2129 -0.0157
13684W        W29818  10.822  11.027   3.138  0.0362 -0.0784  0.0494
13685W        W29819   3.754   9.117  15.939  0.1048  0.2798 -0.5336
13686W        W29820  10.820  12.903   2.876  0.3144 -0.2719  0.1527
13687W        W29821  16.391   1.611   5.274  0.2637 -0.1465 -0.0488
13688W        W29822  17.201   9.986  13.026  0.2236 -0.1970 -0.1831
13689W        W29823   4.233  11.610   0.550 -0.0961 -0.0830 -0.1636
13690W        W29824   7.778  10.443  12.883 -0.0990  0.0647  0.0201
13691W        W29825  14.423  11.172  14.271  0.0102  0.2310  0.0237
13692W        W29826   5.381  14.710  14.304  0.0806  0.0138  0.2012
13693W        W29827   2.338  10.107  13.439 -0.1506  0.0938  0.3968
13694W        W29828   5.857  10.540  13.190  0.1499  0.2756 -0.1444
13695W        W29829  11.820  16.480   4.516  0.1662  0.0486 -0.1540
13696W        W29830   8.987   9.697   2.196 -0.0236  0.1433  0.2551
13697W        W29831   2.670  16.911  11.011 -0.3636 -0.1835 -0.2064
13698W        W29832   4.234  16.313   2.519 -0.0318 -0.1850  0.1570
13699W        W29833   7.294   7.065  14.031 -0.5133  0.0477  0.1037
13700W        W29834  11.966   0.123   0.565 -0.3083  0.0570 -0.0961
13701W        W29835   7.029  15.271   0.262  0.1062  0.3275 -0.1529
13702W        W29836   6.171  11.667   2.358  0.0035  0.1463  0.1165
13703W        W29837   6.828   0.089  13.573  0.2098 -0.0461  0.0246
13704W        W29838   4.289  16.285  14.012  0.0980 -0.1003 -0.1163
13705W        W29839   7.392  11.072   5.032  0.1262  0.0105  0.0780
13706W        W29840   6.817  18.019   0.568  0.0365  0.0028  0.2013
13707W        W29841  14.174  12.200   0.541  0.0759 -0.0205  0.1662
13708W        W29842  18.007   3.705  13.948  0.3506  0.0076  0.2137
13709W        W29843  14.498   1.676   0.115 -0.0551 -0.1632 -0.1058
13710W        W29844  10.260   4.145   2.616 -0.1714 -0.2374 -0.0473
13711W        W29845  13.907   3.179  12.077 -0.1671  0.0778 -0.1067
13712W        W29846  17.200   3.574  14.531 -0.0580 -0.0789  0.0579
13713W        W29847   5.528   3.587   5.691 -0.0556 -0.2563 -0.4943
13714W        W29848   3.997   9.380  14.416  0.0614  0.0545  0.1728
13715W        W29849  16.033  11.206  11.864  0.1180  0.2159 -0.2798
13716W        W29850   6.147  16.724  12.280 -0.0674 -0.0074  0.2066
13717W        W29851   8.070   5.491   6.202  0.2466 -0.4956  0.1200
13718W        W29852   3.153  10.867  13.744 -0.1120  0.1203 -0.4157
13719W        W29853   3.474   2.835  12.344  0.1354 -0.1868  0.3359
13720W        W29854   9.887   3.154   4.961 -0.1683  0.2924  0.1167
13721W        W29855  12.616  14.521  10.862  0.1831 -0.1278  0.0744
13722W        W29856  16.142  17.632  13.213  0.1837 -0.0669 -0.1143
13723W        W29857  18.252   2.226  12.233  0.2350  0.2988 -0.0494
13724W        W29858   7.204  12.132  12.308 -0.2254  0.0336 -0.3408
13725W        W29859   2.813   5.699   5.223 -0.0084 -0.0710  0.1911
13726W        W29860   4.297  17.322  11.129 -0.0938 -0.0905 -0.0775
13727W        W29861  16.008   3.631  14.105  0.1943 -0.4699 -0.2103
13728W        W29862  10.673   4.220  12.214  0.0184 -0.2060  0.0988
13729W        W29863  14.545   6.511   0.335 -0.1640 -0.0081 -0.2286
13730W        W29864   1.124   0.072   0.094  0.1261 -0.1791 -0.1569
13731W        W29865   4.849  12.636   4.007  0.0563 -0.0087 -0.1477
13732W        W29866   4.484   3.344  11.798 -0.1472 -0.0348  0.0573
13733W        W29867   4.717   6.016  14.462 -0.3578 -0.0399  0.1290
13734W        W29868  14.671  17.294  16.018 -0.2211  0.1434  0.0941
13735W        W29869   4.374   9.115   4.111 -0.0055  0.2934  0.2450
13736W        W29870  10.058   2.861   4.131  0.1824  0.1317 -0.1188
13737W        W29871  10.055  12.982  12.144  0.2098 -0.1805  0.0017
13738W        W29872  17.419   5.251   2.054  0.1056 -0.2188  0.2053
13739W        W29873  12.158   1.003  13.326  0.2847  0.1171 -0.1861
13740W        W29874   3.780  15.734  14.979 -0.1067 -0.2608  0.2223
13741W        W29875   3.328  16.011  15.071  0.0626  0.0846  0.1639
13742W        W29876   1.877  17.812  13.095  0.0687 -0.3272  0.1218
13743W        W29877  17.891   3.301  15.270  0.1785  0.1572 -0.1898
13744W        W29878  13.110  14.821   2.796 -0.0839  0.1056  0.3170
13745W        W29879  14.288  17.497   1.142 -0.3294  0.1933 -0.0445
13746W        W29880   5.267   6.303   0.825 -0.1569 -0.0539  0.0686
13747W        W29881   7.956   9.141  15.498 -0.2370  0.4165  0.1605
13748W        W29882  11.890   3.791  15.982  0.0377  0.2338  0.0544
13749W        W29883  12.065  14.338   1.378 -0.3342 -0.1006 -0.0264
13750W        W29884   5.106   8.023  12.641 -0.0948  0.0126  0.1567
13751W        W29885   8.640   8.239   4.022 -0.1757 -0.2114 -0.0769
13752W        W29886   9.197   9.810  12.524  0.1412 -0.2696 -0.1859
13753W        W29887   1.385   4.168  15.237  0.1957 -0.2041  0.0896
13754W        W29888   4.664  16.364  12.460 -0.1276 -0.0944 -0.0942
13755W        W29889  14.160   9.153  14.267 -0.2454 -0.4622 -0.1242
13756W        W29890  13.516  16.276   5.882  0.3353  0.0934 -0.1611
13757W        W29891   3.262  13.326  13.102 -0.0495 -0.2188 -0.2205
13758W        W29892  13.594   5.568   6.207 -0.2018  0.0596 -0.1121
13759W        W29893  14.014   1.178  13.343 -0.1136  0.0530  0.2261
13760W        W29894   7.310   0.538  14.810  0.1771  0.0385 -0.2077
13761W        W29895   1.634   0.894  11.680  0.1000  0.1845 -0.1391
13762W        W29896   5.741   2.575  11.728  0.1379 -0.0372  0.0778
13763W        W29897  15.874   4.605   2.970  0.0518  0.1802 -0.0673
13764W        W29898   2.945   1.957  14.369  0.0641 -0.5227  0.2101
13765W        W29899   0.975   2.857  15.900  0.0104  0.0550  0.2179
13766W        W29900  15.821  17.638  14.066  0.0984 -0.2562 -0.0374
13767W        W29901  10.873   3.730  14.951 -0.0101  0.0386 -0.2176
13768W        W29902   9.466   7.163   0.623  0.4200  0.2846 -0.1327
13769W        W29903   0.888  13.676  15.824  0.0173  0.1731 -0.1754
13770W        W29904   6.572  10.889  14.577  0.0713  0.0856  0.1089
13771W        W29905  15.129  17.547  12.990 -0.0237 -0.0472  0.0048
13772W        W29906  14.615   5.996  12.426 -0.1594  0.1264 -0.0385
13773W        W29907  14.825  13.596  12.146  0.1796 -0.0518 -0.1977
13774W        W29908  13.949  10.960   5.209  0.2089 -0.3638  0.2069
13775W        W29909  10.221   9.777   1.048 -0.0307  0.0671 -0.0118
13776W        W29910   8.001  15.898  12.035 -0.1648  0.0615 -0.1764
13777W        W29911  17.646   0.831  14.952 -0.1764  0.1555  0.0775
13778W        W29912  13.708   4.671  11.984 -0.0936 -0.3443 -0.2146
13779W        W29913  17.156   0.754  15.316 -0.2309 -0.0693  0.4833
13780W        W29914  12.157  10.506  15.779 -0.4664  0.5556 -0.2330
13781W        W29915   9.715  10.773   5.671 -0.1289  0.2251  0.1866
13782W        W29916  16.229  13.570   1.157 -0.2099 -0.0170 -0.1401
13783W        W29917  14.024  11.552   3.800 -0.0578 -0.1170  0.1020
13784W        W29918   4.838   4.831  11.070  0.0786  0.2222 -0.1206
13785W        W29919   6.882   8.473   1.673  0.0879  0.1547  0.1566
13786W        W29920  18.479   6.114  12.934  0.0834  0.1194  0.2779
13787W        W29921  10.299   5.484   5.219  0.1588 -0.3499 -0.2123
13788W        W29922  17.381   5.552  14.107 -0.0024 -0.2574  0.3304
13789W        W29923   5.684  17.912   4.906  0.0343  0.1640  0.0034
13790W        W29924   3.871   6.484  15.202  0.0310  0.0675 -0.0105
13791W        W29925   9.129   6.222  15.575  0.1698 -0.1245 -0.0640
13792W        W29926  10.670  11.783  13.647 -0.0197 -0.1106 -0.3669
13793W        W29927  14.959   5.621   1.260 -0.2998  0.0902 -0.0379
13794W        W29928   2.503   7.133  13.172  0.0083 -0.1838 -0.0118
13795W        W29929  17.837   7.105   2.517 -0.4777  0.1331  0.1763
13796W        W29930  13.894  10.246   5.684  0.1879 -0.1917 -0.1903
13797W        W29931  17.894  16.639  13.770  0.0080  0.1879 -0.1021
13798W        W29932  15.260  17.813   1.531  0.0376  0.0750  0.1566
13799W        W29933  14.099  13.933   4.890  0.0777  0.1044  0.0259
13800W        W29934   3.718  16.158  13.968  0.0140  0.0093  0.0274
13801W        W29935   6.501   1.256  13.373 -0.0463  0.1357 -0.4097
13802W        W29936  10.182   9.503   4.048  0.3214 -0.2592 -0.0926
13803W        W29937   2.484   2.387  12.424 -0.1093  0.1434  0.1390
13804W        W29938  17.841   1.464  11.920  0.0570  0.1877  0.0147
13805W        W29939   8.321   7.105   4.650 -0.3702 -0.2814 -0.2105
13806W        W29940  13.260  11.313  15.653  0.0098  0.2402 -0.0040
13807W        W29941   4.358   6.183  12.204  0.1712  0.0216  0.2135
13808W        W29942   2.333   5.586  15.874 -0.2846  0.0996  0.0826
13809W        W29943  17.370  10.394   0.467 -0.1976 -0.4902  0.0537
13810W        W29944  17.877   8.925  13.768 -0.1431  0.1006  0.0017
13811W        W29945  16.925   8.132   4.575 -0.0606  0.3786  0.0282
13812W        W29946  11.733  14.616  12.590 -0.1537  0.0940 -0.3279
13813W        W29947  15.145   5.055   4.433 -0.1998 -0.1950  0.0861
13814W        W29948   0.831  14.941  10.709 -0.0738 -0.1287 -0.1881
13815W        W29949   4.173  14.471   3.379  0.0080 -0.0851 -0.3247
13816W        W29950   7.577  10.517  15.951  0.0173 -0.1625 -0.2004
13817W        W29951   7.629   7.038   2.918 -0.2245 -0.1472 -0.1133
13818W        W29952  15.189   5.500   4.885 -0.2193 -0.0409  0.1133
13819W        W29953  16.357  11.480  12.118 -0.0242  0.2858  0.1563
13820W        W29954  12.404   3.019   4.328 -0.3412 -0.2366 -0.1234
13821W        W29955   4.762  11.585   3.931  0.0416  0.0296  0.1350
13822W        W29956   4.868  10.436  14.205 -0.3284 -0.2965  0.1512
13823W        W29957   2.071   0.856  11.946 -0.0376  0.0283 -0.1121
13824W        W29958   0.771   4.078   1.693  0.0463 -0.3900  0.2969
13825W        W29959  13.473   4.436   2.840 -0.0915 -0.0829  0.0018
13826W        W29960   4.759  14.561   2.692  0.2087 -0.3570  0.2556
13827W        W29961   0.395   8.957   1.750  0.0145  0.1852 -0.0667
13828W        W29962  10.939   4.087   3.948 -0.3562  0.1796 -0.0372
13829W        W29963   5.115   4.167   5.048  0.4295  0.2146  0.1251
13830W        W29964   4.455  16.004   3.756  0.0150 -0.3849  0.2648
13831W        W29965  17.914   9.416  12.460 -0.1460 -0.0573  0.0662
13832W        W29966   8.350  11.475   3.320  0.3313  0.2040  0.0007
13833W        W29967  17.835  17.772  11.772  0.0860 -0.2010 -0.1762
13834W        W29968  13.093   6.892   2.227 -0.0788 -0.0174 -0.0377
13835W        W29969   5.591   4.584   3.190 -0.2391 -0.0463 -0.2941
13836W        W29970   8.451  18.457  14.983 -0.1125 -0.0889 -0.1054
13837W        W29971   0.716   7.049   0.771 -0.0684  0.1246 -0.3600
13838W        W29972   0.967   3.229   4.881  0.1758  0.1456  0.1225
13839W        W29973   9.269   1.619  15.963 -0.3802  0.1788 -0.1844
13840W        W29974   7.439   4.201  11.961 -0.2853  0.1255 -0.0554
13841W        W29975  16.872  12.664   2.053  0.2208  0.0306  0.5778
13842W        W29976   6.452  15.367  11.340  0.0424 -0.0786  0.4195
13843W        W29977  14.148  15.099   5.139  0.1800 -0.2075  0.1370
13844W        W29978   7.043  15.657  13.758  0.0907  0.1002 -0.2394
13845W        W29979  12.409  18.403   2.210 -0.1519 -0.3005  0.0893
13846W        W29980   3.600  16.199  12.726  0.0111  0.0812 -0.1640
13847W        W29981  18.186   4.179  14.141  0.3869 -0.0623 -0.0803
13848W        W29982   3.822   4.121   2.539 -0.4019 -0.2694 -0.2347
13849W        W29983   5.984   3.360   3.101 -0.3648 -0.1260  0.1038
13850W        W29984   3.500   6.595  13.998 -0.2940  0.3545  0.0031
13851W        W29985   8.052  11.501  15.531 -0.2424 -0.1346 -0.2225
13852W        W29986   8.871   9.277   4.236  0.1126 -0.0796  0.3061
13853W        W29987  14.452   1.695  14.578  0.0389  0.3859  0.0247
13854W        W29988   7.916   1.185  14.967  0.0371 -0.2696 -0.2698
13855W        W29989   0.518  16.320   1.014  0.0391 -0.1314  0.0789
13856W        W29990   0.517  14.672  13.161  0.1193  0.0801 -0.0243
13857W        W29991   8.646  16.551  14.280 -0.0842 -0.1896 -0.1321
13858W        W29992  17.357  17.856   3.450  0.0245 -0.1453  0.1340
13859W        W29993  15.808  16.305   5.588 -0.2056 -0.2635 -0.1470
13860W        W29994   7.376  10.676   5.293 -0.1546 -0.0949  0.0885
13861W        W29995  15.971   0.025  12.315  0.0149  0.1039 -0.0506
13862W        W29996  15.762   4.648  15.015 -0.0797  0.1565 -0.3549
13863W        W29997  11.266   0.956   4.432 -0.3030 -0.0815 -0.0870
13864W        W29998  13.562   2.898  12.494 -0.0676 -0.2658  0.1571
13865W        W29999  16.564  10.627   1.664  0.0320  0.2349  0.4416
13866W        W30000  17.694   2.758  14.307  0.0657  0.3492 -0.3435
13867W        W30001  10.249   7.405   4.061 -0.0259 -0.2224  0.2898
13868W        W30002   6.278   9.570   1.994 -0.3028  0.0851 -0.2416
13869W        W30003  12.023  10.492  13.116 -0.1859 -0.2471 -0.3048
13870W        W30004   3.877   6.476  11.069 -0.2658  0.1288 -0.3834
13871W        W30005   6.532   8.213   6.013  0.1118  0.3578 -0.1221
13872W        W30006  17.723   3.241  10.797 -0.0411  0.2992  0.2481
13873W        W30007   1.747   8.561   2.565 -0.3552  0.3146 -0.2076
13874W        W30008  10.019   8.572   2.873 -0.0671  0.3221 -0.0003
13875W        W30009   3.977   5.735  11.020  0.0461 -0.1234 -0.0400
13876W        W30010  16.756  14.518  12.019 -0.0951 -0.0428  0.3832
13877W        W30011   9.685   3.307  15.871  0.0765 -0.4462  0.0995
13878W        W30012   8.315   5.993   6.529 -0.3863 -0.0742  0.0595
13879W        W30013  17.719  11.257  14.500 -0.0254  0.0586 -0.0916
13880W        W30014  12.924  17.837   2.677 -0.3081 -0.2961  0.0452
13881W        W30015   4.123  15.151  15.312 -0.2808 -0.0946 -0.0863
13882W        W30016  11.467  16.796   4.376 -0.1223 -0.0884 -0.0953
13883W        W30017  17.220  11.535  13.247 -0.0832  0.1554 -0.1893
13884W        W30018   7.877   7.288  12.638 -0.1605  0.0545  0.1039
13885W        W30019   8.757   9.587  14.621 -0.1508 -0.2138  0.0352
13886W        W30020   2.062   7.239  12.893  0.3485  0.2458 -0.1969
13887W        W30021   2.714  13.405   3.337 -0.0212  0.0579 -0.0769
13888W        W30022  15.850   5.909   2.705 -0.0961  0.2276 -0.0732
13889W        W30023   2.707  12.509   3.558 -0.1687 -0.0764  0.1238
13890W        W30024  11.954   5.925   0.619 -0.2568 -0.2115  0.2175
13891W        W30025   5.178  12.219   5.159 -0.6185  0.0914  0.4320
13892W        W30026  18.424   4.611  15.377  0.1758 -0.1408 -0.1377
13893W        W30027  11.081  12.935  11.735 -0.1569 -0.2377 -0.1873
13894W        W30028  10.454   5.182  14.496  0.0697 -0.4506  0.1762
13895W        W30029  12.403  14.379   3.899 -0.3673  0.0556  0.0762
13896W        W30030  12.376   0.309  13.087  0.0277  0.3563  0.0094
13897W        W30031   3.375   1.188  11.628  0.2873 -0.0443 -0.2846
13898W        W30032   6.743  13.161  14.622 -0.1655 -0.2542 -0.5226
13899W        W30033   1.374   0.484  12.702  0.3976 -0.1512  0.0227
13900W        W30034   8.783   2.640  14.021 -0.1192 -0.0597 -0.1368
13901W        W30035  14.325   0.804   3.354  0.0967  0.0897 -0.1699
13902W        W30036  10.976   1.167  13.783  0.0437  0.0756  0.1418
13903W        W30037  10.535   8.693   3.095 -0.0386  0.3511  0.0081
13904W        W30038   4.643   7.619  10.958  0.0389  0.1268 -0.2289
13905W        W30039   6.228  15.611   3.849  0.3272  0.1988  0.2837
13906W        W30040  10.510   1.468   2.821 -0.1999  0.0004 -0.0193
13907W        W30041   3.444   6.038   4.578  0.0176  0.1202  0.0447
13908W        W30042   5.045   4.000  10.987  0.0969  0.0665 -0.2770
13909W        W30043   8.255   9.675   6.013  0.0362  0.1501 -0.1695
13910W        W30044  17.818  13.269   5.093  0.1714  0.3359 -0.0023
13911W        W30045   9.670  18.143   3.424  0.0779 -0.0710 -0.3648
13912W        W30046  13.167   8.946  11.646  0.2156  0.3256 -0.0589
13913W        W30047   4.508   9.108  10.964 -0.1958 -0.1536  0.0451
13914W        W30048  17.233   0.307   0.961 -0.0008  0.1772 -0.0995
13915W        W30049   9.301   6.275   4.830 -0.0111 -0.2350 -0.2248
13916W        W30050   0.804  12.774   0.626 -0.1561 -0.3877  0.1548
13917W        W30051  12.639   7.851   0.795  0.0049  0.0541  0.0951
13918W        W30052  11.912  10.158  14.506  0.0553 -0.0879 -0.3153
13919W        W30053  15.555   9.965   5.587 -0.1227  0.0167 -0.0540
13920W        W30054   2.646  16.974  14.575 -0.0038 -0.2938  0.1147
13921W        W30055  15.931  12.804  12.541 -0.0421 -0.0931 -0.0253
13922W        W30056   6.101   0.376  15.570  0.0137  0.0015  0.0273
13923W        W30057  14.569  15.164   0.106  0.0683  0.3722  0.2121
13924W        W30058   2.424   8.010  14.316  0.3906  0.3344  0.1508
13925W        W30059  11.090  10.206  15.210  0.1446  0.0228  0.1728
13926W        W30060  12.216   3.209  14.490 -0.2969  0.2166  0.2420
13927W        W30061   9.313  15.523   5.522  0.3949 -0.0462 -0.1587
13928W        W30062   0.481   0.210  10.725 -0.0277 -0.0964  0.2868
13929W        W30063  15.622  17.754   3.869 -0.0353 -0.0615  0.1147
13930W        W30064   6.492   8.943   0.910 -0.1630 -0.3377 -0.0796
13931W        W30065  11.944  11.840  11.845  0.1425 -0.3278  0.1337
13932W        W30066  12.448  17.476  11.301  0.0909 -0.1252 -0.1441
13933W        W30067  17.450  15.650  15.906 -0.3697  0.0867 -0.2136
13934W        W30068   0.893   7.658  14.021  0.0171  0.0747  0.2775
13935W        W30069   4.370  17.368  15.019 -0.2406  0.0644 -0.2997
13936W        W30070  16.401   4.828   0.029  0.2436 -0.0338  0.3065
13937W        W30071   2.863  17.608  11.737 -0.0947 -0.0234 -0.1263
13938W        W30072   3.040   6.903   4.414 -0.0003  0.4109 -0.0182
13939W        W30073  17.474  14.423   1.844  0.3183  0.1065 -0.2615
13940W        W30074  12.660   6.119   4.736  0.0684  0.0859  0.1888
13941W        W30075   6.184   1.055  11.044 -0.2018  0.1013  0.0636
13942W        W30076   8.039  14.026   0.045  0.2625 -0.2025  0.0329
13943W        W30077   3.296   9.677   4.549  0.2126  0.2558 -0.1627
13944W        W30078   6.351  15.113  12.618 -0.1096  0.1441 -0.2988
13945W        W30079   2.967   6.762  12.739  0.0653  0.0703  0.0569
13946W        W30080  12.349   2.890   1.099  0.0909  0.1944  0.4003
13947W        W30081   1.352  15.395   2.344  0.0652  0.2088  0.0024
13948W        W30082   3.137  17.806   3.270 -0.5170  0.0768  0.0382
13949W        W30083   2.719   5.223  11.783  0.1327 -0.0573 -0.4430
13950W        W30084  17.531  10.982  10.097 -0.2318 -0.1650  0.3449
13951W        W30085   3.443   8.179   2.054  0.0846 -0.0339  0.0541
13952W        W30086  12.418  11.257   4.773  0.4097  0.1597  0.1057
13953W        W30087  16.235   4.269  12.780 -0.0392 -0.1599  0.1544
13954W        W30088   7.728  15.416   0.617 -0.0176 -0.0735 -0.0523
13955W        W30089   8.241   5.217   2.722 -0.1122  0.2035 -0.0781
13956W        W30090  10.246  18.312  14.739  0.1041  0.1072 -0.0517
13957W        W30091   5.028   9.638   1.356  0.2633  0.1040 -0.0228
13958W        W30092   6.312   0.852  15.587 -0.0659 -0.2950 -0.3829
13959W        W30093  12.929   3.585   3.247  0.2190 -0.1026 -0.2115
13960W        W30094  12.972   5.650  13.978  0.0371  0.0030  0.0141
13961W        W30095  11.410   3.540  14.322  0.0867 -0.2913  0.0149
13962W        W30096   1.412   3.097  13.690  0.0373  0.2117  0.2491
13963W        W30097  14.072  14.874  11.299 -0.2658  0.2472  0.3039
13964W        W30098   5.300   3.011   2.222  0.1646 -0.1407  0.0701
13965W        W30099   8.891  13.273  15.491  0.1896  0.3443 -0.2103
13966W        W30100   3.336  14.553  12.190 -0.2428  0.0828 -0.0365
13967W        W30101  14.993  16.988   0.281  0.1121  0.1052 -0.3790
13968W        W30102  14.035  15.480  15.439 -0.0966 -0.1570  0.0424
13969W        W30103   0.110   2.047   2.040 -0.0780  0.1633  0.4205
13970W        W30104  13.358  10.192   2.686 -0.0831 -0.1551 -0.2027
13971W        W30105   8.048   4.337  14.337 -0.0536  0.2748  0.0627
13972W        W30106   8.237   7.073  12.194  0.2804 -0.2968  0.0658
13973W        W30107   9.225  12.098   3.306 -0.0400  0.0822 -0.3355
13974W        W30108  13.003  13.463  15.172 -0.1175 -0.0741  0.0261
13975W        W30109   8.632   8.742  13.343  0.2847  0.0693  0.0236
13976W        W30110  10.990   1.253  15.227 -0.1433 -0.0834  0.2701
13977W        W30111  15.773  14.157   4.144  0.2050 -0.1044  0.1133
13978W        W30112   0.691  15.906  14.918 -0.2405 -0.1984  0.1643
13979W        W30113  18.301  16.663  15.122 -0.0406  0.0064  0.0247
13980W        W30114  11.870   1.092  12.944  0.0881  0.2129  0.0034
13981W        W30115   7.801   3.386   3.185 -0.3841 -0.2484  0.0602
13982W        W30116  14.366  16.717  15.366 -0.0557  0.1107  0.0121
13983W        W30117   3.602  18.494   3.770  0.1562  0.2796  0.1227
13984W        W30118   8.965  17.813  16.038  0.3415 -0.2180 -0.1035
13985W        W30119  13.835   2.918  14.566  0.2100  0.1134  0.1005
13986W        W30120   0.456  10.120   3.821  0.1471  0.1694 -0.3432
13987W        W30121   9.184   8.041  15.740  0.0137 -0.1796  0.0205
13988W        W30122   6.018   9.444   1.583 -0.1646  0.1628  0.2249
13989W        W30123   0.159  17.477   4.007  0.1578 -0.4009  0.1470
13990W        W30124   0.635   9.282   3.459 -0.2335 -0.2620  0.1056
13991W        W30125   3.013   7.527  10.634  0.0884 -0.4574  0.2421
13992W        W30126  17.768  13.481   2.115  0.2666 -0.5290  0.2166
13993W        W30127   7.901   9.054  12.018 -0.2690 -0.3951 -0.2926
13994W        W30128   3.602   2.416   4.248 -0.2030  0.1464  0.1021
13995W        W30129   2.196   7.361   4.906 -0.0658  0.0395 -0.1669
13996W        W30130  12.266  11.919  13.352 -0.0018  0.3047 -0.1278
13997W        W30131  12.728   5.450   1.109  0.0580  0.2390 -0.1587
13998W        W30132   3.702   2.171   4.694 -0.1013  0.1808  0.0170
13999W        W30133  10.979  13.330  12.078  0.0746  0.3485  0.0698
14000W        W30134   3.038  17.062   1.827  0.1122 -0.3370 -0.1556
14001W        W30135  14.419   9.160   4.465  0.1187 -0.0953 -0.0306
14002W        W30136   9.121   7.558   4.484  0.1942  0.4063  0.2228
14003W        W30137   0.733  14.091  12.525  0.0271 -0.4832  0.1042
14004W        W30138  17.363   1.677   2.017  0.2795 -0.4954  0.0451
14005W        W30139  13.353   9.633  13.796 -0.1475  0.1395  0.0623
14006W        W30140  17.871   1.474  11.330  0.0208 -0.0138 -0.0798
14007W        W30141  12.029   2.441   4.768 -0.0593  0.2077 -0.2026
14008W        W30142  11.867  11.706   4.273 -0.0075 -0.1150  0.0478
14009W        W30143   4.037   5.620   5.614 -0.4780 -0.0589 -0.4353
14010W        W30144   2.039   9.846  15.489  0.0513 -0.0702 -0.2578
14011W        W30145  18.017   0.625  13.886 -0.0531  0.1298 -0.0495
14012W        W30146   7.082  13.420  15.509 -0.0745  0.1360 -0.0466
14013W        W30147   0.465   6.670   2.191  0.0828  0.2042  0.0251
14014W        W30148  10.152   8.979   5.587  0.0287 -0.2318  0.3432
14015W        W30149   1.983   4.126   2.035 -0.0185  0.0790  0.1968
14016W        W30150  15.407   2.614  12.832 -0.2248  0.0347 -0.0248
14017W        W30151  12.789   2.262   4.575 -0.0075 -0.2042 -0.1640
14018W        W30152   5.827   4.554  11.727 -0.1557 -0.0017  0.0875
14019W        W30153  11.565  10.903  15.094 -0.0396 -0.3366 -0.4473
14020W        W30154  11.673  18.091  12.755  0.0599  0.1420 -0.0925
14021W        W30155   3.133  16.344  12.781 -0.2936  0.0102 -0.0677
14022W        W30156   6.156   9.761  12.081 -0.2694 -0.1844 -0.1023
14023W        W30157   0.168  12.391  11.442 -0.0498  0.0087  0.1443
14024W        W30158  10.048  10.443   2.017 -0.1169  0.1409  0.0134
14025W        W30159  13.340  13.118  16.080 -0.0885  0.2026 -0.4167
14026W        W30160  12.236   0.208   5.217  0.0176  0.2786 -0.4553
14027W        W30161   3.274   0.076  11.254  0.1015  0.0105 -0.0256
14028W        W30162   3.017   3.304   3.347  0.0357  0.0474  0.1100
14029W        W30163   9.452  12.275   5.593  0.1656  0.4696  0.1321
14030W        W30164   7.873   2.616   3.600 -0.0229  0.2657  0.3486
14031W        W30165   8.983  12.021   2.908 -0.2878  0.1700 -0.0359
14032W        W30166   6.040  15.484  12.775  0.1735  0.0185  0.4048
14033W        W30167  14.813  15.658  12.315 -0.0562 -0.3941 -0.1874
14034W        W30168  11.164  14.260   3.266  0.1240 -0.0392 -0.1469
14035W        W30169   1.937   7.739  15.861 -0.1076  0.3885  0.0446
14036W        W30170  15.502   9.817  15.396  0.1668  0.3079  0.1242
14037W        W30171   6.176  13.624   3.052 -0.2110 -0.3889 -0.2231
14038W        W30172   7.974  13.166   5.327  0.2254 -0.1253  0.0088
14039W        W30173  15.812  14.246   2.352 -0.0703  0.2679 -0.0156
14040W        W30174   3.872   7.356   4.090  0.2120  0.1508  0.0092
14041W        W30175  13.611  10.563   0.580 -0.0494  0.3072 -0.0489
14042W        W30176   6.963   1.651  15.840  0.2832 -0.4758  0.0386
14043W        W30177   3.127   7.396   2.671  0.1835 -0.2075 -0.0227
14044W        W30178   8.603  17.163  11.516 -0.1738  0.2695  0.0983
14045W        W30179   0.694   8.193  11.191 -0.1144  0.1309 -0.1990
14046W        W30180  15.321  17.996  14.706  0.0193  0.0129 -0.0307
14047W        W30181  14.032   4.180   3.627 -0.1754  0.0630 -0.0269
14048W        W30182   0.920   7.351   2.537  0.0863 -0.5548  0.1086
14049W        W30183   4.494  17.763  15.551  0.1798 -0.1375  0.1263
14050W        W30184   8.379   3.338   2.553  0.0677  0.0505 -0.2012
14051W        W30185  17.364   9.691   3.694  0.2576  0.2442 -0.0060
14052W        W30186  10.566  13.496   6.458 -0.1100 -0.1662 -0.3304
14053W        W30187   9.686  13.011  13.965  0.1041 -0.3762  0.3755
14054W        W30188   0.370  11.240  12.093 -0.1036 -0.1695  0.0851
14055W        W30189  15.580  14.783  11.431 -0.1595 -0.0583  0.2130
14056W        W30190  17.540   3.591   3.915  0.1332  0.2908 -0.2547
14057W        W30191   6.323   0.498  14.056 -0.1838  0.2964 -0.2204
14058W        W30192   3.909   0.252   0.111 -0.1425 -0.0906 -0.2633
14059W        W30193  13.119  14.236   5.190 -0.0301 -0.1579 -0.2197
14060W        W30194   0.617   1.274   0.028  0.0625  0.1433  0.2143
14061W        W30195  10.342   2.390  13.376  0.0600  0.0532  0.3232
14062W        W30196  12.691   3.633   4.513 -0.0654 -0.4239 -0.0050
14063W        W30197   7.022   4.940   5.528 -0.3806 -0.1496  0.0373
14064W        W30198  13.402  15.467   2.849 -0.2896  0.1963 -0.2930
14065W        W30199  12.910   6.464   3.080 -0.1234 -0.0975 -0.0829
14066W        W30200   2.055   7.993  13.997 -0.3207 -0.0365 -0.0296
14067W        W30201   2.955   8.929   4.179 -0.1926 -0.0355  0.2382
14068W        W30202   7.488   5.317   6.274  0.1376  0.2910 -0.2280
14069W        W30203  17.995   6.271  13.791 -0.3595 -0.1666 -0.0220
14070W        W30204   5.251   6.621   4.724 -0.0899  0.1206 -0.2155
14071W        W30205  10.469   1.275  10.380 -0.0424 -0.2734  0.1890
14072W        W30206   3.969   8.761   4.437 -0.0246  0.1795 -0.0118
14073W        W30207  18.421   6.251   2.463  0.0778 -0.5310 -0.2148
14074W        W30208  11.617   5.127   5.003 -0.2823 -0.3316  0.0414
14075W        W30209   5.509  14.775   1.767  0.0511  0.1653 -0.0689
14076W        W30210  10.623  13.789   2.655  0.0801 -0.0373  0.0692
14077W        W30211   1.600   9.345  14.779 -0.1328  0.0131  0.2561
14078W        W30212   4.989  17.792  13.363  0.1421  0.0700 -0.0753
14079W        W30213  13.078  15.525  12.209  0.1205 -0.0159  0.1748
14080W        W30214   0.987  16.290  15.689  0.2608  0.0069 -0.0856
14081W        W30215  13.531  13.555   1.359  0.0309 -0.0125 -0.0620
14082W        W30216  14.091   5.011   2.571  0.0858 -0.1528 -0.0931
14083W        W30217  14.500   5.298  14.714  0.1433 -0.0539 -0.1986
14084W        W30218   3.264   2.698   5.171 -0.0381 -0.1651 -0.1393
14085W        W30219   3.084   1.248   3.599  0.0094 -0.1637  0.0595
14086W        W30220   4.724   6.000  11.386  0.1038  0.0828 -0.2989
14087W        W30221   8.077   8.060   2.300 -0.1394 -0.3534 -0.0087
14088W        W30222   5.750   5.553   4.887 -0.0990 -0.1207  0.1653
14089W        W30223   7.698  13.445  12.346  0.0174 -0.0209  0.0256
14090W        W30224  16.488   5.235  13.182  0.1171  0.0190 -0.3313
14091W        W30225  12.034   9.389   0.149 -0.0587 -0.0948 -0.1667
14092W        W30226  16.406   0.358   3.827 -0.0444 -0.1187  0.4074
14093W        W30227  16.321   5.049   4.420 -0.2652  0.0593  0.3255
14094W        W30228  10.615  12.190  14.567  0.1621  0.2791 -0.0305
14095W        W30229   9.839  13.656  11.962 -0.3294 -0.2452 -0.1561
14096W        W30230  10.489  17.988  10.775 -0.0922  0.1645 -0.2664
14097W        W30231   9.067  13.870   4.781 -0.1682  0.5710  0.1999
14098W        W30232   2.459   7.701  13.217  0.0161 -0.0127 -0.0472
14099W        W30233  10.330   3.871  12.184  0.0736 -0.3625  0.0294
14100W        W30234   1.588  14.993  11.206 -0.1675  0.2115 -0.2523
14101W        W30235  10.380   7.958  13.272 -0.1175 -0.0480 -0.0059
14102W        W30236  17.636  10.941   4.731  0.1723 -0.2373  0.1538
14103W        W30237  16.498  10.040  13.618 -0.3918  0.1353 -0.1659
14104W        W30238  18.448  12.808  13.312 -0.0863 -0.1347  0.1134
14105W        W30239   0.932  17.777   3.367 -0.0079 -0.0908  0.3088
14106W        W30240  13.878  15.654   2.357  0.0339  0.1173  0.3180
14107W        W30241   0.317  14.151  11.645  0.2483  0.0599 -0.2971
14108W        W30242   6.357  18.140   4.595 -0.0504  0.2413  0.1196
14109W        W30243  14.104  11.700   0.515  0.1915 -0.3606  0.2022
14110W        W30244   3.496  15.402  11.613 -0.1512  0.0047 -0.4127
14111W        W30245   3.777  11.971   2.560  0.0210  0.0924  0.1510
14112W        W30246  14.015  12.745   3.582  0.0346  0.0471  0.0325
14113W        W30247  17.390  10.354  14.804 -0.0617  0.0665 -0.1991
14114W        W30248  16.260  15.197  11.335  0.1663  0.2762  0.0036
14115W        W30249   3.106  12.822   0.028 -0.1357  0.0830 -0.1259
14116W        W30250   6.132   7.272   0.344 -0.1639  0.0090 -0.1844
14117W        W30251   7.876  12.367  15.683  0.0260 -0.0232  0.0241
14118W        W30252   7.062  14.524   3.200 -0.1514  0.0593 -0.0418
14119W        W30253  10.269  13.240   4.980 -0.1044  0.0012  0.2641
14120W        W30254  12.135  13.970   1.843 -0.1544 -0.0071 -0.0026
14121W        W30255  15.273  17.317  12.626 -0.0497  0.0391 -0.1105
14122W        W30256  12.428   6.951  13.978  0.0633  0.1250 -0.2314
14123W        W30257  10.958  15.487  15.316  0.0161 -0.3439  0.0723
14124W        W30258   3.757   6.620  14.707  0.0052  0.0635 -0.1986
14125W        W30259   5.452   2.461   4.217  0.2990  0.0054  0.2304
14126W        W30260   1.342   2.068  15.205  0.1824  0.0231  0.2274
14127W        W30261  15.704  16.462   2.366  0.1410 -0.2802 -0.0885
14128W        W30262  12.908   4.222   2.213 -0.0439 -0.0676 -0.2692
14129W        W30263   5.842  13.527   1.472  0.3366  0.0247  0.4114
14130W        W30264  17.855   4.175   1.860 -0.1148 -0.1808 -0.1431
14131W        W30265   7.709  13.215  11.835  0.0972 -0.1562 -0.1384
14132W        W30266  15.746   5.629  11.730 -0.4408 -0.0970 -0.1237
14133W        W30267  13.505   2.091   4.162 -0.1947 -0.0428  0.0255
14134W        W30268   2.940  16.143   5.792 -0.2080 -0.3875  0.1025
14135W        W30269   4.483   0.445   0.276 -0.1051  0.0659  0.1435
14136W        W30270   3.650   0.271  15.764  0.4415 -0.1047 -0.1393
14137W        W30271   8.641  16.245   3.439 -0.1650 -0.1203 -0.2823
14138W        W30272   9.324   6.630  14.049 -0.1675  0.0847 -0.2313
14139W        W30273   4.483  15.472   2.286  0.3961 -0.1167  0.0835
14140W        W30274   3.085   8.246   0.619 -0.2245 -0.2041 -0.3679
14141W        W30275   7.086  14.800  15.540 -0.0430  0.1648  0.1595
14142W        W30276   5.081   5.159  14.787  0.0330 -0.0421 -0.1821
14143W        W30277  17.588  13.082   3.528 -0.3344  0.2836 -0.1735
14144W        W30278  10.504  15.869   5.750  0.0307  0.1445  0.2770
14145W        W30279   6.571  14.916  13.376  0.2491  0.1576  0.1260
14146W        W30280  14.153   0.716  11.526  0.4728  0.0364  0.0689
14147W        W30281  16.686   4.511  11.679  0.4540 -0.0051  0.0952
14148W        W30282   9.700   7.624   2.968 -0.3632  0.2502 -0.1072
14149W        W30283  12.853   4.807   0.491 -0.0326  0.0807  0.0334
14150W        W30284   7.005  10.962  15.431  0.2046 -0.2486 -0.3732
14151W        W30285   1.119  14.889   0.920 -0.1390 -0.1490  0.1976
14152W        W30286   0.479   3.412   2.189 -0.0628  0.1027 -0.1570
14153W        W30287   4.099  11.678  14.734  0.2391  0.1197  0.1274
14154W        W30288  18.222  15.189  10.185 -0.3850  0.0517 -0.2795
14155W        W30289  13.539  12.969   3.236  0.0023  0.0501  0.4393
14156W        W30290   7.833  15.743   5.523  0.0521  0.0715 -0.0950
14157W        W30291   4.095   1.201   2.297  0.0048 -0.3232 -0.1475
14158W        W30292  16.385   2.660  13.272 -0.0744 -0.1994 -0.1958
14159W        W30293  11.263  10.835  13.555 -0.0722  0.2144  0.1800
14160W        W30294   9.977  13.848  13.125  0.3159 -0.3441  0.2038
14161W        W30295   0.880   0.635   3.252  0.2534  0.0422  0.1483
14162W        W30296   5.454   6.930  15.762  0.1643 -0.0495 -0.1765
14163W        W30297  17.404  15.683   1.329  0.1453  0.2566 -0.0440
14164W        W30298   5.073  11.769  14.307 -0.1085 -0.0872 -0.1935
14165W        W30299   6.641  12.997   0.007  0.0807  0.0088 -0.1968
14166W        W30300  10.775   2.009  13.696  0.0476  0.0140 -0.1119
14167W        W30301   8.632   2.813   5.813 -0.2740  0.1027  0.1428
14168W        W30302   3.631  10.539  11.133  0.0482 -0.0777  0.0790
14169W        W30303   2.225  10.120  11.929  0.0845 -0.1053  0.1989
14170W        W30304   5.240   8.321   4.563  0.2319  0.4190 -0.2274
14171W        W30305  18.140  11.761   4.151 -0.0273  0.2850 -0.3146
14172W        W30306  17.042  18.244   4.274 -0.1050 -0.1875 -0.1073
14173W        W30307   9.072   8.055   3.672  0.2770 -0.0799 -0.1500
14174W        W30308  16.486   1.199  14.818 -0.0003 -0.2418 -0.2130
14175W        W30309   8.428  16.012   5.418  0.0481 -0.0831  0.0302
14176W        W30310   5.289  11.019   2.425 -0.1327 -0.3739  0.1257
14177W        W30311   9.347  10.718  14.101  0.1081 -0.1028  0.0311
14178W        W30312   0.025   8.099   4.862 -0.0464 -0.0600 -0.2124
14179W        W30313  14.058  13.879  11.480  0.1644  0.1290  0.0943
14180W        W30314  18.445   2.168   0.559 -0.3030 -0.0713  0.0353
14181W        W30315   2.352  18.150   3.050  0.2092 -0.1112 -0.1242
14182W        W30316   7.088   1.225   1.902  0.0284  0.0251 -0.0938
14183W        W30317   7.931  16.620   3.467 -0.2548  0.1864 -0.0639
14184W        W30318   9.100   2.979   4.708 -0.0097  0.2317  0.0865
14185W        W30319  10.925   0.367   2.917  0.2164 -0.2714  0.0372
14186W        W30320  12.089   5.935   4.639  0.5389 -0.3578 -0.1274
14187W        W30321  18.185  12.969  11.201  0.0984 -0.1397  0.2091
14188W        W30322   0.498   3.776  11.093 -0.3304 -0.2004  0.0131
14189W        W30323  14.464  15.182  15.065 -0.2216  0.1640 -0.1507
14190W        W30324  12.394  10.631   0.641  0.0504 -0.2794 -0.0465
14191W        W30325   2.623  12.367  14.521  0.0310 -0.0166  0.0342
14192W        W30326   3.522   3.611  12.939 -0.2359 -0.1368  0.2450
14193W        W30327  12.342   3.499   1.956 -0.2331 -0.1970 -0.2147
14194W        W30328   2.918   7.456   4.229 -0.1769  0.2515  0.4135
14195W        W30329  11.443   5.425   3.971 -0.0774 -0.0547 -0.0213
14196W        W30330   4.571   8.675   1.500  0.0570  0.3864 -0.2453
14197W        W30331  15.215  14.077   0.346  0.0147  0.0098  0.1209
14198W        W30332  15.783  11.659   1.467 -0.2930 -0.1593  0.0841
14199W        W30333   3.786  15.087  12.450 -0.0761  0.0294  0.1408
14200W        W30334   4.458  12.773   1.075  0.1581 -0.0461  0.2461
14201W        W30335   4.912   5.158  13.807  0.1424 -0.2235  0.0104
14202W        W30336   4.038  17.683  15.849  0.1197  0.0345 -0.2347
14203W        W30337   7.490   3.493   5.874 -0.1361  0.3478  0.0442
14204W        W30338   0.188   8.277  12.812 -0.1695 -0.2139 -0.2249
14205W        W30339   7.927  13.546   0.015  0.0055 -0.0034 -0.0233
14206W        W30340   6.630   6.555  11.999 -0.2353  0.0390  0.3317
14207W        W30341   2.787  11.986   0.286  0.2582  0.0928 -0.0604
14208W        W30342   7.787  16.608   2.965 -0.0508 -0.1489  0.0646
14209W        W30343  12.042  18.288  15.223 -0.0321 -0.0229 -0.1389
14210W        W30344  12.566   3.387   6.304  0.2950  0.0028 -0.0554
14211W        W30345  17.898   8.001   3.257  0.0560  0.3517 -0.2627
14212W        W30346  12.902  14.641  12.226  0.0901 -0.0546 -0.0323
14213W        W30347   1.606   3.008  12.577  0.0331 -0.2621  0.1250
14214W        W30348   7.699  16.038  12.676 -0.0393  0.1817 -0.2473
14215W        W30349   9.323   2.535   4.784  0.0628  0.0708  0.2355
14216W        W30350   8.036   6.172  14.853  0.1409  0.0516 -0.0105
14217W        W30351   8.736  15.296   6.294 -0.3633 -0.1366 -0.1179
14218W        W30352  14.038  15.100  12.335 -0.0758  0.0284  0.3412
14219W        W30353  15.297   0.625  12.618  0.1823 -0.3172  0.2406
14220W        W30354  15.990  10.010  15.227  0.1099 -0.1376  0.0348
14221W        W30355  10.214  14.299   5.306 -0.0354  0.2227 -0.2408
14222W        W30356   8.086   8.989  14.214 -0.0390 -0.2609  0.1608
14223W        W30357  14.934  16.789  10.697 -0.5228  0.0565  0.0558
14224W        W30358   4.040   5.051  12.012 -0.0940 -0.0260 -0.0840
14225W        W30359   9.253  13.040   4.972 -0.2645  0.1814  0.3159
14226W        W30360   3.637   5.506  15.498  0.0302  0.1474 -0.2538
14227W        W30361   0.052   0.045  12.193 -0.3124 -0.2873 -0.1311
14228W        W30362   6.493   2.462  11.500 -0.0018 -0.0044  0.0341
14229W        W30363  18.359  17.718  11.195  0.1932 -0.2000  0.4800
14230W        W30364  16.383   3.057  13.731 -0.2304 -0.0150  0.0561
14231W        W30365  13.926   9.964  12.061  0.1059  0.0128 -0.2583
14232W        W30366   4.073   1.533  13.738 -0.0195 -0.2963 -0.3292
14233W        W30367   7.263  14.646   4.198  0.1071  0.0079  0.1698
14234W        W30368  15.624   1.574   2.805  0.1968 -0.0458 -0.2357
14235W        W30369  10.580  17.145   0.518 -0.1097 -0.1774  0.0274
14236W        W30370  14.666  16.087   1.864 -0.1792  0.2392 -0.0237
14237W        W30371   3.507  14.156  14.046  0.0534  0.1540  0.0842
14238W        W30372   3.718  14.825  15.241 -0.1502  0.0807 -0.0510
14239W        W30373  17.873  15.767   2.695 -0.0532 -0.0936  0.2183
14240W        W30374  14.943   9.911  15.563 -0.3051 -0.0525  0.0458
14241W        W30375  10.441   7.535   5.612 -0.2153 -0.0724 -0.0593
14242W        W30376   1.958  10.919  13.298  0.2981 -0.1436  0.2190
14243W        W30377   6.824   7.892   0.410 -0.2349  0.0399  0.0491
14244W        W30378   0.190   4.348   0.159 -0.0543 -0.1013  0.0057
14245W        W30379  15.020   9.191  12.467  0.3652  0.0763 -0.0866
14246W        W30380  11.640  13.380  13.434  0.1092 -0.1797 -0.0482
14247W        W30381   1.709   6.981  13.445 -0.3503 -0.3093  0.0086
14248W        W30382   6.065  10.892  12.972 -0.3357 -0.1944 -0.1204
14249W        W30383  17.266   3.699  13.274  0.3569 -0.3145  0.0436
14250W        W30384   7.571  13.541   1.851 -0.0080  0.2978  0.0231
14251W        W30385   9.218  12.095   5.075  0.0280  0.1341 -0.0472
14252W        W30386   5.988  11.378  11.136 -0.1263  0.0607 -0.2966
14253W        W30387  15.018   0.751   4.142  0.0080  0.3441 -0.1765
14254W        W30388  17.761   4.348   2.900  0.1025 -0.0416 -0.2507
14255W        W30389   9.649   3.856   2.427 -0.0818  0.0018 -0.2376
14256W        W30390  11.478  13.256  12.052  0.0061  0.0000  0.3310
14257W        W30391   2.530   7.947  10.566  0.0229 -0.1333 -0.0236
14258W        W30392   6.365   4.440  15.291  0.2036 -0.2915 -0.0278
14259W        W30393   8.352  12.421  14.008  0.2217 -0.1838 -0.0384
14260W        W30394  12.583   3.270   3.620 -0.3181 -0.2403 -0.0712
14261W        W30395   8.955   8.736  12.940 -0.1530 -0.0487  0.0075
14262W        W30396  18.133   7.909   1.185 -0.0292 -0.3113 -0.1049
14263W        W30397   7.844  11.161   1.451  0.0931  0.3920 -0.3663
14264W        W30398   1.810  15.468   2.565  0.0226  0.0244 -0.1081
14265W        W30399  14.007   0.930  13.885 -0.2367 -0.0846 -0.1766
14266W        W30400   2.016  11.793  15.614  0.1540  0.0251 -0.2080
14267W        W30401   8.971   3.522   4.753  0.1135  0.2066 -0.1923
14268W        W30402   3.852   5.165  11.026 -0.1509  0.0963  0.1675
14269W        W30403   4.618  17.999   3.622  0.0204 -0.0493 -0.0776
14270W        W30404   1.982   6.488  14.338 -0.2469  0.2664 -0.0051
14271W        W30405  16.003   0.918   2.264 -0.0929 -0.1684 -0.1073
14272W        W30406  18.128  14.243  12.511  0.1996  0.1652 -0.2821
14273W        W30407  15.443  12.417   0.895  0.0900  0.0080  0.2528
14274W        W30408   5.770  16.870   3.241  0.3885  0.0982  0.2348
14275W        W30409   5.045  18.502   3.214 -0.0330 -0.0407 -0.1987
14276W        W30410  14.426   0.586   4.894 -0.1250 -0.0711 -0.1076
14277W        W30411   6.953   0.541  13.741  0.0457  0.1154 -0.2494
14278W        W30412   9.672  13.986   4.661 -0.0854 -0.0075 -0.0240
14279W        W30413   0.269  12.939   0.455 -0.2047  0.1033 -0.3052
14280W        W30414  15.680  11.227   2.272  0.0595  0.1627  0.1083
14281W        W30415   0.065  10.566   0.227  0.0337  0.1687 -0.3250
14282W        W30416  10.628   3.298   5.497  0.0742  0.2589  0.1000
14283W        W30417   4.154   6.619  13.282  0.0085  0.1656 -0.1199
14284W        W30418   3.858  18.397   3.338 -0.0310  0.0706 -0.1865
14285W        W30419   4.094   8.029  11.506 -0.1026  0.3401 -0.0396
14286W        W30420   7.090  17.691   6.097 -0.2092 -0.1571  0.0548
14287W        W30421  13.120   1.375  11.752 -0.1610 -0.0763 -0.1596
14288W        W30422  17.223   7.479  10.780 -0.2216  0.2282 -0.0967
14289W        W30423   9.546   3.062   3.070  0.0238  0.0122  0.0823
14290W        W30424  12.044   5.375  15.531 -0.2025 -0.1251  0.1240
14291W        W30425   7.944  18.177  15.007  0.0685 -0.1185  0.3167
14292W        W30426  12.418   7.817  12.720  0.1590  0.0447  0.1519
14293W        W30427   3.950   0.070  11.011 -0.2340 -0.0651 -0.0770
14294W        W30428  14.874   8.704  13.753  0.0093 -0.2209  0.4859
14295W        W30429  16.900  11.900  14.738  0.1434  0.2082  0.0148
14296W        W30430  16.861   6.576   2.043 -0.2051 -0.0372  0.2088
14297W        W30431  12.610   2.071  15.357  0.2756  0.2236 -0.1977
14298W        W30432  10.874   8.715   2.592 -0.1048 -0.0368  0.1806
14299W        W30433  12.989   8.433  12.944  0.4677  0.0101 -0.5477
14300W        W30434  15.046  17.606  16.036 -0.2979  0.1842 -0.2215
14301W        W30435   1.917  16.858   1.015  0.3461  0.1306  0.1018
14302W        W30436  13.343  17.045  14.224  0.1691  0.0987  0.1445
14303W        W30437  18.131  17.635   1.098  0.1079  0.1545 -0.0614
14304W        W30438  13.382   7.623  11.321 -0.1182  0.1340  0.2195
14305W        W30439   9.537   0.278  12.103  0.1071  0.1645  0.1036
14306W        W30440   7.876   9.517   5.208  0.0650  0.0331  0.0647
14307W        W30441   8.893   7.344  13.846  0.3590  0.2963  0.0257
14308W        W30442  13.240   3.239  12.712 -0.1030 -0.1807  0.1620
14309W        W30443  14.819  14.505  14.339  0.4849  0.0782 -0.1134
14310W        W30444  14.846  11.869  13.678  0.0799  0.0674  0.0729
14311W        W30445   2.190   1.056  11.054 -0.3166 -0.3540 -0.0315
14312W        W30446  13.992  12.822   3.065 -0.0365 -0.0135  0.0911
14313W        W30447   1.226   7.099   4.101  0.0405 -0.1218  0.1511
14314W        W30448   8.270   5.013   6.081 -0.0002 -0.0076 -0.0334
14315W        W30449   8.875   7.887   5.430  0.2586  0.1903  0.1131
14316W        W30450  14.041   4.822  12.334  0.0235 -0.1127 -0.1485
14317W        W30451  14.498   2.478   2.105  0.1323 -0.1705 -0.1105
14318W        W30452   8.805   8.456  13.903 -0.2968  0.2445 -0.2225
14319W        W30453  14.303   9.092   1.745  0.2654  0.0913 -0.4003
14320W        W30454   5.284   9.099  15.126 -0.1257 -0.4167 -0.0046
14321W        W30455  14.557  12.620   1.270 -0.2284  0.0684  0.1055
14322W        W30456   7.802   4.621   1.637 -0.1717  0.1307  0.2822
14323W        W30457  13.748   3.961  13.566  0.2849 -0.0757 -0.5268
14324W        W30458  14.822  13.067  14.568  0.0132 -0.2597  0.2221
14325W        W30459   2.061   7.760   3.120  0.1524 -0.2220  0.0231
14326W        W30460  13.466   6.866  12.670  0.0523 -0.0693 -0.1157
14327W        W30461  17.961   6.311  10.511  0.3229 -0.0061  0.2226
14328W        W30462  17.429   9.589  12.787 -0.0447  0.1736  0.0281
14329W        W30463  12.907   3.055  11.231  0.2078  0.1995 -0.1425
14330W        W30464   4.121   6.829   0.272 -0.0778  0.0844 -0.1532
14331W        W30465  12.418  14.688   4.339  0.1615  0.1089  0.1385
14332W        W30466  18.236   0.707   3.505 -0.0050  0.1664  0.0081
14333W        W30467   5.072  17.559  14.208  0.1920  0.2714 -0.0804
14334W        W30468   1.315   0.171   3.999  0.3868 -0.0881 -0.1029
14335W        W30469   6.147  15.197   2.133  0.2016  0.1414 -0.0090
14336W        W30470   9.096   5.534  12.574  0.0657  0.0785  0.2692
14337W        W30471   0.547  12.192  15.507  0.0306 -0.1897  0.0434
14338W        W30472  15.861  11.699   2.554 -0.1099  0.0589 -0.0547
14339W        W30473  18.219  14.515   2.778  0.1748  0.2338  0.0070
14340W        W30474   6.721  15.133   3.486 -0.1301  0.1648 -0.1174
14341W        W30475  15.932   2.334  13.504  0.3101  0.1296 -0.2886
14342W        W30476   5.585  17.722   3.977  0.0073 -0.4636 -0.0352
14343W        W30477   9.528  17.815   4.808  0.1621  0.0822 -0.3294
14344W        W30478   5.487   9.235  14.206 -0.0502  0.2567  0.0637
14345W        W30479  16.274  17.217   3.596 -0.0937 -0.1802  0.0772
14346W        W30480  14.610   8.197  13.255  0.0305 -0.0661  0.0030
14347W        W30481   3.779   5.757  14.227 -0.2451 -0.1466  0.3223
14348W        W30482   5.319  18.169  13.306  0.2962  0.2260  0.0485
14349W        W30483   6.406  16.019   2.528  0.0282 -0.3193 -0.3706
14350W        W30484   1.597  15.265  13.362 -0.2053 -0.1499  0.1988
14351W        W30485   7.359  17.893  13.052  0.2352  0.1686 -0.1100
14352W        W30486  17.583   2.574   2.679 -0.0964 -0.0873 -0.0347
14353W        W30487   8.715   2.416  11.606  0.1145  0.1204 -0.1250
14354W        W30488   3.732   7.804   4.147 -0.1028 -0.3257  0.2824
14355W        W30489   8.396  17.238  15.335  0.2175 -0.1464  0.1947
14356W        W30490   2.421   3.354   2.631 -0.1761  0.1100  0.1898
14357W        W30491   0.015   3.891  14.293 -0.1696  0.0908  0.2265
14358W        W30492   6.395   3.768   4.767  0.0662  0.2396 -0.0679
14359W        W30493  13.610  16.612   0.093 -0.1289 -0.0096  0.1214
14360W        W30494   7.991  12.922  11.535 -0.1466 -0.2623  0.1393
14361W        W30495   4.560  10.754   9.677 -0.1563 -0.1743 -0.0970
14362W        W30496  11.686  17.615  15.810 -0.2562  0.1739  0.1270
14363W        W30497   4.179   1.529   2.761  0.1228  0.0447 -0.1147
14364W        W30498   8.970   4.545  13.968 -0.0349  0.0406  0.0153
14365W        W30499   4.856   9.615  12.796  0.0480  0.1960 -0.0570
14366W        W30500   2.847   7.492   0.221  0.1125 -0.1803  0.1168
14367W        W30501  13.949  10.146   0.666  0.0920 -0.2315 -0.2357
14368W        W30502  13.324   4.274  15.576  0.0911  0.1925 -0.1322
14369W        W30503   4.802  13.180   5.250  0.0776 -0.0378  0.3774
14370W        W30504  12.940   4.064  12.419 -0.2340  0.1158  0.0450
14371W        W30505   3.608  10.678  13.967 -0.0516 -0.2416 -0.2262
14372W        W30506  17.628  17.754   1.235 -0.1120  0.4509  0.1900
14373W        W30507  13.867  10.813  12.475 -0.0541  0.2134 -0.2545
14374W        W30508   9.785  11.323   4.234  0.1989  0.0615 -0.1778
14375W        W30509   3.945   7.190  12.978 -0.3626  0.1678  0.0070
14376W        W30510  13.630  14.691   4.966  0.1176  0.3166 -0.3936
14377W        W30511  13.252  11.860  13.183  0.2815 -0.1079  0.1368
14378W        W30512   7.724  15.299  13.439 -0.1093 -0.0374 -0.0707
14379W        W30513   9.051   1.298   3.885  0.0293  0.1848 -0.2426
14380W        W30514  11.991   6.458   0.986  0.1625 -0.2576  0.2358
14381W        W30515   2.683   0.582  13.662 -0.2802  0.2005  0.2900
14382W        W30516   5.641  16.329  13.599 -0.0906 -0.2872  0.0684
14383W        W30517   9.294  13.572  15.770  0.2798 -0.1035 -0.1673
14384W        W30518  14.561   0.119  10.201  0.2429 -0.2014  0.0963
14385W        W30519   4.023  11.536   1.928  0.1000  0.3148  0.0083
14386W        W30520  18.099   3.418  15.895 -0.1385  0.2278  0.1606
14387W        W30521   1.524  16.443   5.377 -0.1220  0.0903  0.1249
14388W        W30522  17.819   8.749  14.571  0.2503 -0.1004  0.1609
14389W        W30523  17.633   3.698  14.296 -0.1007  0.0851 -0.3820
14390W        W30524  17.261  15.076   4.632  0.1554  0.2503  0.1179
14391W        W30525  17.851   1.472   2.033  0.0949  0.0231 -0.0561
14392W        W30526  17.929  17.492   0.191  0.3662  0.0445  0.1097
14393W        W30527   2.390   9.813   2.605  0.2049 -0.5365  0.1307
14394W        W30528  14.891   7.107   2.191  0.1067 -0.2065 -0.0407
14395W        W30529   5.235   2.005   0.462  0.2382  0.2209 -0.2112
14396W        W30530   3.722   0.346  13.545 -0.3795 -0.1091 -0.0078
14397W        W30531   9.374   7.866  12.549 -0.0468  0.1564 -0.0505
14398W        W30532   8.070  10.860  12.093  0.2341 -0.0576  0.0019
14399W        W30533   7.831  10.410  12.047  0.1302  0.0328  0.0471
14400W        W30534  11.586  17.709   0.866  0.0727  0.0735  0.1368
14401W        W30535   2.307   0.916   2.469  0.0265 -0.0465 -0.3761
14402W        W30536  14.728   8.559  14.683  0.3011  0.2536 -0.1650
14403W        W30537   6.108  11.658   2.865  0.1103 -0.1991  0.0428
14404W        W30538   4.447   0.218  11.809 -0.2236 -0.2818 -0.1727
14405W        W30539   3.842   8.692  12.139 -0.1894 -0.2520  0.0264
14406W        W30540  10.491   2.183  11.043  0.2980  0.1959  0.1751
14407W        W30541   5.666  12.617   3.736  0.2546 -0.0943 -0.0995
14408W        W30542  13.857  11.122   4.580  0.1400  0.0793  0.1836
14409W        W30543   3.858   7.259   1.895 -0.0203 -0.0625  0.0166
14410W        W30544  17.818   3.236  14.129 -0.0775  0.0672  0.2777
14411W        W30545  18.078  12.128  13.951 -0.0280  0.0324  0.0510
14412W        W30546  16.173  15.835  12.047 -0.1429 -0.3211  0.0092
14413W        W30547   9.845  12.930   5.573 -0.1385  0.1613 -0.3001
14414W        W30548   7.205  17.325  15.952  0.2069  0.2860 -0.2466
14415W        W30549   1.781  17.146  14.287 -0.1364 -0.0928 -0.3758
14416W        W30550  15.233  16.962   2.715  0.0397 -0.2599  0.2371
14417W        W30551   0.246   3.210   0.327  0.1760 -0.2103 -0.2764
14418W        W30552  12.151  10.828   4.894  0.2037  0.2997  0.7762
14419W        W30553  14.464   7.727  13.577  0.1762  0.0395  0.1522
14420W        W30554  14.883   4.967   0.941  0.3323 -0.1855  0.2374
14421W        W30555  15.153   3.074  13.904  0.1384  0.1590 -0.1677
14422W        W30556   9.890   1.320   3.469 -0.0562  0.2882  0.0173
14423W        W30557  14.667   9.644   4.673  0.2369  0.1325  0.0312
14424W        W30558  16.027   0.236  11.836  0.2483 -0.0111 -0.0402
14425W        W30559   4.404  14.124   0.540 -0.0782 -0.1050 -0.1668
14426W        W30560  12.497   2.065   1.841 -0.0119  0.0921 -0.1870
14427W        W30561   7.564   6.429  12.945  0.0138  0.0703  0.0719
14428W        W30562  13.054  12.609  15.084  0.1678 -0.2312 -0.2968
14429W        W30563  15.861  14.883  13.612 -0.2091 -0.0646  0.0543
14430W        W30564   8.008   4.966  15.722 -0.1453 -0.0744  0.0007
14431W        W30565  13.697  14.873  15.958 -0.0084 -0.0484 -0.0167
14432W        W30566  10.562  12.017   4.516 -0.0682 -0.0418 -0.2324
14433W        W30567   0.334   8.131   1.748 -0.3003 -0.0272 -0.3430
14434W        W30568   2.607   6.419   1.810 -0.2533  0.1316 -0.2488
14435W        W30569   2.042  11.244  10.236  0.0043 -0.0765 -0.2033
14436W        W30570  16.042   9.058  12.993  0.1436 -0.1041 -0.0336
14437W        W30571  15.298  11.114   1.238 -0.2269 -0.1798  0.3775
14438W        W30572  15.580  15.783  14.402  0.2611  0.0064 -0.0214
14439W        W30573   8.899   6.229  13.216 -0.0493 -0.1265 -0.0002
14440W        W30574   3.204   3.967  13.385 -0.4983  0.2062 -0.0442
14441W        W30575  16.672  17.695  15.117  0.0436  0.0898  0.0981
14442W        W30576   5.686  14.796  13.236 -0.0544 -0.0052 -0.0154
14443W        W30577   3.312   2.244   0.333 -0.1229 -0.1926 -0.1802
14444W        W30578  12.040   4.980   1.445  0.0504 -0.2396  0.1793
14445W        W30579  13.765   1.590  14.996 -0.2211  0.1800 -0.0611
14446W        W30580   4.796  13.250   2.020 -0.0152  0.0686 -0.0731
14447W        W30581  13.005   4.674   1.341  0.2323  0.0277  0.4174
14448W        W30582   2.522   5.010  13.185  0.0366 -0.2026 -0.4382
14449W        W30583  17.552  10.760  14.570  0.3604  0.0609  0.1950
14450W        W30584  13.332   9.610   0.940 -0.0429  0.2947  0.0125
14451W        W30585   4.842   1.866   5.842  0.5116  0.0929 -0.0455
14452W        W30586  16.147   5.642  13.822 -0.3969 -0.0390  0.0963
14453W        W30587  12.879   3.553   1.621  0.2935 -0.0910 -0.1095
14454W        W30588  15.915  11.242   1.162  0.3819  0.0008  0.2030
14455W        W30589  13.004   6.688  13.091  0.0399 -0.2148 -0.3187
14456W        W30590  16.650   9.245  15.436  0.0177  0.0686  0.0824
14457W        W30591   0.773  17.250   2.604  0.0150 -0.2219 -0.1735
14458W        W30592  18.125  14.175   0.349 -0.0400 -0.0547  0.4570
14459W        W30593  10.396   7.553  12.522 -0.0331 -0.2739 -0.2193
14460W        W30594   7.516   7.685  12.747  0.2939 -0.0456  0.1540
14461W        W30595   6.238  15.237  15.032 -0.1112 -0.0373  0.0640
14462W        W30596   3.187   3.794   3.093  0.3350  0.0876  0.1051
14463W        W30597   7.995  15.609  12.550 -0.1788  0.0249 -0.2617
14464W        W30598   6.960   7.305   3.736 -0.0064 -0.1326 -0.2880
14465W        W30599   0.628   7.592  12.500  0.1238 -0.3266 -0.3829
14466W        W30600   2.240  12.199  10.809  0.0277  0.2676 -0.1581
14467W        W30601   0.213  16.989  13.499 -0.3937  0.0600  0.3804
14468W        W30602   9.587   7.904   6.515 -0.1102  0.1301 -0.0240
14469W        W30603   2.282   7.320   1.588 -0.3885  0.4810  0.0246
14470W        W30604  10.465   3.431  14.380 -0.2275  0.1581  0.0679
14471W        W30605   0.106   2.931   1.299  0.2711  0.0830 -0.1129
14472W        W30606   1.112  10.380  15.551 -0.1845 -0.1903 -0.1428
14473W        W30607  12.215  16.561   3.368  0.0175  0.1173  0.0430
14474W        W30608  16.778   6.179  15.234  0.0562  0.0831  0.0277
14475W        W30609  12.858   6.942  15.021  0.1331  0.0658 -0.0474
14476W        W30610  11.078   5.433   0.224 -0.2532 -0.1823 -0.1231
14477W        W30611   2.636  10.895   2.074  0.0718  0.2424  0.3520
14478W        W30612   4.280   4.519   4.026 -0.3349 -0.1335  0.2367
14479W        W30613   6.096  16.723  14.227  0.1767 -0.0911  0.0674
14480W        W30614  18.107  14.522  13.343  0.0737  0.2528  0.2634
14481W        W30615   5.792  10.414   1.739  0.0464  0.2562 -0.1485
14482W        W30616   8.452   9.573  14.106  0.8275 -0.1237 -0.0793
14483W        W30617   9.601   0.418  14.778  0.0364 -0.1510  0.0552
14484W        W30618  14.811   7.477  14.411 -0.0333  0.2643 -0.3686
14485W        W30619   8.564  15.049   4.502 -0.3118 -0.1505 -0.4946
14486W        W30620  10.954   5.021  14.945 -0.0563  0.0186  0.3442
14487W        W30621   8.238  13.312   5.805 -0.3453 -0.1474  0.2171
14488W        W30622  10.188  17.844  12.477  0.2049 -0.1593  0.1114
14489W        W30623  17.869  10.282  15.083 -0.2419  0.1898  0.2261
14490W        W30624   4.691  16.023   0.523  0.0918  0.0375  0.2672
14491W        W30625  13.882   7.599   4.349 -0.0623  0.4082  0.1337
14492W        W30626  16.722   6.672  11.211 -0.1676  0.0824  0.0364
14493W        W30627   8.619  12.986   5.681  0.0560 -0.1272  0.1464
14494W        W30628  11.036  12.602   0.967 -0.2297  0.0739 -0.1045
14495W        W30629   2.750   7.335  14.991 -0.2302  0.2863  0.0802
14496W        W30630   5.668   2.629  14.512  0.1486 -0.1834 -0.1138
14497W        W30631  13.697  13.727  14.604  0.2494 -0.1276  0.0742
14498W        W30632  10.655   2.191   2.035  0.1564 -0.0830  0.0411
14499W        W30633  15.308   3.620  16.070  0.0621  0.0110 -0.0344
14500W        W30634   9.207  11.220   5.910 -0.0846 -0.2017 -0.0415
14501W        W30635   0.078   6.014  13.924 -0.3615  0.3884  0.0235
14502W        W30636   0.155  17.331   3.405 -0.0333  0.0851 -0.0257
14503W        W30637  15.105   9.049  13.505 -0.2369  0.3209  0.2100
14504W        W30638   9.597  11.693  11.084 -0.0503  0.0388  0.1384
14505W        W30639  16.747  11.002   0.147 -0.0089  0.0995  0.2039
14506W        W30640   3.247   9.518  14.911 -0.2561 -0.0243  0.0395
14507W        W30641   0.340   9.171   4.922  0.0043  0.0273 -0.2342
14508W        W30642   7.550   5.429   4.895  0.0846  0.0956  0.0215
14509W        W30643   1.248   3.636  13.145  0.3834  0.1957 -0.0342
14510W        W30644   1.465   0.234  13.148 -0.0882 -0.1048  0.0903
14511W        W30645   4.102  12.634  11.159 -0.1063 -0.3405 -0.0192
14512W        W30646   0.695   8.929  12.181  0.1680  0.1383  0.1591
14513W        W30647   9.274   6.650  10.760  0.2099 -0.1064  0.3739
14514W        W30648  10.488  11.647  15.478 -0.1636  0.1109 -0.1925
14515W        W30649   8.798   1.685  15.560  0.0358  0.2212 -0.2070
14516W        W30650  18.089  17.882  13.775  0.0566  0.1531  0.2401
14517W        W30651  18.378   1.496   1.021  0.2548  0.1610  0.3027
14518W        W30652   3.768   1.445   1.077  0.0446 -0.1144 -0.1112
14519W        W30653   0.021   8.644   0.770 -0.1093  0.5833 -0.1353
14520W        W30654  16.996  12.458   3.170  0.1232  0.0107  0.1553
14521W        W30655  14.129  11.492   3.323  0.1073  0.1042 -0.2995
14522W        W30656   7.465   8.735   5.271 -0.2993  0.1147  0.1532
14523W        W30657  17.685   9.706  15.286 -0.1565 -0.1438 -0.3612
14524W        W30658  18.013   0.542  12.963 -0.0797 -0.0838  0.0987
14525W        W30659  17.696   6.107   2.063  0.0276  0.2668 -0.0120
14526W        W30660  15.842   4.388   5.122  0.0503  0.0823  0.0368
14527W        W30661   0.309  13.799  12.942  0.0045 -0.1534  0.2318
14528W        W30662   1.199   4.432   0.870 -0.0091  0.0816 -0.2155
14529W        W30663   2.740  12.538  11.528  0.2442  0.1135 -0.0626
14530W        W30664  14.568   4.462  12.364  0.2968  0.4528 -0.3993
14531W        W30665   8.278  12.312  15.239  0.0009 -0.0244  0.2665
14532W        W30666   4.742   4.659  12.325 -0.0638  0.0849  0.0895
14533W        W30667  18.285  15.120  15.833  0.4945  0.1987 -0.0901
14534W        W30668   4.417   0.445   5.728 -0.1156 -0.1710 -0.1798
14535W        W30669  16.732  16.519   2.079 -0.0484  0.4385  0.3126
14536W        W30670  12.794   6.278   4.250  0.0793 -0.0461  0.0215
14537W        W30671   4.853  10.911  11.958 -0.1591 -0.0054 -0.0672
14538W        W30672   4.142  16.189   3.404  0.0703  0.2831 -0.1544
14539W        W30673   5.139   9.746  13.811 -0.2922  0.0669  0.0367
14540W        W30674   7.047  12.908   5.345 -0.0467  0.4000 -0.2327
14541W        W30675   5.233  10.746  11.524  0.0133 -0.1120  0.1504
14542W        W30676   3.880   6.626   1.369  0.0824 -0.0010  0.2143
14543W        W30677  11.233  16.417   5.041  0.0485  0.0733 -0.1724
14544W        W30678  12.032   0.388   1.561 -0.3121 -0.0763 -0.1017
14545W        W30679  12.517   3.703   5.816 -0.0526 -0.0247  0.0862
14546W        W30680   3.779  17.759   1.622  0.0726  0.0487 -0.0342
14547W        W30681   6.048  13.893  15.715  0.4810 -0.2316 -0.0951
14548W        W30682  16.957  10.667  15.912 -0.0591 -0.0179  0.3345
14549W        W30683  17.194   2.831  14.187 -0.1942  0.0717  0.0558
14550W        W30684   6.847  16.587  15.889 -0.5386  0.0954  0.1209
14551W        W30685  18.432   8.938  13.744 -0.1639 -0.1419  0.5402
14552W        W30686  14.230  11.992   3.988 -0.1027  0.0091 -0.0957
14553W        W30687   0.363   4.481   9.441  0.2437 -0.3253  0.1000
14554W        W30688  15.707   1.378   4.044 -0.0323 -0.0180  0.2046
14555W        W30689   1.775   9.795   5.225 -0.2467  0.0593 -0.1851
14556W        W30690   7.248   5.210   1.728 -0.1830  0.4073 -0.1194
14557W        W30691   2.284  13.539  15.228 -0.2456 -0.0135 -0.0618
14558W        W30692  14.379   7.462   5.071  0.2229  0.1950  0.3911
14559W        W30693   9.293   9.352  12.265  0.0004  0.3811 -0.2321
14560W        W30694   6.884   3.608  13.646 -0.0721 -0.2620 -0.3198
14561W        W30695  14.327  13.947  10.366  0.2645  0.0300 -0.1465
14562W        W30696   0.869   1.782   4.430  0.5424  0.0063  0.0363
14563W        W30697  13.123  18.054   0.865  0.1586  0.1095 -0.0893
14564W        W30698   9.056  13.861   5.748  0.0862 -0.1403  0.0175
14565W        W30699   3.744  13.564   2.829  0.0836  0.0807 -0.1761
14566W        W30700  17.339   3.586   1.032 -0.0752 -0.0679 -0.0082
14567W        W30701   5.175   5.809   0.962  0.1813 -0.0562 -0.0637
14568W        W30702   1.622  10.514   3.131 -0.0575 -0.0043 -0.2091
14569W        W30703   9.995   4.723   3.517  0.4624 -0.1863 -0.1529
14570W        W30704   4.669  10.555   0.842 -0.0644 -0.0069  0.1267
14571W        W30705  10.651  18.374  14.377  0.2349 -0.0992 -0.0428
14572W        W30706   6.839   6.550   3.312  0.3491  0.2377 -0.0968
14573W        W30707  16.152  11.231   2.100  0.2692 -0.2015 -0.0217
14574W        W30708   1.081   0.354  13.424  0.2050  0.1207  0.0739
14575W        W30709  15.083   0.021   0.401  0.1448 -0.3113 -0.2270
14576W        W30710  10.631  14.320   2.566  0.0252 -0.0914 -0.1627
14577W        W30711   8.830   9.698   5.238 -0.0709 -0.0783 -0.1113
14578W        W30712   4.619  14.511   4.745 -0.0710 -0.2133 -0.1703
14579W        W30713   4.095  12.544   0.183 -0.0182  0.3296  0.0958
14580W        W30714   9.343  10.968   2.650 -0.0782  0.1312 -0.1078
14581W        W30715   7.595  17.115   5.607 -0.1967 -0.0850  0.1037
14582W        W30716  12.524   7.372   3.959 -0.2041 -0.1107 -0.2030
14583W        W30717   1.195  16.396   2.966 -0.1980  0.3668 -0.1909
14584W        W30718  13.477   2.686  10.398 -0.2581 -0.4341 -0.2023
14585W        W30719  15.965   9.388  12.610  0.0621 -0.1058 -0.1087
14586W        W30720  11.854   7.581  12.913  0.3013 -0.2653  0.0258
14587W        W30721  14.294   1.339  14.168  0.0944 -0.4334  0.0233
14588W        W30722   2.544   6.348  12.665 -0.0408 -0.1060  0.4019
14589W        W30723  17.243  16.666   1.655  0.0298 -0.0544 -0.2734
14590W        W30724   6.876   5.596   0.544  0.1896 -0.1976  0.0770
14591W        W30725  12.373  15.763  13.469 -0.1275  0.0060  0.1117
14592W        W30726  18.446  14.701  12.368  0.1242  0.2971  0.4608
14593W        W30727  18.400   7.360  10.451 -0.1317 -0.5364 -0.4296
14594W        W30728  16.040  17.393  13.675  0.0222 -0.0044  0.1808
14595W        W30729   2.093   4.343  14.961 -0.1867 -0.0504 -0.1024
14596W        W30730   1.438   5.317  10.392  0.2500  0.0640  0.2374
14597W        W30731   2.372  14.952   4.622 -0.0330  0.2481  0.0371
14598W        W30732  16.706  17.463  14.435 -0.3399 -0.2732  0.1978
14599W        W30733  15.684  16.803  11.894  0.0544 -0.0703  0.4425
14600W        W30734  13.630   7.243  13.401  0.0281  0.0761 -0.0842
14601W        W30735   0.417   8.392  15.044 -0.0758 -0.1667 -0.1256
14602W        W30736  14.096   6.648   2.465  0.1953 -0.3601 -0.0545
14603W        W30737   4.756  13.371  11.040  0.2359  0.0245  0.2759
14604W        W30738  10.236   5.158  12.205  0.1614 -0.0005  0.0306
14605W        W30739  12.695  12.862   5.091  0.0377  0.1153 -0.0737
14606W        W30740   4.981  12.713   0.228 -0.1192 -0.0517 -0.1775
14607W        W30741   8.779   7.836  13.177  0.0380 -0.0085 -0.1423
14608W        W30742  17.696   2.864  13.728  0.0057  0.1013  0.1049
14609W        W30743   1.024   2.844  14.146 -0.1600 -0.0024  0.5732
14610W        W30744  15.208   6.942  12.896  0.0229  0.0812 -0.0068
14611W        W30745   0.471   6.839  10.931 -0.0605 -0.2046 -0.3064
14612W        W30746  11.649  18.120   4.414  0.0727 -0.3346  0.3522
14613W        W30747   0.136   1.647  11.195 -0.1603  0.0064  0.1897
14614W        W30748   0.810  12.129   3.463  0.0642 -0.1022 -0.0544
14615W        W30749   3.386  14.242  16.005 -0.0201  0.3044 -0.1524
14616W        W30750  14.278  11.258  12.939 -0.1239 -0.1035 -0.1042
14617W        W30751   2.519   6.998  11.887 -0.0133  0.3398 -0.0063
14618W        W30752   7.043  14.857  13.366 -0.1814  0.0432  0.3065
14619W        W30753   1.988  16.561   2.251  0.0228  0.2078 -0.2740
14620W        W30754  18.164   9.633   3.729  0.0226  0.3042 -0.0810
14621W        W30755  12.032  16.804   2.794  0.2330 -0.3821  0.0204
14622W        W30756   9.049  17.735   4.827 -0.2498 -0.0080 -0.2084
14623W        W30757   8.514   6.754   1.411  0.1525 -0.1895 -0.0843
14624W        W30758   3.035   8.845   2.404 -0.0173  0.0759  0.2076
14625W        W30759   3.871  14.678   4.981  0.0783 -0.1869 -0.5685
14626W        W30760   3.733   1.882   3.940 -0.0422  0.0260 -0.0200
14627W        W30761   3.847  14.598  13.192 -0.1508  0.0980 -0.1093
14628W        W30762   4.602   6.977  15.667  0.1566 -0.0088  0.2694
14629W        W30763   2.551   7.749   3.767 -0.1842  0.4003 -0.0933
14630W        W30764  12.060  13.122  13.295  0.0797  0.0099  0.2757
14631W        W30765   2.462   4.154  15.380 -0.3181 -0.3732 -0.2126
14632W        W30766   7.173  18.168  12.233 -0.2446  0.0539 -0.1060
14633W        W30767   7.183   3.628   5.458 -0.2132  0.0644  0.0625
14634W        W30768   4.030   0.687   3.688  0.2721  0.2612  0.0102
14635W        W30769   4.726  14.994   0.007  0.0891 -0.2423  0.1866
14636W        W30770  17.604  11.450  12.754  0.0699 -0.2469  0.1927
14637W        W30771  11.791   5.045  12.210  0.1138  0.1089 -0.1621
14638W        W30772  16.552  13.621  15.402 -0.0998  0.2235  0.0162
14639W        W30773   8.347  12.014  13.740 -0.2177 -0.0557 -0.1231
14640W        W30774  11.280   8.433   5.274  0.0864  0.1833  0.0157
14641W        W30775   8.587  18.120  15.848 -0.3096  0.3088  0.0841
14642W        W30776   1.617  17.544  13.489 -0.1169 -0.2876 -0.2202
14643W        W30777  15.945  11.493   0.108  0.3936  0.1590  0.1392
14644W        W30778  13.676   2.717  16.026  0.0285  0.1971  0.1386
14645W        W30779   0.515  15.268   0.384 -0.0752  0.1855  0.2113
14646W        W30780   4.953  16.634  12.872 -0.3971  0.2299  0.1426
14647W        W30781   6.100   4.561   3.232  0.0712  0.0094 -0.1419
14648W        W30782  12.021  17.024  11.708  0.2726 -0.0312  0.0217
14649W        W30783   8.150   6.438   0.618  0.1171 -0.0274 -0.1397
14650W        W30784   7.311  12.559   2.157  0.1752  0.1170 -0.0297
14651W        W30785   9.200  12.265   2.114  0.0975  0.0107 -0.0046
14652W        W30786  16.322   0.952  15.934  0.0859  0.0981  0.2667
14653W        W30787   8.149  13.226  12.033  0.0603 -0.2579 -0.0442
14654W        W30788  14.914  11.809   1.518  0.3198  0.2811 -0.0092
14655W        W30789  17.896  14.135   2.936 -0.2092  0.2566 -0.0495
14656W        W30790  10.761   4.690  15.643  0.4405 -0.1626 -0.0813
14657W        W30791  12.960   4.810  14.230 -0.1098  0.0339 -0.0514
14658W        W30792  13.734   2.056  13.216  0.1884  0.3784  0.0785
14659W        W30793   2.725  17.445  12.830 -0.2104 -0.0938 -0.0941
14660W        W30794  17.099   2.704   5.475  0.3072 -0.0641 -0.0015
14661W        W30795  13.015  18.184   5.429  0.0895  0.2586  0.1141
14662W        W30796  11.391  12.576  13.197  0.1445  0.1300 -0.0072
14663W        W30797   5.710   4.051  11.897  0.2941 -0.2028  0.3291
14664W        W30798   8.514   1.956  10.569 -0.3095  0.3519 -0.2079
14665W        W30799   5.326  18.294   1.263 -0.2093  0.1639 -0.0534
14666W        W30800   5.584   0.854  14.300  0.0906  0.1222 -0.1517
14667W        W30801   7.451   3.576  13.782  0.2294  0.0588  0.4285
14668W        W30802  15.485   1.670  10.874 -0.3854  0.3164  0.3089
14669W        W30803   7.871   9.978  14.920  0.2420  0.1331 -0.0821
14670W        W30804   8.897  16.674   3.659 -0.1704 -0.0959 -0.0089
14671W        W30805  15.669   5.467   5.250  0.0643 -0.1006 -0.1337
14672W        W30806  12.609   7.464   1.964  0.2146  0.0471  0.0723
14673W        W30807   5.711  10.966  12.518 -0.3019  0.0312 -0.3303
14674W        W30808   4.111   6.420   5.314  0.1526 -0.1998 -0.0703
14675W        W30809   2.391   5.719   4.421  0.1486 -0.2953 -0.0897
14676W        W30810  13.113   4.463   1.836  0.0524  0.3521  0.3520
14677W        W30811  11.326  15.889  15.977  0.2619  0.0849 -0.0408
14678W        W30812  10.141  12.195   0.904 -0.3816  0.1005 -0.3033
14679W        W30813   4.730   6.334  14.893  0.0728 -0.0503 -0.0411
14680W        W30814   9.312   2.655  14.027  0.0641  0.0715 -0.1394
14681W        W30815   0.613   0.077  13.489 -0.3187  0.0045  0.3684
14682W        W30816   7.912   1.101  11.986 -0.0755 -0.0233 -0.4325
14683W        W30817  17.549   5.389   2.589  0.6176 -0.1063  0.0547
14684W        W30818   9.163   4.629  14.872  0.0336  0.1396 -0.1296
14685W        W30819  11.910   6.144  13.528  0.2985 -0.0725 -0.2862
14686W        W30820  10.703   1.829   2.462  0.1733  0.0323  0.1676
14687W        W30821   4.536   3.914  10.585  0.0586 -0.1788 -0.2391
14688W        W30822  16.901  12.313  11.446 -0.0740  0.0898 -0.0657
14689W        W30823   8.229  16.309   6.107  0.0853  0.1041  0.0070
14690W        W30824   2.050   1.842   1.482 -0.0975 -0.1649 -0.3000
14691W        W30825  12.904  12.835  11.694  0.0001 -0.1423 -0.2272
14692W        W30826  14.670  10.940   0.209 -0.2578 -0.1451  0.2512
14693W        W30827   0.033   2.399  13.160 -0.0498 -0.3059  0.0912
14694W        W30828   4.310  13.813  13.968 -0.0316  0.1631  0.2388
14695W        W30829   0.827   1.556   1.835  0.2435 -0.0781  0.1903
14696W        W30830   6.025  17.836   0.815  0.5116  0.2877 -0.0607
14697W        W30831   5.435   9.770  12.991  0.1265 -0.2005 -0.0876
14698W        W30832   6.321  16.642  11.776  0.0225 -0.1034  0.1843
14699W        W30833   8.367  15.027   1.771 -0.2611  0.3053 -0.1661
14700W        W30834  11.778  17.105   4.565 -0.0830  0.0626 -0.1339
14701W        W30835  10.451  14.369   4.784 -0.0258 -0.2515 -0.1473
14702W        W30836   3.515  16.135   0.787  0.1490 -0.0142  0.1459
14703W        W30837   7.645  14.759   2.582 -0.1414  0.0178  0.3483
14704W        W30838   4.860  10.029   5.021 -0.0640 -0.2618  0.1619
14705W        W30839  17.243   5.550   3.624 -0.0019 -0.0074 -0.0801
14706W        W30840  12.172  13.422   4.574 -0.1252  0.0509 -0.0911
14707W        W30841   4.842   9.827   0.224  0.1089 -0.0245  0.3252
14708W        W30842   4.312   7.462  12.794 -0.1188 -0.1914  0.0253
14709W        W30843   3.692  11.001  15.119 -0.1747  0.2176 -0.1527
14710W        W30844  12.624   9.201   4.366 -0.0238  0.1167  0.0344
14711W        W30845   2.345  10.588  13.183 -0.1381 -0.0327 -0.2645
14712W        W30846   3.143  18.162   3.689  0.0066 -0.0535 -0.2164
14713W        W30847   6.099   8.460   3.093 -0.2389 -0.1647  0.4464
14714W        W30848  15.396   4.702   2.789 -0.3582 -0.3303 -0.0015
14715W        W30849   8.630  17.411  13.082  0.1264 -0.1348 -0.1680
14716W        W30850   5.684   1.961  11.852 -0.3913  0.1371  0.1722
14717W        W30851   9.963   2.809  13.462 -0.0192  0.1984  0.0067
14718W        W30852   0.257   1.696  12.133  0.1821 -0.1847  0.0831
14719W        W30853   0.518  17.555   1.708 -0.0597 -0.1432 -0.1178
14720W        W30854   7.929  17.573  14.181  0.1404 -0.2130 -0.2156
14721W        W30855  11.828  14.079   5.556  0.1767  0.2801 -0.2545
14722W        W30856   4.010   9.078  15.164  0.0364 -0.1170 -0.0855
14723W        W30857  11.486  12.943   0.952 -0.2315  0.3453  0.3877
14724W        W30858  10.621   0.662   3.634  0.4681 -0.1226  0.3794
14725W        W30859   6.345  11.686  15.895 -0.2603 -0.1018  0.1239
14726W        W30860   2.637  16.522  11.308 -0.0985  0.0289 -0.0442
14727W        W30861   4.694   8.274   3.979 -0.0080 -0.1083 -0.1496
14728W        W30862   0.604   9.563  11.102 -0.1493 -0.1133 -0.2901
14729W        W30863  15.623   7.305  10.795  0.2823  0.1592 -0.0825
14730W        W30864   6.801  16.359  13.667  0.0790  0.0188 -0.1234
14731W        W30865  10.248  11.233  11.992  0.0027 -0.0974 -0.1049
14732W        W30866   1.587   2.029   4.041  0.1795  0.0910  0.5288
14733W        W30867   2.431   0.897   4.629  0.0484 -0.2237 -0.2134
14734W        W30868   0.163  16.047   3.791 -0.0414  0.1337  0.2667
14735W        W30869   5.899  12.229  12.095 -0.1716 -0.1293 -0.1020
14736W        W30870  10.019  10.535  13.600 -0.3657 -0.0554 -0.0869
14737W        W30871  16.499   8.466  13.381  0.3093 -0.3280 -0.0514
14738W        W30872   4.785   3.211  16.080  0.1048  0.0417 -0.1433
14739W        W30873  17.051   3.072  12.558  0.3880  0.0212 -0.3130
14740W        W30874  17.938   4.129  14.547  0.0717 -0.1225  0.0466
14741W        W30875  15.513   5.456  12.589 -0.1832  0.0023 -0.0112
14742W        W30876   6.186  13.702  13.265 -0.0723  0.2490  0.0185
14743W        W30877  13.146  14.274   1.874 -0.0957  0.1631 -0.0631
14744W        W30878  17.294   5.725   0.347 -0.0543  0.3438 -0.2269
14745W        W30879   2.078   3.513   1.236  0.1573  0.2200  0.0584
14746W        W30880  10.920   2.458  12.468  0.2016  0.4918 -0.2818
14747W        W30881   7.767   4.696  12.584  0.0482 -0.0079 -0.5081
14748W        W30882   5.713  12.109   2.208  0.3419 -0.2912  0.2632
14749W        W30883   5.003   9.526  15.217 -0.0448  0.2825 -0.0847
14750W        W30884   4.593  12.421  12.517 -0.1961  0.5515  0.0460
14751W        W30885   9.719  15.293   5.345  0.0838  0.1226  0.1666
14752W        W30886   0.119  10.120   4.892  0.0486  0.1689  0.0794
14753W        W30887   5.660  12.199   0.294  0.0873  0.0783 -0.1934
14754W        W30888  18.159  15.301  15.396 -0.1983  0.0719  0.1134
14755W        W30889   3.534   8.017   1.489  0.0587  0.1299  0.0745
14756W        W30890  17.649  14.403  10.232 -0.2766  0.0654 -0.1663
14757W        W30891  10.446   2.658  15.832  0.2543  0.0560  0.1723
14758W        W30892  15.422  10.604   4.029  0.1256 -0.1228 -0.0440
14759W        W30893  13.066   6.866  14.488  0.0238  0.1837  0.1512
14760W        W30894   3.264   5.412   2.167 -0.2939 -0.0593  0.0932
14761W        W30895  10.095  15.607  11.393  0.0741 -0.1516 -0.4942
14762W        W30896  11.582  10.326  13.178 -0.0806  0.1938  0.1167
14763W        W30897  16.960   0.470  14.089 -0.1797  0.2206  0.2306
14764W        W30898   7.820   3.502   1.519  0.0414  0.1758  0.0407
14765W        W30899   7.406   7.849   2.261 -0.3004 -0.1292  0.0006
14766W        W30900  11.883   6.540   0.297  0.2475  0.2305  0.4113
14767W        W30901   6.961   3.208  11.282  0.2142  0.3922  0.1959
14768W        W30902   4.343  16.305   1.729  0.1926 -0.0066  0.1254
14769W        W30903  10.982  12.268  13.328  0.0323  0.3742  0.0602
14770W        W30904   0.010  10.507  10.978  0.0319  0.0398  0.2775
14771W        W30905   3.986  16.076   1.075  0.3489 -0.1302  0.0676
14772W        W30906  16.731   6.839   3.874  0.3575 -0.0692 -0.1992
14773W        W30907  16.983   3.607   4.659  0.2382 -0.0950  0.0181
14774W        W30908  14.224  15.524  13.297  0.3287  0.2090  0.0691
14775W        W30909   3.906   1.734   1.630  0.1439  0.2562  0.0034
14776W        W30910   8.292  10.752   1.063 -0.0291 -0.1122 -0.1029
14777W        W30911  14.976   1.549   3.379 -0.1662 -0.2276  0.0413
14778W        W30912  15.795  13.487  12.164  0.1355  0.1272 -0.4288
14779W        W30913   1.067   1.506  16.053 -0.0557 -0.0998 -0.0270
14780W        W30914   3.888  10.788   4.554 -0.0428 -0.1024  0.0478
14781W        W30915  17.174   1.876  12.092 -0.2120  0.1116 -0.1574
14782W        W30916  16.664   3.409   3.805 -0.0836  0.1663  0.3044
14783W        W30917  17.412  14.388  11.256  0.0088  0.2167 -0.3231
14784W        W30918   2.250   8.046   1.902  0.2760 -0.1124 -0.0174
14785W        W30919   4.229   1.719  15.345 -0.0448 -0.0778  0.0259
14786W        W30920   7.180  15.275  14.187 -0.1586 -0.1533  0.1980
14787W        W30921   1.381   0.454   2.455 -0.0232  0.3370  0.2420
14788W        W30922   0.305  13.243  14.989  0.2730 -0.0226 -0.1480
14789W        W30923  15.908   4.079   0.449 -0.2964 -0.0350 -0.0792
14790W        W30924  17.889  12.275   0.096  0.0952 -0.2797 -0.1961
14791W        W30925  10.143  17.301   0.852 -0.1171  0.2159  0.2049
14792W        W30926  14.329  11.304   1.649 -0.1120  0.0863  0.0805
14793W        W30927   8.418   3.712  13.127  0.1143  0.0145  0.3511
14794W        W30928   1.719   3.493  11.860  0.1313 -0.2869  0.1616
14795W        W30929   7.594  16.009  15.475  0.0127  0.1018  0.0314
14796W        W30930  15.816   8.295   4.901  0.1553  0.2955 -0.3155
14797W        W30931  13.564  16.964  12.265 -0.1003 -0.2342  0.3683
14798W        W30932   2.539  15.035  13.715 -0.0611  0.1881 -0.4074
14799W        W30933  16.474  17.093  13.544  0.1091 -0.3985  0.0317
14800W        W30934   1.092  13.125  12.228  0.3160  0.3078  0.0468
14801W        W30935  11.250  17.604  15.980  0.2282  0.0287 -0.2188
14802W        W30936  17.376  14.764   1.494 -0.3563 -0.0743  0.0187
14803W        W30937  16.319   6.062   5.280  0.1945 -0.0140  0.1638
14804W        W30938   2.668   1.436   1.124 -0.1522  0.1966 -0.1854
14805W        W30939  12.834   3.198   1.324 -0.1504 -0.0747  0.0312
14806W        W30940  17.172  18.244  10.424  0.0997 -0.0681  0.3980
14807W        W30941   6.493  10.782  10.394 -0.0441 -0.0508  0.0920
14808W        W30942   5.313  12.894  14.744 -0.1444 -0.3374 -0.0485
14809W        W30943  10.707   9.499  12.137  0.2760 -0.0316 -0.1688
14810W        W30944   6.732   4.364   5.035 -0.1169 -0.2881  0.2870
14811W        W30945  16.115   9.338   0.668  0.1773  0.0494 -0.4967
14812W        W30946   3.155   7.170   1.758 -0.3445  0.0383 -0.2655
14813W        W30947   4.510   5.885   2.156  0.1664  0.3769  0.0224
14814W        W30948  13.633  15.827  10.368 -0.0133  0.2436  0.2605
14815W        W30949  12.205  13.959  13.249 -0.0643 -0.1381  0.0404
14816W        W30950  16.505  18.224   1.204  0.2290  0.0138  0.3587
14817W        W30951   4.187  11.510  11.309  0.3204 -0.1803  0.0097
14818W        W30952   0.896  13.707  14.429 -0.3166  0.1740  0.1117
14819W        W30953   0.590   6.205   2.178 -0.2215 -0.3233  0.0723
14820W        W30954   7.674   9.321  12.852 -0.2495 -0.2315  0.5025
14821W        W30955  12.798   1.574   1.760 -0.0987 -0.0924  0.1022
14822W        W30956  17.234  12.961   0.551 -0.0273 -0.0427  0.2294
14823W        W30957  16.760   2.474  15.099  0.0534 -0.0845  0.2820
14824W        W30958   5.835  15.675   0.910 -0.1434 -0.0097  0.1527
14825W        W30959   1.705  17.835  14.882  0.1845  0.0554  0.2448
14826W        W30960  16.836   8.509   2.869  0.1771  0.0396  0.1685
14827W        W30961   1.386  18.475  12.741  0.1148  0.0452  0.0746
14828W        W30962  13.006  12.878  12.620  0.0920 -0.2700  0.2270
14829W        W30963  15.375   2.353   3.332 -0.2036 -0.0998 -0.1230
14830W        W30964  12.061  16.973   3.693  0.3471 -0.2236  0.0806
14831W        W30965   1.232   2.811  12.298 -0.1277  0.1640 -0.0830
14832W        W30966  18.288  15.878   1.298  0.1603  0.0829 -0.0203
14833W        W30967  13.502  18.216   3.320  0.0481 -0.1936 -0.1134
14834W        W30968   2.371  17.159  12.000 -0.4254  0.1455 -0.0626
14835W        W30969   3.964  13.465   1.432 -0.0315 -0.2491 -0.1804
14836W        W30970  16.138  16.878  15.310  0.1669 -0.0057  0.4066
14837W        W30971   1.729  17.377  10.547 -0.1459 -0.1522 -0.0481
14838W        W30972   6.079  11.795   4.443 -0.3419 -0.2019  0.1817
14839W        W30973  12.151  15.648  16.074  0.2081  0.1832 -0.0682
14840W        W30974  12.771  13.979   2.050 -0.0747 -0.1236 -0.1457
14841W        W30975   0.368   7.653   0.456 -0.3066  0.1137 -0.2866
14842W        W30976   0.025  11.992   4.519  0.1707 -0.2215  0.3960
14843W        W30977   6.976   5.026   3.225 -0.1725 -0.2110 -0.3219
14844W        W30978   0.932   5.138  14.199 -0.2736 -0.0878 -0.0739
14845W        W30979   2.046   5.416  12.442  0.0677  0.0166  0.3898
14846W        W30980  16.720   3.182  15.696  0.2278  0.3595 -0.0713
14847W        W30981  15.920   6.992  13.922  0.3461  0.0258  0.0461
14848W        W30982   1.974  10.969   1.859 -0.0182 -0.1455  0.0083
14849W        W30983  11.627   4.295  13.453  0.3115 -0.0230 -0.1490
14850W        W30984   1.220   8.012  11.816  0.0652  0.0043 -0.1795
14851W        W30985  11.779   2.961   4.722  0.0637  0.1308 -0.2730
14852W        W30986  18.066  11.829   1.550 -0.2095  0.0122  0.2258
14853W        W30987  14.285   2.568   5.242  0.0045 -0.0567 -0.0257
14854W        W30988  12.990   5.969   1.831  0.0834 -0.0965 -0.3203
14855W        W30989   5.921  17.936  15.536  0.1775 -0.0628 -0.0158
14856W        W30990   3.885  14.814   2.922 -0.0409  0.0561 -0.3353
14857W        W30991   0.340   8.821  16.062  0.0423  0.1543 -0.1382
14858W        W30992   4.460   5.561  11.303  0.0198 -0.0076 -0.1132
14859W        W30993  11.965   5.005   5.396  0.0396  0.3371 -0.1550
14860W        W30994  13.609  13.306  14.903  0.1888 -0.1192  0.3055
14861W        W30995   9.811   4.630  12.673 -0.0062  0.2934  0.2912
14862W        W30996   1.853   3.056  13.242  0.0791  0.1474  0.0667
14863W        W30997  13.967   4.687  11.461 -0.2081  0.2628 -0.3707
14864W        W30998  14.679   6.526  13.683 -0.0494  0.0977  0.0547
14865W        W30999   5.818   9.144  14.953  0.1864  0.0424  0.1654
14866W        W31000  13.168   6.591  14.865  0.2127 -0.1235  0.2576
14867W        W31001   8.720   9.440   2.662 -0.2806 -0.1596  0.0322
14868W        W31002  10.281   4.992  13.199  0.2204  0.3110 -0.1141
14869W        W31003  15.925   0.600   4.666  0.1105 -0.0966 -0.2765
14870W        W31004   8.000   3.725   2.457  0.0350 -0.0453  0.1930
14871W        W31005   8.841   5.914  14.093  0.2674 -0.0095 -0.2885
14872W        W31006  17.950  16.005   3.185  0.1781  0.1086 -0.1866
14873W        W31007   3.544   6.165  13.307  0.1943  0.0797 -0.0656
14874W        W31008   3.130  17.695   3.766  0.1647 -0.2296 -0.0891
14875W        W31009   8.058  15.082   4.449 -0.4119  0.2227  0.0542
14876W        W31010   8.386  17.945   2.555  0.0370  0.1017 -0.2437
14877W        W31011   0.106   9.646  15.968  0.2359  0.3848 -0.0065
14878W        W31012  12.031   7.026  14.282 -0.1701 -0.0976  0.2246
14879W        W31013  10.585  16.894  11.468 -0.2029  0.1805  0.3608
14880W        W31014  14.865   9.415   4.209 -0.1141  0.0800  0.3788
14881W        W31015  16.258   1.791  13.002 -0.0274  0.0704 -0.0718
14882W        W31016  12.083   6.586  15.456  0.1423  0.2137  0.2918
14883W        W31017  17.367  13.220  14.996 -0.3177  0.0840 -0.0091
14884W        W31018   1.821   9.805  14.065  0.0380 -0.2686  0.1112
14885W        W31019   0.152   7.566   2.616 -0.0854  0.4524  0.2299
14886W        W31020  15.810   1.008  13.378  0.0366  0.0996 -0.4231
14887W        W31021  15.879   4.320  12.140  0.3163  0.0676 -0.1018
14888W        W31022  13.864  17.464  13.516 -0.1868  0.0860 -0.1032
14889W        W31023   5.883  18.310   3.090 -0.2468  0.0467  0.2785
14890W        W31024   9.569   1.389  15.634 -0.0564  0.0711 -0.4002
14891W        W31025   9.747  14.652   5.201 -0.1515 -0.0566  0.0831
14892W        W31026   8.655   5.313   4.304  0.3796  0.5063  0.3640
14893W        W31027  12.254  10.415  12.427 -0.1024 -0.4590  0.2443
14894W        W31028   3.259   7.092   1.236 -0.0502 -0.3084 -0.1294
14895W        W31029  11.295  13.775  14.582 -0.0261 -0.0406 -0.2815
14896W        W31030   0.398   0.830   1.375  0.0380 -0.1075  0.1060
14897W        W31031  15.643  12.203  11.702 -0.3110  0.2521  0.2013
14898W        W31032   2.430  15.006   0.922 -0.2159 -0.0784  0.1010
14899W        W31033  10.833   8.473  11.787 -0.1396 -0.0043  0.1567
14900W        W31034   3.223  16.100  13.492 -0.4208  0.1584 -0.2241
14901W        W31035  16.588   4.077   1.355 -0.2094  0.0671  0.1923
14902W        W31036   2.710  10.176  11.257 -0.2904 -0.1165 -0.2040
14903W        W31037  13.317   7.963  12.867 -0.0209  0.1429 -0.2620
14904W        W31038  17.781   5.546   2.154 -0.1442  0.1535  0.1994
14905W        W31039  11.837  10.871  11.774 -0.1393  0.0853 -0.1910
14906W        W31040   1.261   2.938  11.685  0.3332  0.0699  0.4049
14907W        W31041  17.232  17.858  16.000  0.0919 -0.0493 -0.1021
14908W        W31042  14.060   0.368  15.432 -0.0930  0.0817 -0.1136
14909W        W31043  18.349   8.809  11.560  0.4064 -0.1055 -0.0958
14910W        W31044  13.470  11.284  12.244  0.2163  0.1567 -0.0853
14911W        W31045  13.510  15.304  12.193 -0.3511 -0.0514  0.0550
14912W        W31046   5.882   5.248  15.124 -0.0480 -0.2606 -0.3298
14913W        W31047   1.800  17.695   0.624 -0.0096  0.0211 -0.0265
14914W        W31048   9.884   1.721  13.959 -0.1057  0.0698  0.0097
14915W        W31049  18.026  12.288   4.670 -0.0673  0.1680 -0.1860
14916W        W31050   8.188   1.807  14.278  0.0067 -0.1175 -0.0531
14917W        W31051  15.207   3.992  13.022  0.0066  0.2944  0.1850
14918W        W31052  15.221  13.080   1.957  0.0168 -0.1448  0.1186
14919W        W31053   3.899   1.404   5.571 -0.0717  0.1701  0.0218
14920W        W31054  11.797   0.281  15.676 -0.2156 -0.1069  0.4063
14921W        W31055   1.588   8.384  11.740  0.0289 -0.2352  0.0852
14922W        W31056   8.894   1.938  14.607 -0.0104  0.1853  0.1366
14923W        W31057  12.506   4.530   5.743 -0.0650 -0.1520  0.0543
14924W        W31058   2.230   2.547   3.859  0.0776 -0.1228 -0.0534
14925W        W31059  11.305   2.184  15.741 -0.1642 -0.1567 -0.0195
14926W        W31060   0.492   6.248   3.342 -0.2511  0.2942  0.0061
14927W        W31061  17.307   3.449  11.695  0.0337 -0.0072 -0.1109
14928W        W31062   7.086   6.161  11.336  0.0008 -0.1145 -0.0946
14929W        W31063   4.639   3.117  13.052  0.0325  0.3681 -0.1006
14930W        W31064   1.653   6.410   5.770 -0.0642  0.0734  0.0321
14931W        W31065   5.424   4.408  15.701 -0.1389 -0.0049  0.0167
14932W        W31066   8.338  14.070   3.067  0.0654  0.3792  0.1689
14933W        W31067  14.197  17.259  13.828  0.2089  0.1300 -0.2052
14934W        W31068  14.473  11.703  13.378 -0.2093 -0.1882 -0.1589
14935W        W31069   0.155  11.024  14.609 -0.1268 -0.0407 -0.0096
14936W        W31070  16.843  17.823   4.598 -0.2225 -0.0341  0.0731
14937W        W31071   4.048   9.901  10.798 -0.1707 -0.1599 -0.1051
14938W        W31072   8.237   1.974   2.974  0.0054 -0.5155 -0.1311
14939W        W31073  10.534   2.645   6.494 -0.0324 -0.2748  0.1353
14940W        W31074  14.917   0.907  15.341 -0.0267  0.0671  0.1976
14941W        W31075   4.370   3.360   5.974  0.0289  0.3040  0.0443
14942W        W31076   2.383   6.914   1.904 -0.0052 -0.0801  0.1033
14943W        W31077   6.218  15.673  14.868 -0.1528 -0.3798  0.2006
14944W        W31078   3.821   6.278  12.502  0.2224 -0.2160 -0.0286
14945W        W31079  18.332  10.505   4.921  0.1982  0.3232  0.1483
14946W        W31080   5.825   7.167  13.419  0.0531  0.2757 -0.1582
14947W        W31081   6.374  18.360   2.910  0.0651 -0.1159 -0.1488
14948W        W31082   5.497   8.281   1.946 -0.2191 -0.1901  0.0824
14949W        W31083   4.131   0.190   3.722 -0.4906  0.0657 -0.0749
14950W        W31084   3.472   2.600  15.025 -0.0395  0.2447 -0.3068
14951W        W31085   8.972  12.310  15.965 -0.3040  0.1711 -0.1731
14952W        W31086   0.390   5.559  13.920 -0.1249 -0.5850  0.0730
14953W        W31087   3.744  14.192  15.161 -0.3006  0.1927 -0.0657
14954W        W31088   7.138   9.318  13.966  0.0347  0.1927  0.1929
14955W        W31089   4.431  16.115   1.297  0.3388  0.1316  0.2250
14956W        W31090  14.304   5.318   4.443 -0.0909 -0.3458  0.0947
14957W        W31091   2.234  13.316  13.210  0.1621 -0.0688 -0.1050
14958W        W31092  13.958   0.077   1.462 -0.0636  0.0982  0.2310
14959W        W31093  18.097  12.157  10.740 -0.2203  0.1005 -0.0326
14960W        W31094   6.064  12.040   6.050  0.0145 -0.1769  0.2805
14961W        W31095   4.353  10.785   1.229  0.0904  0.2902 -0.2166
14962W        W31096   2.666  15.252  10.851  0.1901  0.1936  0.0014
14963W        W31097  14.194  10.596   2.960 -0.0252  0.1261  0.1735
14964W        W31098   3.381   8.415  15.854 -0.1277 -0.0067  0.0421
14965W        W31099   8.085   4.566  13.911  0.5104 -0.2224 -0.4392
14966W        W31100   1.866  10.164   0.987  0.0708 -0.2304  0.0369
14967W        W31101  11.113  17.493   5.389 -0.1566 -0.3238  0.1631
14968W        W31102   8.663  12.349  11.068  0.0063 -0.2809  0.0238
14969W        W31103   6.986   7.540   3.144  0.2048  0.2448  0.0422
14970W        W31104  18.311   9.573   4.201  0.0209 -0.1418  0.0018
14971W        W31105  16.204   1.219   1.696  0.0969 -0.2031  0.1385
14972W        W31106  18.171  13.045  14.184 -0.1099  0.1150  0.0620
14973W        W31107   1.932   4.452   3.307  0.5992 -0.4765  0.4374
14974W        W31108   5.988   1.187   3.214 -0.1697  0.1231  0.2888
14975W        W31109  16.373  16.172   3.182 -0.1210 -0.2024  0.1039
14976W        W31110   9.737  12.755  15.668 -0.3755  0.1227  0.0357
14977W        W31111   1.661  16.830  15.017 -0.2447 -0.2687  0.1069
14978W        W31112   7.613   8.427  13.013 -0.1108  0.2301  0.0360
14979W        W31113   7.308   2.843  15.518  0.3182 -0.0772  0.0088
14980W        W31114   7.690   5.936   5.548 -0.0260 -0.3052 -0.1161
14981W        W31115  12.653  11.892   3.006 -0.2697 -0.2525 -0.2446
14982W        W31116   0.507  15.738  10.578 -0.3634 -0.0427  0.1346
14983W        W31117  17.350  13.086  10.640 -0.0597  0.1715 -0.0524
14984W        W31118  11.976  14.375  12.149  0.1611 -0.0024  0.1497
14985W        W31119   0.608   0.304   0.983  0.3289  0.0901 -0.1514
14986W        W31120   8.606   4.257  15.574  0.1113 -0.2755  0.3392
14987W        W31121   1.350   9.306   4.546 -0.1111  0.3503  0.0931
14988W        W31122  12.973  10.285   3.604 -0.0909 -0.0260  0.1629
14989W        W31123   9.785  13.957   0.895 -0.2422  0.0243  0.3806
14990W        W31124   5.405  16.756   5.590  0.2350  0.1114 -0.1489
14991W        W31125   1.113  12.729   0.163 -0.0161  0.0528 -0.1210
14992W        W31126  17.490   1.869  11.204 -0.0124  0.0814 -0.2146
14993W        W31127  11.806   2.371   5.661 -0.0948  0.3757  0.3299
14994W        W31128   3.591  10.420   0.373 -0.0824  0.0473  0.0600
14995W        W31129  17.699  14.660  13.049  0.1236 -0.2304 -0.0760
14996W        W31130   6.045  15.347  11.789 -0.0254  0.2965 -0.2889
14997W        W31131  16.347   4.769  13.614  0.1394  0.0565  0.0453
14998W        W31132  18.214  12.977   5.150  0.0366  0.2641  0.2492
14999W        W31133  17.010  15.887  12.686  0.0193  0.0026 -0.0410
15000W        W31134   5.655   0.909   4.659 -0.0700  0.2191  0.0745
15001W        W31135  11.316  10.606   4.304 -0.0821 -0.0630 -0.2928
15002W        W31136   5.859  18.404   5.179  0.1890 -0.1862  0.0280
15003W        W31137  10.946   6.050  15.578 -0.3160 -0.0892 -0.3828
15004W        W31138   0.062   0.487   1.045  0.3947 -0.0105 -0.0789
15005W        W31139  15.997   1.089   0.804  0.2662 -0.0864 -0.0049
15006W        W31140   4.642   7.853  15.874 -0.1455 -0.0585 -0.1871
15007W        W31141   2.119  17.606  15.039 -0.0025  0.0049  0.0830
15008W        W31142  14.401   5.294  13.706 -0.2544 -0.1891  0.1509
15009W        W31143   9.143   7.032  12.165 -0.2383 -0.1100 -0.1475
15010W        W31144   9.498   0.895  13.973  0.0825  0.2219 -0.0302
15011W        W31145   5.197   1.469  15.017  0.0265  0.0073  0.2376
15012W        W31146   2.301  15.764  14.687  0.1764 -0.0410 -0.0354
15013W        W31147   1.827  13.662   3.210 -0.1676  0.0508 -0.0137
15014W        W31148   7.501   4.308  12.460 -0.4218 -0.1257 -0.0496
15015W        W31149  13.630  14.512  13.957  0.0165 -0.0240 -0.1849
15016W        W31150   4.487  13.794  12.390  0.0632  0.0652 -0.2193
15017W        W31151   4.932   1.662  11.981 -0.1757 -0.1338  0.2860
15018W        W31152   7.436   2.941  13.913  0.0144 -0.2622  0.2273
15019W        W31153   0.937   0.819   0.323  0.1030 -0.2643 -0.0407
15020W        W31154   9.073   2.446  13.089 -0.0895  0.3319 -0.1334
15021W        W31155   7.041   2.594  15.879  0.2203  0.0177  0.2979
15022W        W31156   0.663  16.417   9.445 -0.2204 -0.0613  0.0809
15023W        W31157  11.001  14.668   3.492 -0.0615 -0.2600 -0.0615
15024W        W31158   9.139   2.239  14.937 -0.1835 -0.0354 -0.0504
15025W        W31159  17.291  14.524  16.062 -0.0340  0.1530  0.0867
15026W        W31160   1.319   2.704  13.411  0.0824  0.1501 -0.2071
15027W        W31161  12.367   1.589  12.265 -0.2501 -0.0850  0.0196
15028W        W31162  18.500   4.399  10.871  0.2613  0.0918 -0.0404
15029W        W31163   3.665  14.007   2.620 -0.1076 -0.0141 -0.3438
15030W        W31164   5.462   5.004   0.535  0.1266  0.1140  0.1450
15031W        W31165   6.986   5.116   2.367  0.1533  0.0419 -0.0292
15032W        W31166  10.406  11.454   1.357 -0.0958  0.1324 -0.1920
15033W        W31167   7.348   6.350   0.542  0.1584  0.0219  0.0556
15034W        W31168  10.671   1.174   2.386 -0.1168  0.1839 -0.1777
15035W        W31169  14.973  16.748  15.974  0.1617  0.4235 -0.0215
15036W        W31170   1.829   8.514  14.548  0.0334  0.0306 -0.1221
15037W        W31171   6.789  11.333  12.393  0.3494 -0.0557 -0.1052
15038W        W31172   4.433   0.709  13.462  0.0281 -0.2128  0.1457
15039W        W31173   6.391   4.070   5.351  0.0225 -0.0879  0.2035
15040W        W31174  13.015   6.472  12.604  0.0759 -0.0037  0.2302
15041W        W31175  10.784   7.642   3.994  0.0413 -0.1980  0.0022
15042W        W31176  13.412  12.823  14.191 -0.1998 -0.1434  0.0191
15043W        W31177  11.887  16.377  12.868 -0.0427  0.2187  0.2714
15044W        W31178   9.403  10.946   4.117 -0.0715  0.2301 -0.2169
15045W        W31179   6.334   9.827   0.882  0.2147  0.0977 -0.1046
15046W        W31180  16.602  10.435  10.869  0.2100 -0.1423 -0.0778
15047W        W31181   3.511  14.253   0.395  0.2314  0.0128 -0.1618
15048W        W31182   7.812  15.684   3.173  0.0857 -0.0469 -0.0179
15049W        W31183  14.337   5.218   0.860  0.1721 -0.0472  0.0138
15050W        W31184   0.885   5.167   1.830  0.0896  0.4477  0.1625
15051W        W31185   4.607  12.003   2.917 -0.0672  0.2203  0.0404
15052W        W31186   4.588  11.341   0.406 -0.2173  0.1392 -0.1345
15053W        W31187   4.048   7.174  16.022  0.1138 -0.1829 -0.1566
15054W        W31188   1.773   0.369   6.040  0.1488  0.1182  0.0659
15055W        W31189   3.241   6.242   5.570  0.1614 -0.0491 -0.1901
15056W        W31190  11.977   7.071   1.649 -0.4466 -0.5259 -0.0819
15057W        W31191   0.091  13.681   1.833  0.0419  0.0511 -0.1300
15058W        W31192  12.470   2.555  12.712 -0.1172  0.1675  0.2385
15059W        W31193   1.703   3.004   4.421 -0.0902  0.0977 -0.0832
15060W        W31194   6.792  13.263  11.998  0.0052  0.1281 -0.0257
15061W        W31195  16.309   5.333   0.009 -0.1654 -0.1155 -0.0990
15062W        W31196   9.504  10.818  12.687  0.0562 -0.0172 -0.0952
15063W        W31197  11.003  10.585   2.970 -0.0136  0.0393 -0.1093
15064W        W31198   1.335  15.080  12.941 -0.1381  0.0196 -0.0372
15065W        W31199   3.780   6.487   1.962  0.3844  0.0494  0.0733
15066W        W31200   9.234  15.428  13.681 -0.1570  0.3224 -0.1115
15067W        W31201   1.839   9.294  15.819  0.0370  0.2689  0.1120
15068W        W31202   5.482  13.173   0.376  0.1757 -0.0228  0.2225
15069W        W31203  17.704   5.673   4.908 -0.0792  0.0663  0.0409
15070W        W31204  14.405   5.801   1.568 -0.1693  0.0380  0.0221
15071W        W31205   8.828  10.898   4.405 -0.1276 -0.1308  0.1907
15072W        W31206  15.771   3.962  13.789 -0.2769 -0.1303 -0.2534
15073W        W31207  13.950  15.855   4.646 -0.0869 -0.2626 -0.2373
15074W        W31208   2.609   6.014   0.984  0.0550  0.0021  0.1598
15075W        W31209  14.257   1.978   5.237  0.1708  0.2684  0.0491
15076W        W31210  16.225   2.012  13.820  0.3548  0.3422 -0.1043
15077W        W31211   8.321   3.235   0.979 -0.2563  0.0691 -0.2521
15078W        W31212  17.086   0.940  13.777 -0.1846 -0.0486 -0.0562
15079W        W31213   7.640  13.684  11.889 -0.0976  0.1304  0.0451
15080W        W31214  17.487  10.484  11.709 -0.1139 -0.0834 -0.1138
15081W        W31215  11.830  14.650   5.075  0.0658 -0.0820 -0.0957
15082W        W31216  17.233   0.792   2.615  0.1454 -0.0502 -0.2338
15083W        W31217   6.615  11.345  14.267 -0.0144 -0.2459 -0.0781
15084W        W31218   6.076  12.031   4.864 -0.2106 -0.1688  0.2323
15085W        W31219  11.043   2.668   1.261  0.0798  0.2955 -0.1698
15086W        W31220  16.495   0.341  14.211  0.1645  0.2062 -0.1024
15087W        W31221   0.467   3.687   0.902  0.0120  0.2646  0.0955
15088W        W31222   1.188   6.559  15.821  0.0077  0.1034 -0.2154
15089W        W31223  14.040  10.789  15.553 -0.0365 -0.0859 -0.0786
15090W        W31224   9.142  14.340  15.663 -0.2240 -0.0242 -0.1163
15091W        W31225  17.905   1.552   5.691  0.0142 -0.1076 -0.2024
15092W        W31226  16.688   5.900   3.853 -0.1806  0.3587 -0.2746
15093W        W31227   7.302   2.491  11.096 -0.0782  0.0011  0.1866
15094W        W31228   8.567  13.965   1.887 -0.0005 -0.1632 -0.1797
15095W        W31229  14.204   6.469   1.149 -0.0170 -0.2722 -0.1021
15096W        W31230  17.575   5.205  15.253 -0.0929  0.0978  0.0752
15097W        W31231   2.880  16.842  14.999 -0.0298 -0.4306  0.0203
15098W        W31232   7.318   5.511  12.834 -0.1941 -0.2617 -0.3052
15099W        W31233   7.904   7.462  14.733 -0.1132 -0.2259 -0.1713
15100W        W31234  14.876   0.157  12.675  0.0356 -0.0985 -0.0471
15101W        W31235  13.498  10.737  12.913 -0.0182 -0.2306 -0.0932
15102W        W31236  16.547  16.958   4.895  0.1391 -0.0731 -0.3850
15103W        W31237  15.556  16.301  12.634  0.2001 -0.1274  0.1075
15104W        W31238  13.931  12.396   3.971 -0.2454 -0.2607  0.0177
15105W        W31239   3.141   6.610   5.198 -0.0753 -0.0321 -0.1363
15106W        W31240   9.215   5.462  12.082 -0.0335 -0.2332 -0.1578
15107W        W31241   2.217  13.504   0.402 -0.0538  0.1258 -0.2659
15108W        W31242  13.060  18.018   4.523  0.2256 -0.0198 -0.0561
15109W        W31243   5.612  16.848   3.738  0.0965 -0.0801  0.3063
15110W        W31244   7.706  13.472   4.624  0.0712  0.0723  0.1111
15111W        W31245   9.750   1.358   2.435  0.1928 -0.1141  0.1922
15112W        W31246  15.599   1.823   1.846 -0.4397  0.0862 -0.0360
15113W        W31247   0.933  17.110  12.905 -0.1068  0.1998  0.0790
15114W        W31248   6.406   7.957  13.561 -0.2694  0.1483  0.1258
15115W        W31249  16.600  12.061  15.623  0.1586 -0.1577 -0.0670
15116W        W31250  18.034   0.097  11.433 -0.0573  0.0613  0.2369
15117W        W31251   5.245   8.520  13.459  0.1116  0.1407 -0.1456
15118W        W31252  12.593   5.355  15.456  0.2368  0.1241  0.0713
15119W        W31253   9.920   7.805   3.393 -0.2462  0.3313 -0.0430
15120W        W31254  12.011   1.941   2.523 -0.1891  0.3956 -0.3030
15121W        W31255  10.880  13.411   3.089 -0.0496  0.0408  0.1568
15122W        W31256   2.113  16.816  13.768  0.2501  0.1008 -0.2737
15123W        W31257  15.078  16.519  12.638 -0.0912 -0.0203  0.3174
15124W        W31258   1.053  16.174   2.548 -0.4246  0.2568  0.0799
15125W        W31259   3.984   8.173   0.201 -0.2955  0.0305 -0.2958
15126W        W31260   6.949  13.377   5.710 -0.2797  0.4330 -0.4753
15127W        W31261   3.401   7.200  10.964 -0.2072  0.2250 -0.2866
15128W        W31262  11.793  11.287   2.204  0.0018  0.1444 -0.1848
15129W        W31263   8.823   6.104   2.222 -0.1006 -0.1347  0.3366
15130W        W31264  10.969  13.817   4.028  0.1224 -0.2235 -0.1464
15131W        W31265   5.899  16.974  15.228 -0.0455  0.0702 -0.0711
15132W        W31266   8.806   1.521   4.253  0.3427 -0.1443 -0.1609
15133W        W31267   7.352  10.932  12.761 -0.0940  0.1013  0.1359
15134W        W31268   5.476   1.339   0.910  0.3470 -0.0658  0.1751
15135W        W31269  10.953  11.695  11.616 -0.2402  0.2876 -0.1718
15136W        W31270  14.221   7.096   2.149 -0.1424 -0.0008 -0.1031
15137W        W31271   9.506  11.763   5.651  0.2653 -0.1701 -0.2221
15138W        W31272   7.174  10.342   3.978  0.3573 -0.3176 -0.0792
15139W        W31273  12.108   7.456  12.528 -0.0771 -0.0601 -0.0258
15140W        W31274   6.426  17.455   3.638 -0.1842  0.0053  0.2997
15141W        W31275   8.397   5.757   0.151  0.2476 -0.0931  0.0159
15142W        W31276   3.593   2.845  11.882  0.1033  0.3411  0.3476
15143W        W31277   1.792   7.065   4.755  0.2346  0.1487  0.0412
15144W        W31278  15.881   4.918  14.432  0.1439 -0.0469  0.2244
15145W        W31279   1.368   9.635  10.288  0.0068  0.0944 -0.1586
15146W        W31280   7.948   1.733  14.916 -0.0802 -0.0883 -0.1146
15147W        W31281  14.458   6.777   1.868  0.0903  0.1947 -0.0063
15148W        W31282   8.255   5.056   0.611  0.0979 -0.1992  0.3087
15149W        W31283   1.107   2.294  14.191 -0.1406 -0.3488 -0.4147
15150W        W31284   0.171   3.657  15.156 -0.0630  0.2277  0.0885
15151W        W31285  15.761   6.473  11.442  0.0486 -0.0100 -0.1248
15152W        W31286  14.789   2.590   6.162 -0.0060  0.1851 -0.0621
15153W        W31287   3.410   5.840   2.979 -0.3044 -0.1361 -0.0493
15154W        W31288   1.501  14.505  11.102  0.2837  0.0307  0.0996
15155W        W31289   5.730  10.471  15.462  0.3053 -0.0958  0.1370
15156W        W31290   4.249  17.637   1.473  0.0854  0.0785 -0.2223
15157W        W31291   5.514   8.649  11.138 -0.4163  0.1306  0.1053
15158W        W31292   4.539  14.210  11.562 -0.0618 -0.0322 -0.3165
15159W        W31293   7.032  17.169   1.828 -0.5333  0.1547 -0.1271
15160W        W31294   4.245   4.176   5.368  0.1421 -0.0506 -0.1493
15161W        W31295  12.528  16.895   4.199 -0.1737  0.1070  0.2835
15162W        W31296  15.075  16.613   3.705  0.2993 -0.1766  0.2304
15163W        W31297  15.087   1.521  12.245  0.1509  0.1571 -0.0064
15164W        W31298  12.266  12.251  12.983  0.2014  0.1381  0.0816
15165W        W31299   2.321   2.848  13.443 -0.0195 -0.1737  0.2164
15166W        W31300  11.862   5.049   0.988  0.0375  0.3401 -0.0009
15167W        W31301  11.266   5.300   2.071 -0.1074  0.0971 -0.2454
15168W        W31302  16.624   0.976  14.121  0.0790 -0.1635  0.2644
15169W        W31303   8.718  16.494   1.591 -0.0660 -0.0324  0.2284
15170W        W31304   7.738   0.374   1.228 -0.1101  0.0616  0.1012
15171W        W31305   4.391  14.005   0.058  0.2029 -0.1263 -0.1691
15172W        W31306   2.030   0.719   1.609  0.2922  0.1640  0.0181
15173W        W31307   6.797  17.660  15.858 -0.0813 -0.2252  0.0445
15174W        W31308   8.694   9.948  13.739 -0.2160  0.0878  0.0298
15175W        W31309  11.667   2.288  14.265  0.0210 -0.2343 -0.1823
15176W        W31310  15.186  13.958  11.297  0.0644  0.1357 -0.0055
15177W        W31311  17.447  11.156  13.601 -0.1461 -0.0299 -0.0506
15178W        W31312   9.030   8.987   4.564 -0.0472 -0.1601  0.2377
15179W        W31313  11.334  18.085   1.176 -0.1030 -0.0911  0.1710
15180W        W31314  11.953  11.066  15.843  0.2744  0.1992 -0.2634
15181W        W31315   6.310   7.716  11.198 -0.2936  0.0147  0.1861
15182W        W31316  10.857   3.125  12.612  0.0175  0.4109  0.1128
15183W        W31317  13.947   5.348  15.433 -0.2620 -0.0806  0.0699
15184W        W31318  16.131  10.350  13.848 -0.0160  0.0624 -0.1676
15185W        W31319   0.514  16.101  12.236  0.3105  0.1031 -0.0570
15186W        W31320   9.106   0.486  12.041 -0.1980  0.0319  0.2433
15187W        W31321   8.965   7.993  14.197  0.1861  0.1441  0.4475
15188W        W31322   4.289   6.925   2.659 -0.1078  0.2036 -0.3082
15189W        W31323   4.371   2.904  12.509 -0.1724  0.0136 -0.2014
15190W        W31324  13.713  10.790   2.755 -0.1694 -0.0406 -0.2351
15191W        W31325   2.248   6.954   9.648  0.1758 -0.1724 -0.2321
15192W        W31326  11.967   4.506   5.510  0.0174  0.2041 -0.0121
15193W        W31327  15.725   8.088  11.202 -0.0200  0.1124 -0.0516
15194W        W31328   4.232   7.332   5.044 -0.0176  0.2273  0.1102
15195W        W31329   0.891   0.538  12.151  0.1868 -0.0445 -0.0122
15196W        W31330  11.159  11.824  13.431  0.2640 -0.1300 -0.1061
15197W        W31331  15.804  12.081  10.995 -0.0569 -0.1910 -0.1044
15198W        W31332  17.415   6.055  12.302  0.1781  0.0661  0.0781
15199W        W31333   9.379   4.715  15.598  0.0988 -0.1620  0.1285
15200W        W31334   4.302  11.259   3.433  0.3988  0.1505  0.1469
15201W        W31335  15.154   5.913   0.589  0.2507  0.1148  0.1852
15202W        W31336  12.886   8.137   0.405  0.1099  0.4113  0.2794
15203W        W31337  12.553  18.236  14.406  0.0391 -0.0465  0.3105
15204W        W31338  11.350   0.088   4.997  0.0728 -0.2693  0.0736
15205W        W31339   4.874  16.982   3.986  0.2001 -0.1356 -0.1546
15206W        W31340   5.314  18.242   1.784 -0.3650  0.1460 -0.1503
15207W        W31341   7.069   2.140   3.143  0.1310  0.2932 -0.1649
15208W        W31342   0.823   7.801   0.120  0.0710  0.0307  0.1513
15209W        W31343  16.394  15.947   1.525 -0.0611 -0.0678  0.2146
15210W        W31344   4.378  10.790  11.840  0.2551  0.1851 -0.0473
15211W        W31345   2.064   5.968   1.823 -0.1419 -0.1924 -0.1798
15212W        W31346  17.221  14.984  14.138  0.1926 -0.1154  0.0448
15213W        W31347   8.889   0.282  13.728  0.0914  0.0500  0.2625
15214W        W31348  15.994  13.459   2.876  0.4013  0.1554  0.0655
15215W        W31349   9.195  15.223   4.551  0.0816 -0.0238  0.1091
15216W        W31350  11.679  11.527   3.834 -0.3477  0.0556  0.2351
15217W        W31351   8.165   2.675  14.619 -0.0850 -0.1522 -0.3626
15218W        W31352   5.598  17.020   4.798 -0.0210  0.2569  0.2081
15219W        W31353  17.565   6.736   2.574 -0.1784 -0.0129 -0.2251
15220W        W31354  17.349   2.790  13.284 -0.3661 -0.0263  0.0020
15221W        W31355  13.078   2.702  12.113 -0.1271 -0.3001  0.0700
15222W        W31356   7.140  11.821   2.818 -0.2743 -0.4847 -0.1256
15223W        W31357   0.717   3.062   3.622 -0.1064  0.0412  0.0076
15224W        W31358  11.429   8.138   3.165  0.0278  0.2230  0.1767
15225W        W31359  17.899  14.064   4.488  0.1944  0.3079 -0.0982
15226W        W31360   7.571   1.439   2.016 -0.2553 -0.1410  0.1193
15227W        W31361   7.180  17.369   1.367 -0.1992  0.0620 -0.1904
15228W        W31362  15.023   1.476  15.194  0.1977  0.2157 -0.0950
15229W        W31363   1.337  14.869   0.330 -0.2045  0.1180 -0.0911
15230W        W31364   6.609   8.948  12.815 -0.0649 -0.1888  0.2195
15231W        W31365   4.903   2.246  13.107  0.0565  0.0496 -0.0819
15232W        W31366  13.848   6.126  13.069 -0.2834 -0.1636 -0.0332
15233W        W31367   8.292   4.970   4.293  0.1038  0.2662 -0.4250
15234W        W31368  13.713   4.129   5.187  0.2035  0.2350  0.1867
15235W        W31369  17.753   3.027  16.054 -0.1618 -0.2829  0.1473
15236W        W31370   7.231  10.154   5.273  0.1099 -0.2560  0.1213
15237W        W31371  12.917   9.215   2.848  0.2029  0.0714  0.2378
15238W        W31372  17.193   0.258  12.149  0.1168  0.0611 -0.1794
15239W        W31373   2.226   9.681   1.046 -0.1347 -0.1713  0.0974
15240W        W31374   5.753   7.251   6.029 -0.0999 -0.0183  0.1642
15241W        W31375  10.948   3.660  14.461  0.1331  0.2028  0.0948
15242W        W31376  17.390   3.760  12.023  0.1274 -0.0270 -0.0943
15243W        W31377  11.306   4.060   1.760 -0.2184 -0.1150 -0.1307
15244W        W31378   6.596   6.411   5.718  0.1512  0.2704 -0.1600
15245W        W31379  18.156  18.011   2.844  0.5808 -0.0712  0.1346
15246W        W31380   8.465   5.834  15.736  0.2568 -0.1599  0.4023
15247W        W31381   5.896  14.623   0.495 -0.2151 -0.0547  0.1545
15248W        W31382  11.773   7.675   5.723  0.3531  0.0508  0.0075
15249W        W31383   7.970   8.929  12.504  0.0073 -0.4202  0.2074
15250W        W31384  17.545  16.839   3.383 -0.2642  0.0344  0.1121
15251W        W31385   3.888   6.810  12.638 -0.0966  0.3014  0.2547
15252W        W31386   5.797   7.712   4.351  0.1394  0.1796  0.2670
15253W        W31387  10.646   7.038  12.809 -0.0910 -0.2203 -0.1180
15254W        W31388   8.400   9.670   3.331 -0.2319 -0.1485 -0.0330
15255W        W31389  10.836   1.440   0.912  0.1503  0.3319 -0.0666
15256W        W31390  13.205   6.853  13.572 -0.0863  0.3415 -0.4309
15257W        W31391  12.124   3.519   3.638 -0.1363  0.3191  0.0213
15258W        W31392   3.717   0.058   0.610  0.0759  0.1898  0.0627
15259W        W31393   3.877  14.224   0.890 -0.2730  0.0256  0.1180
15260W        W31394   0.116   4.631   9.896  0.1966 -0.0096  0.0840
15261W        W31395  10.322   4.098  11.687 -0.2262 -0.1866  0.0143
15262W        W31396   0.644   3.522   3.192 -0.0660 -0.2528 -0.3354
15263W        W31397   0.762  18.091   4.875 -0.1674  0.3287 -0.0849
15264W        W31398  15.569   4.278  13.436 -0.2667  0.2298  0.0011
15265W        W31399   5.167  15.195   3.006  0.2265 -0.0361  0.0859
15266W        W31400  16.175   8.652   1.428  0.1873 -0.1128  0.1355
15267W        W31401  16.272   8.075   4.676 -0.0702  0.1277  0.3777
15268W        W31402  13.577   6.776  13.198  0.1645  0.0269  0.2649
15269W        W31403   7.996  11.601   1.293  0.0082  0.1177 -0.2940
15270W        W31404   7.375  11.167  15.211 -0.2781  0.0765  0.1625
15271W        W31405   9.825   3.895  11.623  0.3860  0.0493  0.0819
15272W        W31406  18.231   7.263   1.031  0.2314 -0.0133 -0.1976
15273W        W31407  13.374   5.482   5.145 -0.1074  0.1248  0.0099
15274W        W31408  18.477   7.088  10.986 -0.0748 -0.1032 -0.1442
15275W        W31409  11.181  15.634  14.587  0.0266  0.1697 -0.2615
15276W        W31410   3.988   8.714   0.919  0.0620 -0.1163  0.1158
15277W        W31411   7.142  17.243   5.401  0.2868  0.1756 -0.2431
15278W        W31412   2.963  11.802  13.948  0.4707 -0.3367  0.0602
15279W        W31413  16.503  10.888  13.261  0.4087  0.3825  0.0669
15280W        W31414  17.448  10.564  15.277 -0.1231 -0.0972 -0.1275
15281W        W31415   1.867   6.984   2.207 -0.0943  0.0552 -0.0127
15282W        W31416  10.991   5.775   0.565 -0.1979  0.2172 -0.1047
15283W        W31417  15.515   4.778  12.526 -0.3387  0.0299 -0.2143
15284W        W31418  10.384   5.848  15.839 -0.1569  0.3507 -0.3730
15285W        W31419  11.493  17.862   2.091 -0.2240  0.1733 -0.0388
15286W        W31420   9.687  16.128   5.648 -0.1348  0.0392 -0.0432
15287W        W31421  13.207   8.163  13.319  0.2156 -0.2309  0.0738
15288W        W31422  10.585  14.032   5.045  0.1366 -0.0426 -0.1433
15289W        W31423  14.078  11.905   1.004  0.1942 -0.0904 -0.1621
15290W        W31424  13.200   2.156  11.375  0.0781 -0.2846 -0.2814
15291W        W31425  14.678  17.908   4.392  0.0544 -0.0031  0.5323
15292W        W31426  14.162   2.496   4.749 -0.0026 -0.3265 -0.1224
15293W        W31427   6.743   8.813  10.068 -0.0430 -0.1450 -0.1713
15294W        W31428  13.371  16.004   2.881  0.1229  0.0824 -0.2187
15295W        W31429   7.668  17.700   2.185  0.1707 -0.0261  0.0207
15296W        W31430  11.032   3.334   1.961 -0.1155  0.1039 -0.1664
15297W        W31431   5.404   1.101  13.149 -0.4472  0.1041 -0.1935
15298W        W31432  14.739  17.910   0.656  0.1373  0.0035  0.1639
15299W        W31433  17.739   4.047   2.441 -0.0634 -0.0316  0.0022
15300W        W31434   9.995   1.979  11.862 -0.0173  0.3479  0.1967
15301W        W31435  11.253  12.996   0.062  0.1447  0.2658 -0.1157
15302W        W31436  10.400   2.420  15.357  0.0125  0.0113 -0.1474
15303W        W31437   7.834  18.430   2.103  0.1314 -0.0297  0.0305
15304W        W31438   5.758  18.458  15.239  0.2222  0.4933 -0.2402
15305W        W31439   0.025   6.514   3.522  0.1484  0.1387 -0.2593
15306W        W31440  11.407   9.195   1.105 -0.3075  0.0728 -0.2539
15307W        W31441   1.895  11.728  10.505 -0.0264  0.0116 -0.0265
15308W        W31442  17.509   1.165   2.293 -0.0091  0.2124  0.2816
15309W        W31443   6.435   9.918  15.446 -0.2776 -0.1712 -0.0770
15310W        W31444   9.002   0.041  14.204 -0.0554 -0.1387 -0.0760
15311W        W31445   5.452   3.252   5.254  0.2238  0.1547 -0.0187
15312W        W31446   3.277   5.968  11.276 -0.1186 -0.0098 -0.2310
15313W        W31447   7.803   6.487  13.409 -0.0013 -0.1190 -0.1551
15314W        W31448   9.663  16.155   2.747 -0.0160  0.1234 -0.0205
15315W        W31449   4.169   6.411   3.454 -0.3617 -0.1869  0.1206
15316W        W31450   0.585   3.515   0.144 -0.1080  0.0073 -0.2338
15317W        W31451  14.932   4.828  14.099 -0.1939 -0.1431 -0.0116
15318W        W31452   0.894   0.997  13.492 -0.0924  0.0562 -0.0058
15319W        W31453  12.663   4.827  12.095  0.0378  0.1587  0.0349
15320W        W31454   1.838  12.032  12.715 -0.1177  0.2576  0.1314
15321W        W31455  18.409  15.305  12.553  0.1383 -0.3811 -0.0897
15322W        W31456   3.694  13.295   3.844  0.0747  0.1965 -0.2410
15323W        W31457   5.593   3.322   0.480  0.1645  0.1247  0.0042
15324W        W31458   9.924   2.447  12.776 -0.1736 -0.1188 -0.3369
15325W        W31459  12.809  12.140  13.918  0.0859 -0.1806 -0.3905
15326W        W31460  18.427   5.034   0.580 -0.0360 -0.2280 -0.1174
15327W        W31461   2.159   5.744  15.355 -0.4054 -0.1789 -0.1290
15328W        W31462   2.686   8.536  13.021 -0.0585 -0.2133  0.1305
15329W        W31463   5.584  17.970  14.240  0.2131  0.0074 -0.1952
15330W        W31464  10.666  12.271  13.845 -0.2647 -0.2393 -0.1151
15331W        W31465   4.352  10.259  15.394 -0.0205  0.2313  0.0706
15332W        W31466  17.945  14.637   3.939  0.1483 -0.1814 -0.2861
15333W        W31467  11.629  15.031   4.195 -0.0737 -0.0742 -0.3050
15334W        W31468  17.782  17.844  12.666  0.2732  0.1188  0.2969
15335W        W31469   1.580   9.291  12.183 -0.0512 -0.2037 -0.1170
15336W        W31470   4.115  13.339   3.542  0.0839 -0.0410 -0.2984
15337W        W31471   4.965  13.167  15.229 -0.0962 -0.3010 -0.1752
15338W        W31472  13.083   4.634  13.634  0.1833  0.0673 -0.0051
15339W        W31473  18.278   8.689   4.446 -0.1762  0.2278  0.0054
15340W        W31474  11.515  12.978  13.907 -0.3697  0.1733  0.0915
15341W        W31475   1.227  17.984  12.903 -0.0376 -0.2567 -0.2119
15342W        W31476  15.941   5.253   4.793  0.0001 -0.2762  0.1312
15343W        W31477  10.094  16.630   5.887 -0.1858 -0.2648 -0.0359
15344W        W31478  17.114   1.052  12.456 -0.2671  0.0862 -0.1616
15345W        W31479  18.360   6.234  14.612 -0.0014  0.4313  0.4474
15346W        W31480   7.402  18.415  13.558 -0.3232  0.1388  0.2726
15347W        W31481   4.944  17.881   1.120  0.0002  0.2069 -0.0632
15348W        W31482   5.250   8.869   5.289  0.0442 -0.0347 -0.2622
15349W        W31483  18.089  16.847   5.686  0.1543  0.1466  0.1048
15350W        W31484   1.498  14.000   0.450 -0.0041 -0.1244  0.0295
15351W        W31485   9.928   5.344   4.254  0.3616 -0.1898  0.1810
15352W        W31486   2.101   6.411  13.742  0.1723  0.0368 -0.0633
15353W        W31487  18.342   2.701  15.471 -0.0430  0.0929  0.0163
15354W        W31488   7.141   1.987   4.642 -0.0921  0.3276  0.2317
15355W        W31489  13.458  10.794  15.706  0.2892  0.0869  0.1723
15356W        W31490   7.700   6.427   2.970 -0.2937  0.0606 -0.1129
15357W        W31491   8.010   0.271  12.719  0.0260 -0.2468  0.3729
15358W        W31492  11.210   6.868   1.180  0.0114 -0.0703 -0.0927
15359W        W31493   1.961   3.452  11.032  0.3538 -0.0245 -0.1625
15360W        W31494   0.434  17.012   0.994 -0.1921 -0.0571  0.2486
15361W        W31495   9.659  17.867   1.047  0.0602 -0.1741  0.1341
15362W        W31496  10.439  10.753  11.678  0.0185 -0.1628  0.3177
15363W        W31497  11.034   1.946   3.980 -0.1241  0.1648 -0.0599
15364W        W31498  15.398   8.691   0.083 -0.2025  0.3741 -0.2056
15365W        W31499  18.343  17.384  12.044 -0.1170  0.1849 -0.0147
15366W        W31500   6.755   4.090  15.520 -0.0040 -0.0214  0.2147
15367W        W31501  14.164   9.264  12.771  0.1228  0.1177 -0.0149
15368W        W31502   8.072  11.180  15.185 -0.1189 -0.2693 -0.1015
15369W        W31503   8.046  13.785   3.304  0.1741 -0.4700 -0.0111
15370W        W31504   8.647   9.902   4.784  0.1250  0.2961 -0.0781
15371W        W31505   9.983   3.222  14.329  0.2038 -0.0714  0.0309
15372W        W31506   7.517  18.096   0.844  0.1296  0.2103 -0.2405
15373W        W31507  13.005   6.137  13.020  0.0325 -0.2531 -0.1703
15374W        W31508  17.087  17.093  11.729 -0.3604 -0.0477 -0.1762
15375W        W31509  10.165   1.606   3.122  0.1916 -0.0066 -0.1432
15376W        W31510   0.797  14.672  15.128  0.1320  0.0499 -0.1865
15377W        W31511   1.554  10.715   2.629  0.2542  0.3058  0.0776
15378W        W31512  17.325  18.461   3.163  0.4788 -0.1160 -0.1019
15379W        W31513  14.080   5.472  12.953  0.1720 -0.0748 -0.1919
15380W        W31514   6.323  15.341  15.576  0.2818  0.2141 -0.0511
15381W        W31515   5.719  15.902  12.443 -0.0972  0.0784  0.1401
15382W        W31516   5.627  13.620   4.126  0.0388  0.0444 -0.0017
15383W        W31517  12.520   8.673   1.876  0.1465  0.1427  0.1309
15384W        W31518  11.402  12.047  13.088 -0.1704  0.1528 -0.0829
15385W        W31519   7.858  13.829  15.713 -0.3672  0.1150  0.0324
15386W        W31520  16.875   3.261  14.280  0.2067  0.3066  0.0235
15387W        W31521  13.158   7.147  13.162 -0.1863 -0.1976  0.0624
15388W        W31522   8.446  18.124   0.367  0.0581  0.1997 -0.0138
15389W        W31523   7.728   7.994  14.744  0.0298  0.0026  0.0220
15390W        W31524  13.927   7.658   5.835 -0.1380  0.1342 -0.1148
15391W        W31525   4.808  17.763  15.188 -0.3609  0.3564 -0.3125
15392W        W31526   4.791   6.756  14.494 -0.1442  0.0733 -0.0665
15393W        W31527  14.114   9.228   3.552  0.0416 -0.2873 -0.1842
15394W        W31528   0.746  11.479  14.091 -0.0705 -0.1799  0.3222
15395W        W31529  14.405   6.979  15.122  0.0251  0.1141 -0.1189
15396W        W31530   2.373  15.037  15.966  0.0157 -0.2065  0.0863
15397W        W31531   2.270  16.016  12.854 -0.0858 -0.0336  0.0826
15398W        W31532   0.441   8.672  12.676 -0.2279 -0.1012  0.2563
15399W        W31533  11.961  16.323  15.559  0.1292  0.2133  0.1785
15400W        W31534  13.440   0.236   3.162  0.0440  0.0131  0.0266
15401W        W31535  12.726  15.324  15.588  0.1583 -0.0818  0.0758
15402W        W31536   8.636  13.673  13.489  0.1618  0.3559 -0.0814
15403W        W31537   4.231   3.153  11.439  0.2887 -0.0780  0.1950
15404W        W31538   1.764  18.492   0.841 -0.1487 -0.0317 -0.0672
15405W        W31539  10.362   5.687  11.514  0.1993 -0.1132  0.1276
15406W        W31540  17.661  13.171   0.975  0.2419 -0.0833 -0.0404
15407W        W31541  17.160   2.858   1.944  0.0414  0.2453 -0.0563
15408W        W31542   6.635   3.077  11.709  0.0610 -0.0249  0.0580
15409W        W31543  12.679   0.838   3.800  0.0635  0.1405 -0.4484
15410W        W31544   8.812  13.240  14.993  0.0399 -0.1210  0.3961
15411W        W31545  14.558  15.730   1.057  0.1598  0.1778 -0.0480
15412W        W31546  10.056   4.403   0.922 -0.3526  0.0855  0.1119
15413W        W31547   6.534   5.957  11.451 -0.2706 -0.1884  0.2589
15414W        W31548   3.521   1.617   5.338 -0.0802 -0.1842 -0.2369
15415W        W31549   3.639  13.351   4.456  0.3383  0.2771  0.2142
15416W        W31550  16.476  15.542   1.243 -0.1071  0.1387 -0.0493
15417W        W31551   2.440  13.837  13.994 -0.0072 -0.3684  0.1732
15418W        W31552   6.626   2.336  13.259 -0.0749 -0.0679 -0.1946
15419W        W31553  14.171   3.624  14.097  0.0484  0.0040 -0.0056
15420W        W31554  18.286   8.032  15.871  0.2264 -0.2260 -0.1165
15421W        W31555   5.030  14.465   3.533  0.0104  0.2620 -0.1075
15422W        W31556  12.967  13.455   2.104  0.1551 -0.0349  0.3438
15423W        W31557   1.266  10.894  10.099 -0.1499 -0.1166 -0.2670
15424W        W31558  12.703  18.069   1.818 -0.1079  0.1256 -0.3992
15425W        W31559   9.568   4.142  14.325  0.0428 -0.3538 -0.1487
15426W        W31560  18.393  16.530  13.955 -0.0791 -0.1113 -0.2777
15427W        W31561  15.360   0.566   3.664 -0.1739 -0.1755 -0.1235
15428W        W31562  11.803   7.226   4.492  0.1064 -0.0655  0.3793
15429W        W31563   4.021   3.627   1.642  0.1655 -0.0093 -0.0156
15430W        W31564  16.679  10.521  15.455 -0.0604 -0.0418 -0.1054
15431W        W31565   4.144   4.112  11.400  0.4272 -0.0443  0.0777
15432W        W31566  16.723   1.032  12.805 -0.1550 -0.2173 -0.0017
15433W        W31567   7.637  15.569   2.225 -0.1261 -0.0829 -0.0355
15434W        W31568   7.498   7.734  11.648 -0.0257 -0.1481  0.2371
15435W        W31569   7.201   3.538   4.933 -0.1614 -0.1613 -0.0362
15436W        W31570  17.413   5.089   3.527 -0.2134  0.1517 -0.3195
15437W        W31571  12.568  17.212  14.742  0.0126 -0.1646  0.2237
15438W        W31572  14.898   7.344  13.167 -0.2593  0.0124 -0.1214
15439W        W31573  17.383   5.808   2.794  0.0686  0.3430  0.0934
15440W        W31574  12.669  14.253   4.356  0.1794  0.0295  0.2261
15441W        W31575  14.270   3.419   5.168  0.0318  0.0274 -0.2221
15442W        W31576   9.640  17.311   2.637  0.1229 -0.0151 -0.0928
15443W        W31577   8.514   5.994  14.914  0.0283 -0.1454  0.1014
15444W        W31578  14.512   2.612   5.654 -0.0552 -0.2729  0.0116
15445W        W31579   1.002  18.318  14.136  0.3163  0.1499  0.3709
15446W        W31580  14.843   4.327   5.134 -0.0334  0.1055 -0.0481
15447W        W31581   9.179  16.642   2.265  0.0419 -0.0263 -0.0320
15448W        W31582   8.640  14.996   3.065  0.0890  0.0132 -0.0070
15449W        W31583  15.052  16.575  15.239  0.1377 -0.1543 -0.1894
15450W        W31584  15.896   4.057  14.827 -0.0433 -0.0122 -0.1581
15451W        W31585   4.855   3.506   1.509 -0.0196 -0.0060  0.2483
15452W        W31586  15.724  17.193  12.859 -0.1173 -0.2744 -0.2229
15453W        W31587   6.573  15.233   5.287  0.1091 -0.2649  0.4085
15454W        W31588  16.265  12.943  13.590 -0.1112 -0.3859  0.1685
15455W        W31589   5.257   2.886   2.803  0.0876 -0.1549  0.0301
15456W        W31590  11.277  10.401   3.807 -0.2442 -0.3768 -0.3170
15457W        W31591  18.128   9.883  13.449 -0.1278 -0.0214 -0.0621
15458W        W31592   4.801  13.983   4.909  0.0976  0.2081 -0.1621
15459W        W31593   3.204   7.690  11.951  0.5975  0.3164 -0.3788
15460W        W31594   9.490  16.969  15.979  0.0497  0.0955  0.2162
15461W        W31595   0.476  17.816   3.551  0.0273 -0.2860  0.0500
15462W        W31596   4.894   7.013  12.143 -0.0611  0.2193  0.2403
15463W        W31597  15.056   6.378   4.653  0.0030 -0.0827  0.0052
15464W        W31598   1.895   6.873   2.912  0.0669 -0.2107  0.1953
15465W        W31599   1.150  15.891  12.710 -0.1173  0.2302  0.1312
15466W        W31600   2.559   8.540   4.270  0.1509  0.4807  0.2961
15467W        W31601   0.410  16.118   3.118  0.1032  0.2556 -0.3091
15468W        W31602   3.287   3.924  11.713  0.0034 -0.0926  0.0831
15469W        W31603  10.846   6.152   0.902  0.1141 -0.1057  0.1914
15470W        W31604  16.584   1.568   1.705  0.1584  0.1243  0.1028
15471W        W31605   9.206  10.020   5.342 -0.2160  0.0009  0.0848
15472W        W31606   1.438  13.076   0.731 -0.2037 -0.0405  0.1263
15473W        W31607  13.434   8.250   4.553 -0.0314  0.1709  0.0512
15474W        W31608  15.687  17.429  12.360  0.0771 -0.2874 -0.0619
15475W        W31609   5.934  15.221  12.356  0.3493  0.2464 -0.0492
15476W        W31610  15.410  15.462   3.901  0.0378  0.1817  0.2628
15477W        W31611   3.472   2.067  14.184 -0.2098 -0.0249 -0.0951
15478W        W31612  17.485  18.248   1.213 -0.1056 -0.2370  0.1410
15479W        W31613   6.958  11.416   4.980  0.0055 -0.1870 -0.0802
15480W        W31614  15.701   9.186   0.993 -0.0212 -0.0983  0.0505
15481W        W31615  13.338  12.599   2.038  0.1362 -0.1809  0.2530
15482W        W31616  11.113   4.411  12.249  0.1281 -0.2279 -0.1083
15483W        W31617   5.795   8.714  12.231 -0.2818 -0.0430 -0.0852
15484W        W31618  18.485   0.588  12.456  0.0592 -0.1192  0.1349
15485W        W31619   4.991   5.832  13.574  0.0901 -0.0059 -0.1389
15486W        W31620  12.592   8.810  12.821 -0.2440 -0.1694  0.1527
15487W        W31621  13.988   3.014   4.533 -0.0081 -0.1798  0.0262
15488W        W31622   5.601   0.147   0.959  0.1047 -0.1247 -0.0244
15489W        W31623  10.022   5.714   0.433  0.0566  0.2238 -0.2750
15490W        W31624  18.465  11.485  15.868 -0.1141  0.0035  0.0498
15491W        W31625   5.775   7.106   3.282 -0.0395  0.2909  0.0861
15492W        W31626  17.309   1.669  14.561  0.0368  0.0046 -0.1641
15493W        W31627  14.303   1.341   1.015  0.0571 -0.1952 -0.0625
15494W        W31628   0.041   9.530   3.283  0.0526  0.0971  0.0666
15495W        W31629   1.251   5.970  14.694  0.2326 -0.2058  0.0655
15496W        W31630   3.231   6.137   0.206  0.2878  0.1665  0.2994
15497W        W31631   2.613  16.697  11.938 -0.0186 -0.3322  0.0246
15498W        W31632   3.304  17.456  11.722 -0.2489  0.0960 -0.0926
15499W        W31633  14.503  10.088   4.604  0.1019 -0.1893  0.1738
15500W        W31634  11.679  17.171  13.477 -0.1039 -0.2056  0.1914
15501W        W31635   5.684   6.282  14.374 -0.0035 -0.1540 -0.0710
15502W        W31636   8.901  17.556   3.723  0.1181  0.0509 -0.0661
15503W        W31637   7.799  13.908  12.601  0.0885  0.1042  0.0053
15504W        W31638  11.323   0.515  13.024  0.0316 -0.2929  0.1993
15505W        W31639   3.863   0.171  11.913  0.1075 -0.1598  0.1386
15506W        W31640  12.639  17.259   1.748 -0.5426 -0.0493 -0.1275
15507W        W31641   5.628  10.980  14.324 -0.1686 -0.0002  0.1235
15508W        W31642  15.766  13.604   3.879 -0.1321 -0.2080  0.0502
15509W        W31643   0.586   5.931  15.827 -0.1485  0.1343  0.2066
15510W        W31644  11.064   6.861  11.550 -0.0180  0.2089 -0.1901
15511W        W31645   8.223   0.672   3.273 -0.2141 -0.1237  0.1392
15512W        W31646   0.080  10.092  15.197  0.0864  0.0681 -0.0363
15513W        W31647  15.127  11.298  14.017  0.3517 -0.3009 -0.2156
15514W        W31648   2.710  15.278   4.582  0.0156 -0.0614 -0.2197
15515W        W31649   5.288   0.844  11.401  0.0828  0.4897  0.3352
15516W        W31650   3.552  10.959   3.025 -0.1565  0.0074 -0.0823
15517W        W31651  15.694   1.902  14.804 -0.0532  0.4053 -0.4349
15518W        W31652  10.298  13.908   3.697  0.0363 -0.0636  0.1077
15519W        W31653  11.410   5.136   4.538  0.1361  0.1907  0.1679
15520W        W31654  15.225   9.431   3.194  0.1321  0.0927 -0.0061
15521W        W31655  13.245   5.186   3.370 -0.2452 -0.1419  0.0780
15522W        W31656   9.546   8.757   3.897 -0.1750  0.0216  0.1890
15523W        W31657   0.780  13.687  15.076 -0.1679  0.3509  0.0412
15524W        W31658  13.352   3.755  14.411  0.0916  0.4344  0.0682
15525W        W31659   1.338  13.462  13.006 -0.0952  0.3460 -0.0391
15526W        W31660   0.945  11.292   4.104 -0.0314  0.0249 -0.0351
15527W        W31661   5.275  16.072   4.312  0.0008  0.0050  0.0290
15528W        W31662   4.133   0.142  12.348 -0.0802 -0.1026  0.4161
15529W        W31663   7.678   8.089   3.483 -0.1673 -0.1397 -0.3026
15530W        W31664  18.188  14.192  15.891 -0.2440 -0.1959 -0.1963
15531W        W31665   3.054   6.787   2.647  0.1384  0.2129  0.1137
15532W        W31666  12.755  18.334   2.623 -0.3887  0.2571 -0.1540
15533W        W31667  14.217   2.921  15.321 -0.1940  0.2537 -0.0855
15534W        W31668   7.624   4.335  13.390 -0.0097 -0.0085  0.0202
15535W        W31669   9.923  13.711   2.340 -0.3301 -0.1279  0.0082
15536W        W31670   3.212   3.476   0.259 -0.2302  0.1060 -0.0517
15537W        W31671   9.308  10.732   4.579  0.0253 -0.2505 -0.0578
15538W        W31672  15.136   3.741  12.456 -0.0593 -0.0795  0.0725
15539W        W31673  17.432   6.529   3.876  0.3600  0.3068 -0.2189
15540W        W31674  17.688   0.010  15.476 -0.1065  0.2212 -0.0823
15541W        W31675   7.435  17.168  14.851  0.4527 -0.0191 -0.0541
15542W        W31676   4.473   5.074  13.322 -0.2413  0.0751  0.1252
15543W        W31677   5.134   1.903  14.851 -0.0424 -0.1173 -0.2542
15544W        W31678   8.890  17.856   2.798  0.2326 -0.0336 -0.0843
15545W        W31679   7.712  14.062  13.625  0.2000  0.3259 -0.1073
15546W        W31680   4.237   1.598  15.838  0.0856  0.3364  0.3303
15547W        W31681   5.435   5.955   2.700 -0.3523  0.0126  0.0001
15548W        W31682   5.507  10.260   0.718  0.0985  0.0701 -0.1721
15549W        W31683   6.063   4.061   2.423  0.3982  0.1645  0.0663
15550W        W31684   1.518  12.738   1.814 -0.1442  0.0651  0.2933
15551W        W31685   4.408  16.326   0.828  0.2754 -0.2616 -0.1890
15552W        W31686   8.610   7.812   1.252  0.4392  0.2725  0.2368
15553W        W31687  16.896   4.894   0.692  0.0028  0.4389 -0.4006
15554W        W31688   5.182  11.410   4.098  0.1135  0.0522 -0.0538
15555W        W31689   0.464  16.609   0.287 -0.2793  0.2420  0.2484
15556W        W31690  14.715   7.109   4.284  0.2293  0.0969 -0.1562
15557W        W31691  15.633  17.343  11.100  0.2921  0.1797  0.3091
15558W        W31692  10.448   3.986  15.223 -0.0185  0.0235  0.0434
15559W        W31693  13.519   0.711  12.314 -0.2669 -0.1132 -0.1257
15560W        W31694   8.053  17.065   2.018 -0.3172  0.0406 -0.0750
15561W        W31695   9.640  12.106   0.651  0.0963 -0.0888  0.1886
15562W        W31696   4.518   9.090  12.194 -0.0435  0.1731 -0.1926
15563W        W31697   0.563   8.427  13.116 -0.2226  0.0820  0.1343
15564W        W31698   1.083   5.617   1.783 -0.0849  0.4678 -0.1736
15565W        W31699   9.797  18.492  15.591  0.0909  0.0271  0.2384
15566W        W31700   2.429  17.844   1.995  0.4228 -0.2568 -0.1624
15567W        W31701   2.772  17.930  12.738 -0.2742  0.1099 -0.0204
15568W        W31702   3.192   2.234  15.264 -0.2179 -0.0438  0.2472
15569W        W31703   3.236   1.940   3.876  0.2143  0.0676 -0.1439
15570W        W31704   2.542  18.256  14.865  0.2079  0.0800 -0.0660
15571W        W31705   7.219  16.695   4.668  0.0427 -0.1400  0.0955
15572W        W31706  11.518   5.364   0.840  0.0516  0.0902  0.3054
15573W        W31707   2.950   9.355  13.537  0.1421  0.1885 -0.1274
15574W        W31708  11.623   6.809  14.202  0.0392  0.1857  0.1537
15575W        W31709   1.120  10.954  11.179  0.3388  0.0242  0.1420
15576W        W31710   1.100  11.333  13.489 -0.1046  0.0148 -0.3217
15577W        W31711  13.410   5.765   1.632 -0.3244  0.0243 -0.3823
15578W        W31712   6.474  13.805   3.462 -0.2460 -0.3450  0.0885
15579W        W31713  17.329   2.354   4.691  0.0434  0.1325 -0.0993
15580W        W31714  13.086   5.409  11.495 -0.0307 -0.0841 -0.3433
15581W        W31715  15.003   1.824   4.566  0.0120 -0.2463  0.0554
15582W        W31716   9.744   9.565   0.381  0.0406  0.0248 -0.0301
15583W        W31717   5.205  14.353  10.741 -0.2822 -0.2078 -0.1938
15584W        W31718   2.864   0.456   9.932  0.0476  0.3251  0.1662
15585W        W31719  14.249   4.255   0.417 -0.2140 -0.2719  0.1132
15586W        W31720  14.929  17.187   5.090 -0.0280 -0.2548  0.0780
15587W        W31721  10.522   4.964  13.598  0.0808 -0.4602  0.1820
15588W        W31722  10.367  13.027   5.444 -0.1067  0.0872 -0.0592
15589W        W31723  10.215  15.122  13.411 -0.0715  0.0767 -0.0216
15590W        W31724   5.947   3.608  11.637 -0.1942 -0.5043  0.0358
15591W        W31725  17.363  13.945  11.488 -0.0408  0.0783 -0.1372
15592W        W31726   4.115  12.759   4.802 -0.1677  0.1507 -0.2109
15593W        W31727  16.762  13.243   3.158  0.2607 -0.0925 -0.1179
15594W        W31728   0.957  10.219  14.149  0.1209 -0.1369 -0.0092
15595W        W31729  13.600  12.049  15.298  0.2375  0.1893  0.3656
15596W        W31730  11.953   2.766  14.411  0.0356  0.0474  0.3598
15597W        W31731   1.329  14.510   3.058 -0.0198  0.3247  0.2085
15598W        W31732  16.913  12.706   0.839 -0.1406  0.0647 -0.3050
15599W        W31733   1.816   5.436  12.987 -0.2309 -0.2438  0.2156
15600W        W31734   2.731   6.827  14.646 -0.2117  0.1363  0.0865
15601W        W31735   4.994  14.466  14.957  0.3364 -0.1290 -0.4271
15602W        W31736   8.628  10.133  12.536  0.0267  0.1149  0.3499
15603W        W31737  15.903  17.129   1.149  0.0412 -0.0673 -0.2459
15604W        W31738   9.399  10.538  15.373  0.1246  0.0460 -0.0441
15605W        W31739  15.679   7.313   4.636 -0.0766  0.1752 -0.1025
15606W        W31740  12.557   9.622   3.120 -0.1409  0.2734 -0.2534
15607W        W31741  13.536  10.692   5.341  0.0450  0.1049  0.1649
15608W        W31742   3.095   4.732   2.350 -0.2098 -0.1481  0.0526
15609W        W31743  15.846   6.572  10.611  0.1882 -0.2509  0.0848
15610W        W31744  17.447   6.339   4.805  0.0521 -0.0473 -0.0359
15611W        W31745  11.351  16.803  11.761  0.2753 -0.0612  0.0514
15612W        W31746   7.600  13.588  11.407  0.1705 -0.1839  0.2234
15613W        W31747  16.925  14.725  13.404 -0.2264  0.2759 -0.2124
15614W        W31748  15.114  10.316  12.621 -0.0656  0.2545 -0.1043
15615W        W31749   9.932  16.096   5.123 -0.0099 -0.0130  0.3523
15616W        W31750  15.906   9.731   1.014  0.2304  0.0876 -0.0583
15617W        W31751   0.296  13.853   1.385 -0.0080 -0.2465 -0.2615
15618W        W31752   8.831   0.504   0.580  0.0592  0.3897 -0.1760
15619W        W31753  14.575  12.934   3.019  0.1748 -0.1404  0.1017
15620W        W31754   4.515  10.313  14.854  0.0820 -0.3122  0.0276
15621W        W31755  17.079  16.406   1.149 -0.2669 -0.1921  0.0353
15622W        W31756  17.295   3.829  15.846 -0.0210  0.0755 -0.2155
15623W        W31757   8.412  16.727  15.416  0.0476  0.1693  0.0985
15624W        W31758  16.951   3.945   1.793  0.0996  0.1548 -0.2189
15625W        W31759  14.111  14.937  15.485  0.0411 -0.3589  0.0582
15626W        W31760  16.519  11.263  13.560 -0.0895 -0.0078 -0.2142
15627W        W31761  18.461   4.391   5.144  0.0132 -0.0252  0.2466
15628W        W31762  15.600  16.481  11.430  0.0941 -0.2318  0.0640
15629W        W31763  17.839  16.818  12.103 -0.1461 -0.2702  0.0043
15630W        W31764   4.206   3.093   0.975 -0.2512  0.0481  0.4074
15631W        W31765   8.249  13.928   4.115 -0.2216 -0.0004 -0.1950
15632W        W31766   8.974   7.420   0.967 -0.1092  0.0631  0.0909
15633W        W31767  15.989  11.162   2.732  0.0797  0.0919  0.2192
15634W        W31768  13.947  18.459  15.759  0.1494 -0.3540  0.1169
15635W        W31769   1.494  10.686   4.922  0.1096 -0.0550 -0.0720
15636W        W31770   9.697   7.062  14.143 -0.2861 -0.0224  0.1462
15637W        W31771   0.571   9.422  13.022  0.0663 -0.5433 -0.2495
15638W        W31772  10.433   7.129   2.337 -0.2277 -0.0085 -0.1435
15639W        W31773  11.724   0.795  13.331 -0.0064  0.0009 -0.1002
15640W        W31774  16.212   0.587  15.487 -0.1105  0.1449 -0.2241
15641W        W31775   4.420   3.519  13.301  0.1533 -0.0220 -0.0126
15642W        W31776   0.524  14.878  14.240 -0.0323  0.1901  0.1973
15643W        W31777  14.050   2.236   3.447  0.1989  0.0950 -0.1226
15644W        W31778  16.984  13.279  10.952  0.0990  0.2064  0.1603
15645W        W31779  18.285   9.736  11.649 -0.0240  0.1244  0.1213
15646W        W31780   4.583   6.270   3.682  0.0073  0.1173 -0.1128
15647W        W31781  15.085  10.978   2.303 -0.0993 -0.2702  0.1435
15648W        W31782   6.752   9.988  11.899 -0.3913  0.2291  0.4437
15649W        W31783   3.191  17.489  12.834 -0.5473 -0.1648 -0.0346
15650W        W31784  12.854  10.055   2.265  0.4175 -0.1817 -0.2312
15651W        W31785  11.060  17.745  14.903 -0.1863 -0.1382 -0.0115
15652W        W31786   7.543  10.162  12.534  0.1045  0.1880  0.0816
15653W        W31787   8.004   4.715   4.700  0.1432 -0.4195  0.0269
15654W        W31788  16.303   7.028  14.304 -0.0489 -0.1493  0.0638
15655W        W31789   4.231   9.882   3.548  0.0650  0.1010 -0.0236
15656W        W31790  14.124   5.072   0.303 -0.3216  0.0646 -0.2761
15657W        W31791  13.352   3.939  15.203  0.0853  0.1395 -0.0572
15658W        W31792  12.790  16.522   2.073 -0.1286  0.1722  0.0273
15659W        W31793   2.450   0.286   4.961  0.0275  0.0054  0.3856
15660W        W31794   6.091   3.673  14.845  0.1560  0.2212 -0.0524
15661W        W31795   0.782   8.848   2.505 -0.0064  0.2104 -0.0236
15662W        W31796   6.458   4.310  13.087  0.2970 -0.1227  0.0565
15663W        W31797   9.583  14.711  11.176 -0.0375 -0.2065 -0.2003
15664W        W31798  10.975   1.805   0.514 -0.3066 -0.2360 -0.0469
15665W        W31799   7.009  13.833  12.969 -0.0688 -0.2245  0.4424
15666W        W31800  18.143   8.118   0.280  0.0008 -0.2223 -0.0079
15667W        W31801   2.969  17.164  14.164  0.1968 -0.0037 -0.0981
15668W        W31802  10.481   5.739  12.431  0.5387 -0.1076  0.1569
15669W        W31803   8.131   6.260   1.078 -0.3244 -0.1159  0.3387
15670W        W31804  16.734   6.919  14.537  0.1235 -0.1050 -0.0712
15671W        W31805  17.638   8.213   5.110 -0.1451 -0.1142 -0.1658
15672W        W31806   0.933   9.685   4.348  0.0039  0.0343 -0.0197
15673W        W31807   8.276  18.442  13.025 -0.0484 -0.2063  0.3315
15674W        W31808  18.374  13.590   3.634 -0.3062 -0.0669 -0.0158
15675W        W31809   0.042   6.729   3.955  0.1720 -0.1393 -0.1167
15676W        W31810   9.587   8.648   5.241 -0.1820 -0.2064  0.3032
15677W        W31811   5.320   1.115   3.770  0.1747  0.0540  0.0925
15678W        W31812  12.749   2.830   3.795 -0.0236  0.0659 -0.0270
15679W        W31813  17.772   8.510   5.483 -0.1796  0.0154  0.1208
15680W        W31814  10.735  14.027  14.172  0.1359 -0.0193 -0.1800
15681W        W31815  17.030   1.039   4.146 -0.3656  0.2866  0.0656
15682W        W31816   5.421   4.114   3.129 -0.1557  0.1733 -0.2864
15683W        W31817   9.366   7.698   4.933  0.0418  0.1794  0.1134
15684W        W31818   9.288   2.237  12.459  0.0615  0.0165 -0.1304
15685W        W31819  15.959  12.685  13.846 -0.0243 -0.0567 -0.2970
15686W        W31820   0.608   4.382   3.474 -0.1698  0.0567 -0.1419
15687W        W31821  15.649   8.670  14.624  0.1067  0.1126  0.1173
15688W        W31822   2.519  18.484   2.515 -0.0271 -0.2223 -0.1837
15689W        W31823   7.185  17.576  14.912 -0.1799 -0.0055  0.0636
15690W        W31824  18.375  14.714  10.874 -0.5209  0.1215  0.0795
15691W        W31825   0.210   6.520  13.229 -0.1270  0.1869  0.1287
15692W        W31826   9.467  12.923  11.900  0.1342  0.5504  0.1943
15693W        W31827  12.113   4.667  12.328 -0.0484  0.1174 -0.0891
15694W        W31828  11.626  13.947   3.481  0.0597  0.0534 -0.3031
15695W        W31829  15.392   0.394   4.864  0.0868 -0.2397  0.0545
15696W        W31830  15.484   6.982   0.101  0.1655 -0.3804 -0.0056
15697W        W31831  16.976  10.274  14.485 -0.0744  0.1397 -0.0062
15698W        W31832  14.390   3.032   0.814  0.0035  0.0947  0.1723
15699W        W31833   5.580  18.148  13.732  0.1472  0.0003 -0.2825
15700W        W31834  13.079   4.742   4.486 -0.2067 -0.1468 -0.1829
15701W        W31835  17.094  10.778  14.910  0.0152 -0.1257  0.0344
15702W        W31836  15.529  12.740   3.397 -0.0984 -0.2013  0.3266
15703W        W31837  16.965  17.581   3.171 -0.1036  0.1438 -0.5144
15704W        W31838   4.838   8.832  11.846  0.3109  0.0636 -0.2020
15705W        W31839  12.439   4.979  12.534  0.1296 -0.1766  0.0741
15706W        W31840  12.623  11.676   4.916  0.0779 -0.0995  0.1142
15707W        W31841  12.777   9.189  12.533  0.3857 -0.0873  0.1858
15708W        W31842   9.969  12.504   4.141 -0.2561  0.0614 -0.3372
15709W        W31843   7.026   7.256   1.936 -0.0537 -0.0983  0.3811
15710W        W31844   2.829   3.752   2.428 -0.2961 -0.1982 -0.2127
15711W        W31845   7.404  13.397  14.680 -0.1931 -0.1420  0.2319
15712W        W31846   3.431   1.082   3.272  0.0450 -0.3339  0.1902
15713W        W31847  18.413  17.290   2.925 -0.0962 -0.1821 -0.1279
15714W        W31848  10.421   3.688   5.108 -0.0790 -0.0020 -0.1077
15715W        W31849   4.097  13.242   4.647 -0.2092  0.3559  0.0088
15716W        W31850   8.750   3.672   3.543  0.2238  0.2442  0.1183
15717W        W31851   3.911  15.863   3.059  0.0435 -0.0520  0.0661
15718W        W31852   3.437  13.275   2.210  0.1939  0.1503  0.0329
15719W        W31853   1.766  11.061  12.813 -0.0945 -0.0691  0.0817
15720W        W31854  10.626   6.738  14.044 -0.1457  0.1897 -0.2557
15721W        W31855   0.912   5.900  11.052  0.2797 -0.0219 -0.1564
15722W        W31856   2.088  12.664  12.294  0.4131 -0.1787 -0.2869
15723W        W31857  13.677   3.275  14.270 -0.2126  0.0820 -0.0599
15724W        W31858   7.011   0.299   2.373  0.2239 -0.1204 -0.4060
15725W        W31859   3.854   7.982  14.543  0.1356 -0.2081  0.1924
15726W        W31860  13.947  15.476   5.520 -0.0550 -0.0129  0.2964
15727W        W31861  14.894  11.737   1.056  0.2822 -0.0647  0.1542
15728W        W31862  15.110   0.219   3.265 -0.0660  0.3192 -0.1684
15729W        W31863   8.526   8.286  14.641  0.0052 -0.2072 -0.2304
15730W        W31864  11.660   1.184  15.543 -0.0497 -0.3343  0.0036
15731W        W31865   5.381  10.607   0.316  0.2455  0.0919 -0.4219
15732W        W31866  18.240   6.118   3.846  0.3344  0.0823 -0.0185
15733W        W31867   0.372   3.978  15.469  0.1157 -0.2479  0.2018
15734W        W31868   3.666   1.483   3.610  0.1002 -0.0182  0.0995
15735W        W31869   3.454   0.324   0.198 -0.0456  0.0283  0.3184
15736W        W31870   9.626  14.732   3.641 -0.3845 -0.0749  0.0890
15737W        W31871   0.909   7.819   2.374  0.2159 -0.1061 -0.0752
15738W        W31872  10.735  14.839   1.465 -0.3134 -0.0084  0.0750
15739W        W31873   9.868   2.266  15.193  0.1867 -0.0303  0.3037
15740W        W31874  10.517  16.335   0.872 -0.0014  0.0374 -0.3333
15741W        W31875  15.765   3.038  15.503  0.1536 -0.1330  0.1976
15742W        W31876  12.905   2.328   5.149 -0.1719 -0.0198  0.0530
15743W        W31877   0.944   8.794   1.500  0.0532  0.0484  0.0265
15744W        W31878  16.132  10.582   0.506  0.0564  0.1553  0.0807
15745W        W31879   3.161   9.227   2.726  0.0396 -0.3217 -0.0824
15746W        W31880  12.097   4.006   1.983  0.3345 -0.1884 -0.4148
15747W        W31881   1.573  16.812   1.557 -0.1420  0.1304  0.2811
15748W        W31882  10.185  15.913   4.719 -0.0882 -0.0261  0.0730
15749W        W31883   6.353  15.986   3.094 -0.0582 -0.1914  0.2509
15750W        W31884   3.276   2.334   5.520 -0.0327  0.0974 -0.0400
15751W        W31885   3.099  17.017  11.581 -0.1017 -0.0673  0.1308
15752W        W31886   1.093  11.726  15.437  0.1659  0.0871 -0.1500
15753W        W31887  10.123   6.755   5.661  0.1270  0.2244 -0.1813
15754W        W31888   9.939   9.413  15.556 -0.0418 -0.2071 -0.0843
15755W        W31889   0.691  10.552  14.484 -0.1107 -0.3544 -0.2671
15756W        W31890  12.680   0.476  14.896  0.1832  0.1262  0.1999
15757W        W31891  11.657  17.267   4.078 -0.0214  0.2997  0.1757
15758W        W31892  13.990  13.499   1.093 -0.0886  0.4181 -0.1939
15759W        W31893   0.115  12.994  14.631  0.0995  0.2494 -0.1380
15760W        W31894   0.128   5.869  10.635 -0.0452  0.1602 -0.0594
15761W        W31895   7.289   9.784  14.244 -0.0403  0.2757 -0.1429
15762W        W31896  14.057   8.230  11.173  0.2313 -0.0496 -0.0503
15763W        W31897   7.308   7.221   1.498 -0.1042 -0.0660 -0.0856
15764W        W31898   9.390   7.169   1.142 -0.0000 -0.0784 -0.2813
15765W        W31899  14.336   0.878  12.004  0.3013  0.2886 -0.1980
15766W        W31900  14.433   9.795  15.426  0.1985 -0.2259 -0.1180
15767W        W31901   4.541  11.425   2.072 -0.4285 -0.1881  0.0865
15768W        W31902  10.956  15.875  15.598 -0.1215 -0.2229 -0.2717
15769W        W31903  10.350  10.948  12.393 -0.0382  0.3659 -0.2944
15770W        W31904   0.537  14.280  12.097 -0.0353  0.1687  0.0458
15771W        W31905   7.819   6.423  12.522  0.0412  0.0858  0.0551
15772W        W31906   6.478   6.429   6.194 -0.1276 -0.0642  0.4438
15773W        W31907  18.032   9.504   2.057  0.2814  0.1343  0.2628
15774W        W31908   6.982   3.773  11.250  0.0871 -0.1606  0.1447
15775W        W31909   8.950   0.736   1.863  0.0988 -0.1803  0.1079
15776W        W31910   1.307   4.918  15.026  0.0768 -0.2098  0.2676
15777W        W31911  12.799  16.917   0.502 -0.1959  0.0743 -0.1678
15778W        W31912  16.824   3.556  11.487  0.5829 -0.1708  0.0925
15779W        W31913   6.902   0.510   0.080  0.0263  0.1490 -0.2458
15780W        W31914   3.236  18.090   4.193 -0.1652 -0.0650  0.2184
15781W        W31915   3.463  17.174  12.566 -0.1254 -0.1993  0.2017
15782W        W31916   1.935  13.563  14.321  0.0136 -0.1470 -0.0743
15783W        W31917   8.657  10.577  11.748 -0.2947 -0.0648  0.1842
15784W        W31918   2.237   5.600   0.672  0.0566  0.1244 -0.0026
15785W        W31919   2.543   4.090  12.696  0.2185  0.0570 -0.4482
15786W        W31920  12.478  18.171  14.988  0.1743 -0.2766  0.1111
15787W        W31921   6.434  13.022  11.121  0.0133 -0.1736 -0.1263
15788W        W31922   0.475  17.494  12.745 -0.1339  0.0581 -0.1301
15789W        W31923   3.285   4.841   1.364  0.2311  0.0587  0.0023
15790W        W31924   2.728   9.304  13.034 -0.2099  0.0119  0.0431
15791W        W31925  17.902   5.091   4.988  0.1128  0.0758  0.2161
15792W        W31926   8.721  15.169  15.892 -0.0004  0.1406 -0.0042
15793W        W31927   2.545   3.343   4.216 -0.1831 -0.3067  0.1429
15794W        W31928   1.294  13.391  14.876 -0.3947  0.1890  0.0918
15795W        W31929  11.328   8.855  12.493 -0.2064 -0.1836  0.1930
15796W        W31930  14.597  13.894  12.505 -0.1600  0.5385 -0.0815
15797W        W31931   4.110  14.857   0.228  0.3093 -0.1342 -0.2170
15798W        W31932   4.833  16.241  10.754  0.0305  0.0446  0.1007
15799W        W31933  13.718  15.543  10.939  0.0306 -0.0773  0.3732
15800W        W31934   6.235   9.773   4.394 -0.2989  0.1227  0.1995
15801W        W31935   4.803  11.034  11.469 -0.0502 -0.0465  0.0457
15802W        W31936   1.910  10.283  10.473  0.2584 -0.4450 -0.1231
15803W        W31937  17.425  13.149   2.757  0.1020 -0.2183 -0.1744
15804W        W31938   9.449   2.761   3.468 -0.1980  0.0723 -0.0839
15805W        W31939   7.907  10.855  15.605  0.2176  0.2212 -0.0191
15806W        W31940  11.900   5.159  13.194  0.0302 -0.0865 -0.0455
15807W        W31941  14.985  10.068   1.891 -0.1419 -0.0834  0.0414
15808W        W31942  12.282   0.542  12.471  0.0127 -0.1993 -0.3276
15809W        W31943   0.267   1.920  10.358 -0.1214 -0.1773  0.0365
15810W        W31944  17.721  12.347  11.545  0.4091  0.0149  0.0740
15811W        W31945   0.344  13.068   0.962  0.6372  0.0588  0.1187
15812W        W31946   8.874  18.498   0.609 -0.4064 -0.1423  0.2642
15813W        W31947   6.517   2.063   2.372 -0.0345 -0.2002  0.0337
15814W        W31948   1.162  12.603  13.314  0.0988 -0.2318  0.0714
15815W        W31949   7.867   8.541  12.150 -0.3544  0.0241  0.0051
15816W        W31950   7.333  12.256  15.516  0.2044 -0.3460  0.1486
15817W        W31951   6.451   9.505   2.553 -0.1166  0.1787 -0.1034
15818W        W31952   2.483  11.735  13.210 -0.1080  0.0518 -0.4143
15819W        W31953   0.583  14.052   5.380  0.3831  0.1567 -0.1318
15820W        W31954  10.975   8.944   3.104 -0.0265 -0.2379  0.2395
15821W        W31955  14.569  13.562   3.763  0.2694 -0.3131 -0.0565
15822W        W31956   3.402   3.425   4.524  0.2996 -0.1795  0.0565
15823W        W31957  13.196  12.652   2.930  0.1996  0.0206  0.2660
15824W        W31958   2.545   0.271   5.956 -0.6287  0.0454  0.0077
15825W        W31959  10.118  14.523   2.595 -0.0735 -0.1543 -0.0122
15826W        W31960  12.698   3.875   6.277 -0.1826  0.0512 -0.3566
15827W        W31961   8.272   9.580  15.847 -0.2192  0.0748  0.1958
15828W        W31962   4.574  16.783  15.650 -0.2756 -0.1605 -0.3476
15829W        W31963  16.223  12.470   3.933 -0.0189  0.1045  0.1248
15830W        W31964  11.702  10.684   1.115 -0.0100 -0.2934  0.3057
15831W        W31965   3.100   2.751  11.990  0.3429  0.0698 -0.1142
15832W        W31966   2.861  14.212  15.331 -0.1846 -0.1505  0.1120
15833W        W31967  14.783   6.319   3.208 -0.1368  0.0541  0.0542
15834W        W31968  14.329  15.811  12.198  0.2259  0.1059  0.0028
15835W        W31969  11.220   1.182  14.221  0.0410 -0.1046 -0.0804
15836W        W31970  15.742   3.115   4.032 -0.1083  0.3372 -0.1505
15837W        W31971  10.133   8.540   1.210 -0.2288 -0.0779  0.2143
15838W        W31972   8.104   7.323   5.837  0.2943 -0.1610 -0.0263
15839W        W31973  12.602   4.796   4.764 -0.2002  0.0050  0.1073
15840W        W31974  10.824  10.466   5.341 -0.1149 -0.1903  0.2182
15841W        W31975  12.840  18.402  12.679 -0.3461  0.0430  0.2410
15842W        W31976  16.885  18.061  13.762  0.2374 -0.1217 -0.5199
15843W        W31977  13.051   3.106   6.079 -0.0977 -0.0302  0.1584
15844W        W31978   1.749  11.836  13.591 -0.1255  0.0425 -0.0286
15845W        W31979   1.026  18.225  12.463  0.0993  0.0495 -0.1626
15846W        W31980   7.734   2.890  14.433 -0.1363 -0.1686  0.3194
15847W        W31981  15.088  10.473  13.872  0.3292 -0.0316  0.1669
15848W        W31982  13.684  10.835   0.125  0.2765 -0.0746  0.1170
15849W        W31983   4.387  14.271  11.058  0.1809  0.1261 -0.0104
15850W        W31984  14.436   0.362  13.342  0.0329 -0.0578 -0.0271
15851W        W31985  12.211  14.395  13.692  0.3294 -0.0372 -0.1860
15852W        W31986   3.985   6.001   4.474  0.1223 -0.0353  0.0457
15853W        W31987   6.851   4.269  15.098  0.1179  0.1604 -0.1921
15854W        W31988  11.343   1.218   5.595  0.0924  0.0577  0.0382
15855W        W31989  16.502  12.222   4.956 -0.1632 -0.1917 -0.1780
15856W        W31990   2.347   9.946   0.198  0.0374 -0.1615  0.0539
15857W        W31991   7.783   3.366   2.001 -0.3098  0.1023  0.2005
15858W        W31992  12.166   6.357   2.439 -0.2013 -0.0391  0.1508
15859W        W31993   9.991   3.999   1.519  0.2122  0.1444 -0.1722
15860W        W31994   8.197  13.304  14.166 -0.0395 -0.1773  0.1160
15861W        W31995  13.503   6.659   4.508  0.1362  0.1675 -0.3753
15862W        W31996  16.446   9.725   3.885  0.1504  0.2121 -0.0592
15863W        W31997   3.669   3.645   2.400  0.0253 -0.0160 -0.2040
15864W        W31998  12.357  18.021   3.610 -0.1533  0.1282 -0.2415
15865W        W31999  13.852   1.052   2.843  0.0613  0.4252  0.1625
15866W        W32000  18.094  11.820   2.468 -0.0293  0.2423 -0.0059
15867W        W32001   4.744   1.233   4.537 -0.2566 -0.1112  0.1518
15868W        W32002  10.763  13.092  13.596 -0.3966 -0.1274 -0.0440
15869W        W32003   5.221   8.366  11.966 -0.0736  0.2584 -0.1093
15870W        W32004   9.837  13.430  12.481 -0.0083  0.0201 -0.2682
15871W        W32005  14.368  17.877  11.899  0.0906 -0.2218  0.2388
15872W        W32006   8.693   7.221  14.296  0.0480 -0.1748 -0.0205
15873W        W32007   0.276   1.528   3.429 -0.2884 -0.2999 -0.2294
15874W        W32008  14.607   6.596   1.433 -0.0310  0.2892 -0.0480
15875W        W32009  10.528   4.710   0.866  0.3854 -0.1605  0.3525
15876W        W32010  16.332  10.427   2.773 -0.3005 -0.2840 -0.1806
15877W        W32011   6.695  17.340   5.191 -0.2333  0.2101  0.4703
15878W        W32012  10.716  13.038   4.663  0.2655 -0.2501 -0.0680
15879W        W32013   6.476  16.732   3.963 -0.0195  0.0252 -0.1387
15880W        W32014  14.594   4.011   0.609  0.0456  0.1638 -0.0660
15881W        W32015   8.875   8.798  15.396 -0.0943 -0.1422 -0.0522
15882W        W32016  13.970  11.594  13.219 -0.1750  0.4849 -0.2470
15883W        W32017  18.449   6.375  10.484 -0.2434 -0.0310  0.0555
15884W        W32018   8.099  11.950   0.924 -0.0465  0.0159  0.0624
15885W        W32019  13.742  15.313   3.204 -0.3085 -0.1176 -0.0675
15886W        W32020  13.215  16.884   0.281  0.1135  0.0754 -0.1904
15887W        W32021   5.312   8.316   3.476  0.1492  0.2009  0.0557
15888W        W32022   4.089   2.820   5.197 -0.0670 -0.0974 -0.0802
15889W        W32023   2.815  16.692   0.621  0.1513  0.1048 -0.0099
15890W        W32024   6.277  11.032   1.142  0.2447 -0.1110 -0.1687
15891W        W32025   2.654  12.665   0.249  0.0944  0.0508 -0.1834
15892W        W32026  11.073  18.260   4.017  0.0155 -0.1919  0.2660
15893W        W32027   7.790   7.007   4.256 -0.0275 -0.2514  0.1371
15894W        W32028   1.424   9.979  13.315 -0.1093  0.0812  0.0852
15895W        W32029  13.555  15.086  14.525 -0.1831 -0.2495 -0.0554
15896W        W32030   6.083   1.373   5.239 -0.4113  0.0071 -0.1216
15897W        W32031   0.688   6.908  13.305  0.0170  0.0646 -0.0496
15898W        W32032   2.845   5.491   1.914  0.2729 -0.3493 -0.1075
15899W        W32033  10.740  15.448   0.355 -0.1182 -0.2345 -0.2751
15900W        W32034   1.599   9.245  13.345 -0.3359  0.0608  0.1752
15901W        W32035  10.748   9.165   5.109 -0.0297  0.0620  0.1645
15902W        W32036  11.229   4.596   2.653 -0.1340 -0.1015  0.1166
15903W        W32037   8.258   7.162   1.927  0.0443 -0.3268  0.1639
15904W        W32038  15.595   1.166   5.387  0.3511 -0.0576  0.1124
15905W        W32039   0.813   0.367  11.689 -0.1133  0.0214 -0.0040
15906W        W32040   4.100   6.103   5.754 -0.2861 -0.2243  0.1073
15907W        W32041  16.519   5.245  13.677 -0.0397 -0.4179 -0.0879
15908W        W32042  13.483   9.992  13.074 -0.0732  0.2721  0.3142
15909W        W32043  14.896   8.368  11.934  0.2000 -0.1628 -0.2330
15910W        W32044  16.497   5.437   4.156 -0.2241 -0.1339  0.2353
15911W        W32045  17.799   5.444  10.757  0.0854  0.2256 -0.1893
15912W        W32046   8.746  11.705   4.584  0.2299 -0.2647 -0.0987
15913W        W32047   6.497  10.269   4.647 -0.0173 -0.0371 -0.1470
15914W        W32048   5.734  10.072  12.753  0.0950 -0.1150 -0.1148
15915W        W32049  16.195  13.376  14.894  0.3147  0.1401  0.1113
15916W        W32050   0.313  15.229  13.063  0.0139  0.1244 -0.0059
15917W        W32051   3.097   6.230   2.621  0.0095 -0.1213  0.0252
15918W        W32052  14.827   5.194  11.803 -0.0059  0.2475 -0.2131
15919W        W32053  10.343  12.095   4.089  0.0857  0.1187 -0.2529
15920W        W32054   7.114   9.366   0.826 -0.0564 -0.0715 -0.1766
15921W        W32055  13.542  13.050   6.209  0.2096 -0.4051  0.1123
15922W        W32056   8.721   6.232  12.253  0.1428 -0.1079 -0.2371
15923W        W32057  16.314  11.402  10.499 -0.2222  0.1479 -0.3919
15924W        W32058   4.930  14.298  14.418  0.1913  0.0731 -0.4033
15925W        W32059   8.278  10.011  12.916 -0.1393  0.1175 -0.2057
15926W        W32060  18.013  13.809  14.539 -0.0577  0.0487 -0.3771
15927W        W32061   3.992   5.331   0.114  0.2056  0.0427 -0.0158
15928W        W32062  12.103  10.785  12.731 -0.1518  0.0010  0.1315
15929W        W32063   9.108  14.180   5.396 -0.1338 -0.0173 -0.0223
15930W        W32064   9.033   1.016   0.741 -0.2950  0.0714 -0.0492
15931W        W32065  17.648  15.094   3.752 -0.0233 -0.0691 -0.1017
15932W        W32066   3.053  13.136  10.340  0.0620 -0.0128 -0.1033
15933W        W32067   9.678  13.219  15.814 -0.4064  0.1394 -0.1104
15934W        W32068   9.320  13.702  14.111 -0.0312 -0.2612 -0.1841
15935W        W32069  17.696   8.488   4.410 -0.4932 -0.4647 -0.1974
15936W        W32070   8.756   6.939   2.845 -0.3061  0.0836 -0.0038
15937W        W32071  18.118   6.285   0.758 -0.2731  0.2953  0.3980
15938W        W32072   0.891   5.619  15.575  0.0277  0.2131  0.1168
15939W        W32073   9.923   6.970   0.027  0.3283  0.0040  0.0480
15940W        W32074  17.831   3.006   0.481 -0.0029  0.0966  0.2195
15941W        W32075  15.331  15.407   0.822  0.0005  0.3253  0.4350
15942W        W32076  12.146   4.324  14.819  0.1886 -0.2810 -0.1292
15943W        W32077  14.917  12.932  15.090  0.0425  0.0264  0.2081
15944W        W32078  17.462   8.130  15.224  0.0442  0.1223  0.2082
15945W        W32079   1.589   1.607   3.023  0.1388 -0.1467  0.2149
15946W        W32080   6.759   2.431  12.364 -0.5909 -0.1305  0.4289
15947W        W32081  17.455  11.151   0.690 -0.0749 -0.0564 -0.2034
15948W        W32082   2.825   2.620   4.330 -0.0719  0.2213  0.1080
15949W        W32083  16.257  18.158  12.192 -0.0506 -0.0362 -0.3478
15950W        W32084  11.761   1.615  12.157 -0.1135  0.0623  0.0192
15951W        W32085  18.160   2.546   3.506  0.0904  0.0010  0.0819
15952W        W32086   1.211  17.343  10.335  0.2302 -0.2846  0.2397
15953W        W32087  14.920   5.109  13.657  0.0695  0.0202 -0.0126
15954W        W32088  16.001  18.403   1.708 -0.3010 -0.0289  0.4171
15955W        W32089  10.030  13.173  14.237  0.1552  0.2353  0.1753
15956W        W32090   5.807   5.608   2.887  0.1981  0.1491 -0.1910
15957W        W32091   1.091   9.908   3.919 -0.0712  0.4479  0.2966
15958W        W32092  16.824   2.559   4.657 -0.4971 -0.1119 -0.0352
15959W        W32093  10.213  12.383  13.748  0.2964 -0.2447 -0.2256
15960W        W32094  16.877   3.872  11.873 -0.2124 -0.0492  0.1287
15961W        W32095  10.190   8.784  13.609 -0.1113  0.0939 -0.0568
15962W        W32096   2.605   9.731  11.920  0.1367  0.0711  0.1447
15963W        W32097   4.293   3.292   5.040  0.1352 -0.0161 -0.1165
15964W        W32098   6.001  16.233   2.709 -0.3697  0.1698  0.1971
15965W        W32099  14.127  16.750  12.183 -0.1491 -0.0366  0.1202
15966W        W32100  13.605  11.071  15.333 -0.1227 -0.0361 -0.1340
15967W        W32101  17.626  16.143  10.738  0.1383 -0.0048 -0.0834
15968W        W32102   8.306   1.324   4.272 -0.1050 -0.0053 -0.0543
15969W        W32103   2.002   3.853  12.747  0.1333 -0.1579  0.0681
15970W        W32104   5.280  13.693   0.088  0.0473 -0.1804  0.0606
15971W        W32105   4.485   1.248   5.825 -0.1327  0.3328  0.0466
15972W        W32106  17.631   5.938  10.576 -0.0786  0.0064  0.0046
15973W        W32107  10.864  14.520   4.950 -0.0504 -0.0664 -0.0918
15974W        W32108   3.004   5.248   1.478  0.2675  0.3052  0.1091
15975W        W32109  16.934   1.623  14.898 -0.1078  0.4501 -0.0844
15976W        W32110   9.872  16.959  15.676  0.0526  0.3141  0.0240
15977W        W32111  18.250  17.147   0.418  0.1617  0.0262 -0.0733
15978W        W32112  17.063   2.891  15.265 -0.0614 -0.0821  0.1177
15979W        W32113  11.973   9.691   0.676 -0.2275  0.0385  0.0592
15980W        W32114  13.583   8.985   2.466  0.0799  0.1944  0.0669
15981W        W32115   6.766  15.600   3.092 -0.1506  0.1149  0.3260
15982W        W32116  16.473  12.068  11.169  0.5181  0.2569  0.2330
15983W        W32117   6.767   8.945  11.615 -0.1114 -0.1195 -0.0630
15984W        W32118   3.546   2.174  13.415  0.1048 -0.3604 -0.2475
15985W        W32119  17.555  14.473  15.083  0.0497 -0.2431 -0.0710
15986W        W32120  12.981   3.712  12.029  0.3157 -0.1824  0.2756
15987W        W32121   4.615   6.038   0.190 -0.0746 -0.2100  0.0732
15988W        W32122  16.300   4.767  13.022  0.3160  0.4648 -0.0075
15989W        W32123  13.839   4.030   3.021 -0.0284  0.1508  0.0807
15990W        W32124  18.161  12.825   1.595 -0.3358  0.0747  0.2093
15991W        W32125  16.581  13.167   2.230  0.0052 -0.3819  0.3708
15992W        W32126  14.195  14.145  15.538  0.0414  0.2325 -0.2856
15993W        W32127   1.976  14.591  14.362 -0.4092  0.0853  0.0851
15994W        W32128   9.779   3.827  12.117  0.0250  0.3923 -0.4684
15995W        W32129  15.393   3.540   1.960  0.0066 -0.0979 -0.0177
15996W        W32130  12.855  13.625   2.841 -0.1198  0.1884  0.0380
15997W        W32131  16.333   8.990  13.431 -0.0281 -0.5383  0.0281
15998W        W32132   5.437  15.822  12.911 -0.0021 -0.3629  0.1676
15999W        W32133  14.533   3.285   1.746  0.1619 -0.1656  0.3207
16000W        W32134   7.927   6.805   4.670  0.2604 -0.1204 -0.0102
16001W        W32135   9.515  16.683   4.912  0.0796 -0.1154 -0.0421
16002W        W32136  14.027  18.244  14.173  0.3633  0.2064 -0.1740
16003W        W32137   8.180  15.433  11.996  0.2126  0.0155  0.0642
16004W        W32138   2.253   2.479  14.766  0.1654  0.0616  0.2315
16005W        W32139  17.477   7.851  11.859  0.1318  0.1054 -0.1331
16006W        W32140   1.453   1.296   2.174  0.1273 -0.0469  0.1336
16007W        W32141   2.922  15.703  14.701 -0.0520  0.0986 -0.0260
16008W        W32142  15.183   2.785   2.776  0.2107 -0.0314  0.0124
16009W        W32143   7.650  10.111   1.812 -0.0537 -0.1521 -0.0698
16010W        W32144   5.723   2.596  15.490 -0.2459 -0.0305  0.0844
16011W        W32145   4.237  13.260  13.048  0.0358 -0.1213  0.2340
16012W        W32146   1.830  14.909  10.783 -0.1276 -0.0813  0.2167
16013W        W32147  18.110  18.435   2.600  0.0291 -0.1452 -0.0541
16014W        W32148   3.570   8.414   4.142  0.0372 -0.0390 -0.0110
16015W        W32149   8.741  11.312  11.633 -0.1485 -0.0572 -0.2121
16016W        W32150  14.701  13.653  11.259  0.2804 -0.4628  0.2214
16017W        W32151  11.275   8.255   1.221  0.0922  0.1176 -0.2623
16018W        W32152  16.521  16.167  15.692  0.3162 -0.2237 -0.1968
16019W        W32153   1.320   9.582   1.193 -0.0064 -0.1516 -0.2531
16020W        W32154   5.162   0.466   0.596 -0.0240  0.2234 -0.0417
16021W        W32155  13.264   0.794  11.648  0.0503 -0.2218  0.3749
16022W        W32156  12.035  13.149  12.231  0.3657 -0.0021 -0.0783
16023W        W32157   5.246   5.018  10.964  0.1136 -0.3149 -0.1869
16024W        W32158  16.248   1.015  14.426 -0.1022 -0.1161 -0.0554
16025W        W32159   4.849   4.217   3.567  0.1176  0.0936 -0.3501
16026W        W32160   0.592   9.000  15.614  0.2487  0.3492 -0.1896
16027W        W32161  12.248  12.952   3.877 -0.0279 -0.0861 -0.0623
16028W        W32162   5.631   7.743   1.954  0.0347 -0.1963  0.1800
16029W        W32163   7.367   0.799  13.817 -0.0000 -0.4571  0.2455
16030W        W32164   2.599  13.704   4.541  0.2321 -0.2413  0.1756
16031W        W32165   6.449  11.158  13.882 -0.1559 -0.0206 -0.0755
16032W        W32166  12.816  12.413  10.743  0.0645 -0.0555  0.0240
16033W        W32167   2.505  11.261  15.159  0.3114 -0.1250 -0.5447
16034W        W32168   8.173   5.566  12.852 -0.1368 -0.2701  0.0498
16035W        W32169  13.894   7.162  12.959  0.0062  0.1771 -0.1075
16036W        W32170   8.856  15.358  15.062 -0.0675  0.1501  0.0607
16037W        W32171   5.463   4.701  11.396 -0.1407 -0.0833  0.1035
16038W        W32172  12.582  14.295  15.900  0.1609  0.0756 -0.0172
16039W        W32173  13.556  17.378   3.561 -0.0295  0.0751  0.2395
16040W        W32174  10.027  17.154  13.595  0.1419  0.3416  0.0086
16041W        W32175  15.305   4.374   3.242  0.1779  0.1032 -0.1366
16042W        W32176   4.009  15.049  14.000  0.0315  0.1119 -0.2854
16043W        W32177   3.148  11.603   0.300 -0.1088 -0.2335 -0.0837
16044W        W32178   8.599   3.102   4.655 -0.2275 -0.1627 -0.1109
16045W        W32179  15.776   6.765  13.041 -0.1808 -0.2480 -0.4054
16046W        W32180  10.878   0.543   2.402  0.0372  0.0979  0.1400
16047W        W32181   9.867   9.957  15.637  0.1967 -0.1980  0.0806
16048W        W32182   5.254  15.074  15.305 -0.1565 -0.0611 -0.0827
16049W        W32183   7.980   8.220  14.298 -0.2089 -0.0705 -0.1020
16050W        W32184  10.259   1.114   3.719 -0.0312  0.0245  0.2766
16051W        W32185   4.123   5.426   2.505  0.3513 -0.1855 -0.3536
16052W        W32186   5.389  15.076  10.056 -0.0557 -0.0674 -0.0303
16053W        W32187  18.438  15.224   2.076 -0.2885  0.2794 -0.1453
16054W        W32188   6.848   5.117   0.413 -0.1037  0.1751  0.1278
16055W        W32189  17.700   2.166  15.234  0.3723  0.3344 -0.0589
16056W        W32190  17.177   2.911   3.875 -0.2325 -0.0635 -0.1868
16057W        W32191  16.748  13.669   4.243 -0.0216  0.1403 -0.0385
16058W        W32192   3.861  13.800   0.605 -0.0831 -0.0521 -0.0861
16059W        W32193   0.632  11.122  12.802  0.0588 -0.1075  0.0237
16060W        W32194   6.581   3.808  12.464 -0.2961 -0.2139 -0.1879
16061W        W32195  10.109   3.448  11.897  0.0054 -0.1773 -0.1975
16062W        W32196  12.701   5.897  12.004  0.2441 -0.4411 -0.0466
16063W        W32197  13.609   3.665  13.979  0.0017  0.3002 -0.1914
16064W        W32198   2.914   2.010  15.625  0.0968  0.1761 -0.0007
16065W        W32199  13.793   1.624   4.066 -0.2228  0.0991  0.2971
16066W        W32200   1.602  14.217  12.539  0.0746  0.1635 -0.2432
16067W        W32201  15.977  15.699   0.923  0.1650  0.1275 -0.1682
16068W        W32202   4.741   8.220   1.313  0.0690  0.0446  0.0873
16069W        W32203  10.393   6.368   2.385  0.3015  0.4312 -0.3326
16070W        W32204  17.836   6.356   5.093 -0.1468  0.1598  0.0717
16071W        W32205  10.604  11.298  11.617 -0.0089 -0.1328  0.0054
16072W        W32206  15.357   7.142   2.156 -0.1271 -0.2846 -0.4021
16073W        W32207   3.663   2.314  12.609  0.1872  0.1779 -0.0178
16074W        W32208   8.494   6.746  13.185  0.4519 -0.0660 -0.0383
16075W        W32209  10.591   5.063  11.745  0.0493 -0.0906 -0.2822
16076W        W32210   7.143   5.835   1.713  0.0678  0.0318  0.0846
16077W        W32211  14.685   7.926   2.811  0.0660 -0.1163 -0.0198
16078W        W32212  16.330  11.640   2.363  0.0447  0.2908  0.2524
16079W        W32213   0.602  14.545   4.054  0.2223  0.1640  0.3623
16080W        W32214  16.575  11.357   0.817 -0.0961 -0.1697  0.4319
16081W        W32215   0.440  11.601   4.344 -0.0503 -0.3548  0.1781
16082W        W32216  17.231  15.293   0.769 -0.0856 -0.1205  0.3546
16083W        W32217  14.445  13.879   4.487 -0.0194  0.0522 -0.3440
16084W        W32218   6.976  17.582  13.001 -0.3350  0.1064 -0.2176
16085W        W32219   9.817   8.010  13.118 -0.4418 -0.1214 -0.3296
16086W        W32220  11.895   7.591   5.265  0.3584 -0.1410  0.0791
16087W        W32221   7.981   4.608   0.581 -0.2030 -0.0327 -0.1261
16088W        W32222   2.512   7.908  11.877 -0.1761  0.2952  0.1297
16089W        W32223  11.420  18.399  12.446 -0.2951  0.2747  0.0759
16090W        W32224   8.370  13.161   3.864  0.0983  0.0124  0.1016
16091W        W32225  17.422  17.955  15.449 -0.0246 -0.1163  0.2550
16092W        W32226   0.805   2.108   0.324 -0.0871 -0.0311 -0.1166
16093W        W32227   7.429  10.264  14.239  0.2104  0.1677 -0.1156
16094W        W32228  13.231   1.648   3.456  0.2276  0.0102 -0.0828
16095W        W32229   2.980   7.853   1.268  0.4077 -0.2540  0.1394
16096W        W32230  17.524  12.401  13.110 -0.1395 -0.0272 -0.0571
16097W        W32231  11.848  13.603   1.682 -0.3497  0.3539  0.1763
16098W        W32232  10.357   1.487   4.525  0.0734  0.3684  0.0265
16099W        W32233  13.763  10.621   4.872  0.0958 -0.1411  0.0975
16100W        W32234   0.577  10.935   1.838  0.0021  0.1144 -0.0949
16101W        W32235  15.396   6.866   4.503  0.0086 -0.1464 -0.1480
16102W        W32236   0.156   7.760  10.550 -0.5317 -0.2444 -0.1139
16103W        W32237   9.310   6.056   4.372 -0.0766  0.1321 -0.3954
16104W        W32238  12.915   0.946  12.748  0.0059  0.1387 -0.0880
16105W        W32239  16.462  16.665  13.333 -0.4785 -0.0542 -0.0535
16106W        W32240   2.572   9.284  12.493  0.1064  0.0962 -0.0148
16107W        W32241   0.805   6.036   4.023  0.3015  0.1542 -0.1609
16108W        W32242   0.086  15.852  15.081  0.3404  0.1697  0.0912
16109W        W32243  16.322  10.629   1.007  0.2299  0.0462  0.0073
16110W        W32244   7.412   3.379  12.329 -0.0508 -0.0479  0.0251
16111W        W32245  14.819   6.418   1.914 -0.2910 -0.1317  0.1905
16112W        W32246  18.225  10.899  10.096 -0.2639  0.1500 -0.2241
16113W        W32247  11.673   2.836   2.569 -0.0135  0.0750 -0.1351
16114W        W32248   0.992   8.708  12.670 -0.0988 -0.1643  0.0343
16115W        W32249  12.187  18.389  13.445 -0.0397  0.1251  0.2029
16116W        W32250   2.164   9.478  14.190 -0.1905 -0.0693 -0.2591
16117W        W32251  18.104   4.029   5.897 -0.4151  0.0762  0.1969
16118W        W32252   6.318   5.719   1.294  0.2736 -0.2095 -0.0220
16119W        W32253  11.495   5.815   3.646 -0.0808  0.1924  0.0309
16120W        W32254  11.100  18.480  14.617 -0.4639 -0.1612 -0.3238
16121W        W32255  15.297   5.414   2.161 -0.2548 -0.3112 -0.0951
16122W        W32256  15.268  13.101  15.364 -0.3460  0.2831 -0.0752
16123W        W32257   5.073  12.112  15.215 -0.1423 -0.1826 -0.0067
16124W        W32258   2.482  15.654  11.054  0.3900 -0.0609 -0.2129
16125W        W32259  14.289   1.884  13.520 -0.3258  0.0969 -0.0453
16126W        W32260  14.095  12.705   5.385 -0.0218 -0.1263  0.3778
16127W        W32261  12.258  14.531  15.152 -0.1837 -0.6196 -0.0531
16128W        W32262  18.191  17.049  12.710 -0.0369 -0.3052 -0.0211
16129W        W32263   4.514  14.315  12.079 -0.1003  0.0521  0.1312
16130W        W32264   6.323   9.338  13.721 -0.2360 -0.1617 -0.4422
16131W        W32265   1.187   6.706   0.615 -0.0242 -0.0321  0.1668
16132W        W32266   5.349  11.282  12.751  0.1301 -0.2936 -0.0310
16133W        W32267  15.000  14.722  13.330 -0.0184 -0.4313 -0.3303
16134W        W32268  10.317  10.467   0.342  0.0322 -0.2107  0.1379
16135W        W32269   1.818   6.413   3.078  0.0692  0.2123 -0.0278
16136W        W32270   9.972   2.907  12.068  0.3307  0.2279  0.1467
16137W        W32271  16.555  15.259   1.725  0.0757  0.0678  0.0176
16138W        W32272   0.800  18.332   0.901 -0.0133 -0.4879 -0.1819
16139W        W32273   6.298  14.831  12.106 -0.1122  0.2481  0.2368
16140W        W32274   6.869   1.315  14.418 -0.1593 -0.1895 -0.0242
16141W        W32275  10.911   8.267   0.951  0.0339  0.0374  0.1334
16142W        W32276   1.566   9.952  15.612  0.0307  0.1863 -0.0471
16143W        W32277   7.751  15.088  14.373  0.0524 -0.2887  0.1566
16144W        W32278  15.470  17.106   5.040 -0.1575  0.4127  0.0530
16145W        W32279  17.769  14.597   1.147 -0.0919 -0.1824  0.3279
16146W        W32280   8.259   0.532   0.511  0.1581 -0.0376  0.3061
16147W        W32281  10.268  14.028  11.630  0.0413  0.1248 -0.1901
16148W        W32282   0.608   2.559   3.725  0.0625  0.0961 -0.2049
16149W        W32283   0.079  11.742   0.624  0.0620 -0.4744  0.0634
16150W        W32284   0.002  18.406  11.572  0.0702 -0.0142 -0.1993
16151W        W32285  17.268   4.688   0.097 -0.0027  0.2114  0.1351
16152W        W32286   7.516   6.306   2.554  0.3054  0.0805 -0.2362
16153W        W32287   8.443   8.567  10.341  0.0198  0.0612  0.0806
16154W        W32288  12.495  13.089  11.937 -0.1572 -0.4215 -0.2125
16155W        W32289   7.428  16.052   5.682  0.0689  0.1555  0.1575
16156W        W32290   9.342  12.074  12.545  0.2569 -0.1426  0.0823
16157W        W32291  16.943   5.948   2.518  0.0762 -0.0218  0.0666
16158W        W32292  17.548   0.430   4.789  0.1134 -0.0444  0.0133
16159W        W32293  17.674  13.110   0.411  0.2176  0.2520 -0.1851
16160W        W32294  16.830  13.369  12.255 -0.1081 -0.1953 -0.0474
16161W        W32295   8.380   1.132  12.346 -0.1505 -0.0903 -0.3223
16162W        W32296  16.577   8.504   4.551  0.2303  0.1261 -0.0587
16163W        W32297   5.205  17.239   5.385  0.0489 -0.0297  0.1593
16164W        W32298  15.081  18.048   0.222  0.1915  0.0332  0.0661
16165W        W32299  14.394   6.815   3.974 -0.1243 -0.0084 -0.0607
16166W        W32300  12.134  13.860   1.327 -0.1343 -0.0299 -0.2071
16167W        W32301   7.136   9.722   6.076  0.1139 -0.0258  0.1744
16168W        W32302   1.539  12.095  10.410 -0.0640  0.1561  0.0395
16169W        W32303   9.875   2.671   4.716  0.1565 -0.1089 -0.1258
16170W        W32304  11.325   0.257  12.009  0.2064 -0.1249 -0.1588
16171W        W32305  17.721  10.117  13.046  0.0536  0.1349  0.1512
16172W        W32306  12.285  10.858  13.363 -0.0982 -0.1387  0.1146
16173W        W32307  16.533   2.229   2.161 -0.1732 -0.1285 -0.1374
16174W        W32308   6.308   9.191  15.628  0.1331 -0.0443 -0.2204
16175W        W32309  17.188   3.941  14.206  0.0693  0.0057  0.1490
16176W        W32310   4.682   1.264  12.587  0.0389  0.0289  0.2283
16177W        W32311  17.064  15.323   3.673 -0.0892  0.1186  0.2430
16178W        W32312   3.016  16.681   2.297 -0.2549  0.2273 -0.0106
16179W        W32313   7.979   4.419  15.892  0.0792  0.0487 -0.2330
16180W        W32314   9.578   2.063  13.773  0.2596 -0.3303  0.0006
16181W        W32315   1.562   7.554   4.098 -0.0727 -0.4397 -0.1171
16182W        W32316   8.247   7.189   4.165 -0.2832 -0.0212 -0.0119
16183W        W32317   9.908  11.352  15.248 -0.3258  0.3778  0.0424
16184W        W32318  17.938   4.942   3.681 -0.1318  0.1454  0.1866
16185W        W32319  14.443  15.200   2.479  0.0327  0.2110  0.2483
16186W        W32320  14.718   1.161  12.111  0.0711 -0.2718 -0.1654
16187W        W32321  12.320   1.394   3.122  0.1089  0.2897 -0.0102
16188W        W32322  17.523   5.189  10.437 -0.2088 -0.3347 -0.0014
16189W        W32323   5.419   9.695   0.924 -0.3046 -0.0575  0.1065
16190W        W32324   6.891  14.825   5.047  0.3091 -0.0397  0.1335
16191W        W32325   5.127   5.294   3.494 -0.1173 -0.1216  0.0045
16192W        W32326   6.998   5.199  15.077 -0.1333 -0.0424  0.0678
16193W        W32327   7.276  15.885   1.973  0.0590 -0.0898  0.2338
16194W        W32328   8.260  16.137   2.340 -0.2128  0.1318 -0.0839
16195W        W32329   1.017   9.975  11.124 -0.1225  0.0083  0.1516
16196W        W32330  17.676  13.085  15.418 -0.3653  0.2740 -0.2549
16197W        W32331  11.670  14.400   0.076 -0.1997 -0.1823 -0.2250
16198W        W32332   3.408   6.575  12.601 -0.2002  0.0959  0.1324
16199W        W32333   0.215   7.172  14.664 -0.3550  0.1486  0.6142
16200W        W32334   1.872   9.052  12.913  0.1739  0.3004 -0.0825
16201W        W32335  14.710  15.202   5.356 -0.2830 -0.4102  0.0975
16202W        W32336  14.339  10.737  12.625  0.2472 -0.0845  0.0484
16203W        W32337   9.670   1.296  15.039  0.0612 -0.0749  0.1302
16204W        W32338   5.752  16.114   1.180  0.0024  0.0147 -0.1762
16205W        W32339   1.616   6.863   4.325 -0.0343  0.0884  0.0072
16206W        W32340   1.463   5.089  13.145  0.2588 -0.1519 -0.1610
16207W        W32341   5.928  13.143  10.868 -0.3493  0.1136  0.0117
16208W        W32342  17.673  17.127   0.529 -0.0419 -0.3385  0.1381
16209W        W32343  14.197  15.632   0.691  0.2676 -0.0208  0.0938
16210W        W32344  15.530  13.476  11.678 -0.0391 -0.0208 -0.1640
16211W        W32345   9.563  11.851   2.224  0.2631 -0.0993  0.0102
16212W        W32346  16.879   1.749   3.501  0.3696  0.2172  0.0209
16213W        W32347  11.381  15.045   1.146 -0.0446  0.0177  0.0701
16214W        W32348   0.620   1.552   0.813  0.4457 -0.2524 -0.3513
16215W        W32349   5.674   5.999  11.635 -0.0102 -0.0077  0.1777
16216W        W32350  16.436   0.083  12.123  0.1133  0.3528 -0.0309
16217W        W32351  12.983  14.089   0.000  0.0225 -0.2449  0.5824
16218W        W32352   6.890   1.529   6.014 -0.1682 -0.0784  0.3045
16219W        W32353  16.728   2.218  14.650 -0.0538 -0.0455 -0.0074
16220W        W32354   1.294   6.370  13.365 -0.1276  0.1464 -0.1944
16221W        W32355   6.706  17.525   2.068  0.0092 -0.2962 -0.3536
16222W        W32356   1.235   7.175   0.865 -0.3773  0.0141  0.3012
16223W        W32357   7.169  12.579   3.728  0.0630 -0.3743 -0.1402
16224W        W32358   0.569  12.130   4.397 -0.3078 -0.0466  0.1392
16225W        W32359   0.650   2.682   5.645  0.2038 -0.0305 -0.1456
16226W        W32360   6.986  18.150   1.946  0.1167 -0.0678 -0.0541
16227W        W32361   6.709   3.796  14.219 -0.1923 -0.3381  0.2162
16228W        W32362  17.793   5.396  11.957  0.1661  0.0608  0.1391
16229W        W32363   1.214  18.239   2.187  0.3448 -0.0222  0.0916
16230W        W32364   8.810  16.783   1.960 -0.3335 -0.2960 -0.0331
16231W        W32365  14.318  16.619   4.380 -0.1069 -0.0054 -0.1106
16232W        W32366   7.324  14.183  14.692 -0.1701 -0.0194  0.2472
16233W        W32367  11.095   1.930   0.015 -0.0440  0.3042  0.2040
16234W        W32368  11.896  12.122   5.970  0.0076 -0.1203  0.0043
16235W        W32369  14.666   0.397   2.668  0.0990  0.1588 -0.0120
16236W        W32370   6.709  14.214  14.890 -0.0291  0.0181 -0.3150
16237W        W32371  14.483  13.093  11.792 -0.4803  0.0267  0.4446
16238W        W32372   8.519  15.953   4.498  0.0658 -0.2470  0.2236
16239W        W32373   4.698  16.936  11.199  0.2714 -0.1321  0.2162
16240W        W32374   8.713  11.782   1.615 -0.0822 -0.0472  0.0540
16241W        W32375   6.397  16.229   0.502 -0.5436 -0.2544 -0.1120
16242W        W32376  15.667  16.467   3.195 -0.1804  0.0702  0.1444
16243W        W32377  18.384   3.962  10.555  0.3653 -0.1389 -0.1246
16244W        W32378  10.084  14.169   1.601  0.0755  0.1272  0.0421
16245W        W32379   2.852  16.305   4.464  0.0591  0.0941  0.1129
16246W        W32380   2.770   1.083   4.941  0.0030  0.2175 -0.3707
16247W        W32381   8.087   7.679   2.600  0.0695  0.0091  0.0182
16248W        W32382   4.854   8.037   0.239  0.0084  0.0282  0.2080
16249W        W32383  10.768   1.905  11.364 -0.0704  0.0925 -0.0421
16250W        W32384  14.593  14.018   0.994 -0.0586 -0.0573 -0.0720
16251W        W32385   8.383  17.369   5.400  0.0052 -0.1054  0.1976
16252W        W32386   3.750  10.627   3.431 -0.2793  0.1203  0.0644
16253W        W32387   9.831   9.221   2.061 -0.0917  0.0956  0.0841
16254W        W32388   8.082  10.704  13.446  0.3697 -0.1916  0.1665
16255W        W32389   4.160  16.003  15.297  0.0931  0.0963 -0.0373
16256W        W32390  13.783   0.353   4.569 -0.1156  0.0453 -0.3546
16257W        W32391  17.443   4.031  14.692 -0.1231 -0.1214  0.1935
16258W        W32392  12.899  11.289  13.899  0.0488  0.3948  0.0796
16259W        W32393  13.776   7.876  12.573  0.0015 -0.2335  0.2135
16260W        W32394   7.209   4.689  15.301 -0.2396  0.0037  0.3905
16261W        W32395  16.208  16.464  12.487 -0.0868  0.2366  0.0353
16262W        W32396   6.035  11.412   0.133  0.1070 -0.2535 -0.0541
16263W        W32397   4.348  15.324   0.914 -0.0079  0.0492  0.0524
16264W        W32398  12.340   7.951  13.277  0.1096  0.1966 -0.0163
16265W        W32399   3.062   6.294  10.852 -0.0569  0.1729 -0.3844
16266W        W32400   2.211   0.054  13.735  0.2362  0.0923  0.1841
16267W        W32401   2.453  15.298   3.968  0.0094 -0.2510 -0.0932
16268W        W32402   3.704   4.754  11.783 -0.0955 -0.0049 -0.2600
16269W        W32403   8.665  15.574   1.234 -0.0759 -0.0930 -0.1052
16270W        W32404  14.187   8.744   0.736 -0.2321 -0.2898 -0.0603
16271W        W32405   1.632  11.673  13.064 -0.2853 -0.1885 -0.2120
16272W        W32406  17.380   5.380   4.487  0.0577  0.4512  0.1306
16273W        W32407   8.657   6.566  13.660 -0.1190 -0.1472  0.1744
16274W        W32408  10.072  12.092  14.565 -0.1249  0.2985  0.0561
16275W        W32409   8.871   9.896  14.249  0.1460  0.0988 -0.0681
16276W        W32410   1.298  14.763  10.664  0.0388 -0.1935 -0.4197
16277W        W32411   6.252   1.786   5.367 -0.0060 -0.2230 -0.1228
16278W        W32412  15.556  15.335  15.218  0.0958  0.0360  0.5862
16279W        W32413  15.523  17.912  16.090  0.1650  0.1428  0.0386
16280W        W32414  10.181   3.302  13.790  0.1201 -0.2860 -0.1921
16281W        W32415  13.820   7.462   3.825 -0.2087  0.4708 -0.2428
16282W        W32416  15.631  12.979   1.691  0.0971 -0.2228  0.4758
16283W        W32417  12.438   8.834   2.420 -0.0090  0.2526  0.1137
16284W        W32418   0.041   1.994  10.839  0.2597 -0.1905 -0.1110
16285W        W32419  17.026  11.395  10.695 -0.0816  0.0865  0.2622
16286W        W32420  17.374   2.605   1.166 -0.2218  0.0934  0.0235
16287W        W32421   4.307  13.864   3.427 -0.2733 -0.2031 -0.0574
16288W        W32422   8.636  10.569  15.267 -0.0525 -0.0595 -0.0798
16289W        W32423  16.011   5.016   2.630 -0.1137 -0.0576 -0.0895
16290W        W32424   6.776   2.198  15.511  0.1498 -0.2279  0.1353
16291W        W32425   3.624   1.051  11.203  0.1578 -0.1238  0.0525
16292W        W32426   5.727   5.092   0.987 -0.3213  0.2217 -0.1357
16293W        W32427   8.149   7.910   0.734  0.3093 -0.0543  0.1361
16294W        W32428   1.846   8.920   1.569 -0.1590 -0.0421 -0.5201
16295W        W32429   8.212   9.793  12.423 -0.0660  0.1828  0.0458
16296W        W32430  14.376  17.488   2.731  0.0984 -0.1655 -0.0244
16297W        W32431   9.314   1.100   1.535 -0.3144 -0.0235  0.0500
16298W        W32432  15.555  11.174   0.816  0.0185 -0.2726  0.2318
16299W        W32433   4.758   9.941  15.204  0.2289 -0.2919  0.1602
16300W        W32434   9.178  11.315  14.832  0.0469 -0.0637  0.0844
16301W        W32435   0.197   3.887   1.673 -0.1176 -0.4466 -0.0685
16302W        W32436  14.388   6.335   2.208  0.3408 -0.4506 -0.2429
16303W        W32437   8.050   5.243  13.304  0.1388 -0.0250  0.1855
16304W        W32438  10.418  15.196   1.624  0.0827  0.0462  0.0926
16305W        W32439   6.589  14.306   3.501 -0.0261 -0.0595 -0.1798
16306W        W32440  11.720   8.715  14.229  0.4048  0.0745  0.1458
16307W        W32441  13.356   3.165   4.463 -0.1779 -0.3346  0.1386
16308W        W32442   4.350  13.162   2.754  0.0697  0.0752  0.4654
16309W        W32443   9.632   1.638   1.533  0.1013 -0.1459 -0.1265
16310W        W32444   4.777   9.468   2.211  0.4887 -0.0013 -0.0533
16311W        W32445   7.785   5.811  15.123  0.3682  0.0233  0.0467
16312W        W32446  12.217  17.739  14.235  0.0346  0.2265 -0.1308
16313W        W32447   2.406   4.892  12.701 -0.1734 -0.0855 -0.1127
16314W        W32448   4.170  18.297   1.463 -0.1753 -0.1063 -0.5038
16315W        W32449   2.632   5.354   3.727  0.2403  0.1286 -0.0990
16316W        W32450  16.526  10.018  14.521 -0.2057 -0.1738 -0.3693
16317W        W32451   0.424  14.844  13.648 -0.1231  0.1514 -0.1474
16318W        W32452  13.526  17.549  15.427 -0.0587  0.1492  0.2244
16319W        W32453  14.541   9.057  14.769 -0.0571  0.1712 -0.0031
16320W        W32454   2.868   1.020  15.901  0.1750  0.2911  0.1248
16321W        W32455   4.097   1.638   2.112 -0.2632 -0.1042 -0.2644
16322W        W32456   4.739  15.531  15.864  0.1045  0.0123 -0.2786
16323W        W32457   1.152  16.535  14.143 -0.0070  0.3471  0.1598
16324W        W32458  17.879   4.570   4.028 -0.1752  0.0106 -0.2557
16325W        W32459   8.316  16.766   4.531  0.1934 -0.1358 -0.0370
16326W        W32460  13.389  12.274   4.145 -0.0139 -0.0844  0.3142
16327W        W32461   7.048   7.470   0.588 -0.0535  0.0235 -0.0050
16328W        W32462   4.824   2.356   4.548 -0.0220 -0.0015  0.1723
16329W        W32463  10.045  14.065  12.675 -0.3363 -0.0391  0.2534
16330W        W32464  10.292   6.674   0.256  0.2301  0.1055 -0.2318
16331W        W32465  11.020  17.699   1.019 -0.1153  0.1731  0.0050
16332W        W32466  12.355  11.239  13.870 -0.0853  0.0810  0.0340
16333W        W32467  12.703  12.354   2.793  0.2221  0.0982  0.2290
16334W        W32468  15.936   6.790  15.780 -0.1415  0.0882  0.1255
16335W        W32469   2.931   4.001  15.419  0.0113  0.0932  0.0662
16336W        W32470   3.347   7.846   2.433 -0.0901 -0.0865  0.0585
16337W        W32471  15.777  13.788  10.048 -0.0308  0.2611 -0.4559
16338W        W32472  10.196  11.904  13.358  0.0873  0.0459 -0.0452
16339W        W32473   4.320   9.635  11.192  0.3045  0.1216 -0.4019
16340W        W32474  13.932  10.256   2.615 -0.0263 -0.3504  0.3175
16341W        W32475   7.072   7.073  13.405  0.2881  0.1595  0.1992
16342W        W32476   7.374  15.152  13.118  0.2526  0.1379  0.0259
16343W        W32477  18.044  11.883  12.670 -0.0077 -0.4459  0.2731
16344W        W32478  16.171  11.730  11.283 -0.2252  0.3009 -0.1889
16345W        W32479   6.524   9.795   4.866  0.0843 -0.0983 -0.0820
16346W        W32480   0.671  13.125   2.630  0.1634  0.0074 -0.1132
16347W        W32481  13.201   5.275   1.483  0.1822  0.2409 -0.0660
16348W        W32482   7.028   2.432   0.758  0.0440 -0.0813 -0.1855
16349W        W32483  14.410   8.632   1.452 -0.0282  0.0064 -0.3948
16350W        W32484   1.758  13.680   0.069 -0.0425 -0.0490 -0.1635
16351W        W32485   6.138   4.078   1.708  0.3350  0.1011 -0.1513
16352W        W32486   2.959  11.295   2.253  0.5509  0.0443  0.1252
16353W        W32487   7.580  17.659   1.492  0.0091 -0.0467 -0.3760
16354W        W32488  16.449  16.195   3.772  0.3250 -0.1364  0.1280
16355W        W32489  17.334  16.285  12.753  0.0002  0.0268  0.2750
16356W        W32490  17.640  11.641   4.261  0.0378 -0.1670  0.2119
16357W        W32491   0.489  11.639  15.692  0.1631  0.0780  0.1939
16358W        W32492  10.915   0.437  11.555  0.2222  0.3817 -0.1219
16359W        W32493   0.709  17.958  12.761  0.1790  0.2022 -0.0383
16360W        W32494  10.928  15.793   2.317 -0.1019 -0.0143 -0.1343
16361W        W32495   5.708  10.242  15.034  0.2352 -0.1152  0.3742
16362W        W32496  12.665   6.486  14.702 -0.0658 -0.0796  0.2186
16363W        W32497   7.949  12.923   4.859 -0.2077 -0.1200 -0.1873
16364W        W32498  10.693  14.996  14.324  0.0630 -0.2974  0.2034
16365W        W32499   8.902  10.685   1.001 -0.0783  0.2634 -0.2162
16366W        W32500  11.559  14.564   1.063  0.0708  0.0270 -0.0050
16367W        W32501   6.989   3.684  12.167 -0.5865  0.0109 -0.0966
16368W        W32502  15.130   9.719  12.789 -0.0928 -0.0726  0.0138
16369W        W32503   0.169   2.516   2.203  0.0318  0.0556  0.2173
16370W        W32504   7.591   0.499   5.363  0.0763  0.3550  0.0590
16371W        W32505  13.149   2.688   1.913 -0.2045  0.0128  0.2281
16372W        W32506   1.473  10.280   3.837  0.1722  0.2950 -0.0188
16373W        W32507  11.437  15.618   2.842 -0.0646  0.0958  0.1057
16374W        W32508  15.095  16.064  12.161 -0.1808 -0.1595  0.4772
16375W        W32509   1.861  13.913  13.363  0.0573  0.1020 -0.2624
16376W        W32510  17.460   2.467   5.192 -0.0612 -0.1739  0.0573
16377W        W32511   8.873  15.245   4.069 -0.1796 -0.0254  0.1432
16378W        W32512   1.167  15.497  11.365 -0.0445  0.0377 -0.3887
16379W        W32513   8.147   1.770   0.045  0.1362 -0.0545 -0.0579
16380W        W32514  11.336   6.195  13.572  0.0137 -0.0203 -0.2071
16381W        W32515   8.605   7.916  15.022 -0.2794  0.0624 -0.1014
16382W        W32516  12.425   8.345  12.969 -0.1643  0.0445 -0.0183
16383W        W32517   0.069   0.756   1.859 -0.3310 -0.0664 -0.1535
16384W        W32518   8.447   8.104   1.602 -0.2512 -0.0238 -0.0904
16385W        W32519   0.047   9.250  10.282 -0.1313 -0.0595  0.0891
16386W        W32520   8.990   6.561   3.871  0.0874 -0.0629 -0.1259
16387W        W32521  14.663   7.975  16.067  0.1094 -0.1693 -0.0699
16388W        W32522  14.292  10.731  14.492 -0.0477  0.1115  0.2814
16389W        W32523  11.557   9.376   1.566 -0.0012 -0.2687 -0.2861
16390W        W32524  10.419   3.188  15.729 -0.1439  0.0743 -0.0503
16391W        W32525  15.642  14.367   2.847  0.3216  0.1763 -0.0800
16392W        W32526   4.044   6.611  12.203  0.0825 -0.2018  0.0965
16393W        W32527   9.829   7.083   4.222 -0.1224  0.0622  0.1155
16394W        W32528   6.293   4.335   0.729  0.0853  0.1440  0.0633
16395W        W32529   0.346   3.073   3.257 -0.2456  0.1445 -0.0183
16396W        W32530   4.721   2.986  11.612 -0.0624  0.0793 -0.0488
16397W        W32531   6.571   4.914   5.355  0.1291 -0.0891  0.2060
16398W        W32532  15.288  16.568  13.495  0.1364  0.3534 -0.2502
16399W        W32533   5.253  17.104  13.991  0.0212  0.1906  0.1149
16400W        W32534  12.468  12.609  11.617  0.0186 -0.0987  0.0376
16401W        W32535   5.010   4.185   0.913  0.1279 -0.0629  0.4852
16402W        W32536  17.580   9.441   2.411  0.0226 -0.2519  0.0407
16403W        W32537  16.096  12.046   2.194 -0.2653 -0.2770 -0.0140
16404W        W32538   0.416  10.179  16.067  0.1334  0.2536 -0.1227
16405W        W32539   6.978   9.898   3.939  0.1053  0.2470  0.0663
16406W        W32540   5.748   0.477   5.064 -0.0572 -0.0536 -0.0407
16407W        W32541  15.605  10.157  12.872  0.0289 -0.0491 -0.2766
16408W        W32542  17.289  13.936  10.426  0.3018  0.1668 -0.1071
16409W        W32543   2.381   6.174   5.000 -0.0734 -0.1148 -0.0697
16410W        W32544   2.621   0.641   2.139  0.0892 -0.0461  0.0695
16411W        W32545   2.214   3.859  10.951 -0.0116 -0.1173 -0.3681
16412W        W32546  13.880   7.384  11.571  0.0617  0.3664 -0.1436
16413W        W32547  12.322  11.624  12.822  0.1251  0.0392  0.1951
16414W        W32548   7.633   8.059   1.483 -0.1021  0.0720 -0.0875
16415W        W32549   1.645   6.052   4.437  0.1431 -0.1976 -0.1424
16416W        W32550   2.428  17.545  11.050  0.2164 -0.0044 -0.0651
16417W        W32551   2.935   4.440  12.620  0.0839  0.0670  0.0894
16418W        W32552   1.270  14.248   2.052  0.0512  0.3100  0.0320
16419W        W32553   9.764   4.754   4.111 -0.2309  0.1365 -0.3361
16420W        W32554  12.262  16.900  14.943 -0.0468  0.1322 -0.3515
16421W        W32555   8.523  17.943   1.682 -0.1161 -0.2741 -0.1893
16422W        W32556   5.946  16.024   1.797  0.0280 -0.0916  0.1511
16423W        W32557  10.175  11.910  13.957 -0.0602  0.0826 -0.2930
16424W        W32558  18.171   9.847   5.035 -0.2988 -0.1993  0.2170
16425W        W32559  18.004   1.102  13.606  0.0340  0.0195 -0.2468
16426W        W32560  13.160  10.064  12.261  0.1653  0.0522 -0.2847
16427W        W32561  18.126  17.228   1.442 -0.1396  0.0506  0.1651
16428W        W32562  12.702  18.133   1.190  0.2471 -0.0774  0.0258
16429W        W32563  10.731   0.954   1.605  0.3815  0.1899  0.0297
16430W        W32564  12.652   1.961   5.390  0.2627 -0.2552 -0.2065
16431W        W32565   2.822  13.249  15.554 -0.2365 -0.0973  0.0500
16432W        W32566  14.386  15.558  11.672  0.1593 -0.3126 -0.0819
16433W        W32567   3.298   7.005  13.591  0.2099 -0.5405 -0.0009
16434W        W32568  17.872  16.085  12.868 -0.1542 -0.0245 -0.0131
16435W        W32569   1.933   3.938   3.363 -0.0163 -0.2069 -0.1327
16436W        W32570  17.148  14.251  11.817 -0.0059  0.0630  0.0813
16437W        W32571   5.309  11.738  12.937  0.0025 -0.0097  0.1970
16438W        W32572   3.180  10.701   3.277  0.3959 -0.1758  0.2929
16439W        W32573   4.419   4.776   4.679 -0.0065 -0.1974  0.0100
16440W        W32574   1.455   5.468  15.376 -0.1705  0.0872 -0.0723
16441W        W32575  17.589   6.023  14.178  0.0112  0.2080  0.2791
16442W        W32576   0.708   4.975  14.718  0.0696  0.1617 -0.0663
16443W        W32577   5.263   1.259   4.864  0.1081 -0.0264  0.1770
16444W        W32578  11.934  16.404  12.323 -0.1472  0.0810  0.1699
16445W        W32579   5.022   4.433   3.112 -0.1730 -0.2004  0.1948
16446W        W32580  10.205  12.134   6.188 -0.0981  0.1320 -0.0881
16447W        W32581   0.552  11.756   1.273  0.0666  0.0905  0.0150
16448W        W32582   4.055   5.089   1.641  0.0231 -0.0903 -0.0024
16449W        W32583  10.597   0.999   4.037 -0.0637  0.0628  0.0831
16450W        W32584  11.735   2.593   5.165  0.1727  0.1484  0.3846
16451W        W32585  15.641   0.108   2.564  0.0635  0.0933  0.0812
16452W        W32586   5.499  13.751   3.691 -0.2306  0.1655 -0.1381
16453W        W32587   4.446   6.848  11.955 -0.0908 -0.2917  0.0115
16454W        W32588   2.316  10.073  12.921  0.1594  0.0995 -0.0331
16455W        W32589  11.703   1.429  13.251  0.2993  0.1424  0.0896
16456W        W32590  16.511  10.949  11.912  0.1033 -0.0089 -0.1069
16457W        W32591   9.813   4.142   5.595  0.1981  0.1828  0.2877
16458W        W32592  17.073   8.873   0.273  0.2825 -0.0776 -0.0849
16459W        W32593   4.788  14.401   5.183 -0.3919 -0.1012 -0.0611
16460W        W32594  14.281  13.283  15.368  0.0675  0.0069 -0.2748
16461W        W32595  13.398  13.783  12.588  0.0406 -0.1725  0.0669
16462W        W32596  17.970   9.094   4.680  0.1653 -0.0150 -0.1725
16463W        W32597  15.473   1.391  14.832 -0.5405 -0.0366  0.2629
16464W        W32598   9.439  10.187   3.690 -0.2018 -0.2554 -0.0473
16465W        W32599   9.277   9.667   4.088  0.0303 -0.2657  0.0846
16466W        W32600   7.454   6.728   1.693 -0.0305  0.1478 -0.2215
16467W        W32601   4.493   4.906  11.836 -0.3133 -0.1158 -0.1691
16468W        W32602   6.656  13.487  15.911 -0.0254  0.2068 -0.0260
16469W        W32603   1.730   6.079   9.220  0.1210  0.0358  0.0366
16470W        W32604  14.050   0.933  14.405  0.2965 -0.3328  0.0247
16471W        W32605  10.060  16.278  11.967 -0.2013 -0.2939 -0.1688
16472W        W32606  10.186  11.991   2.974 -0.2801 -0.0529 -0.0717
16473W        W32607   8.409  13.163  15.795 -0.4297  0.6794 -0.1812
16474W        W32608  13.180   1.959   6.288  0.0477  0.1740 -0.1268
16475W        W32609   5.862   9.156  15.937 -0.0395 -0.2057 -0.0818
16476W        W32610   7.476  17.336   2.878  0.0788 -0.1195  0.1606
16477W        W32611  16.591  11.786   0.281 -0.1379  0.2895 -0.0185
16478W        W32612  11.081  11.205  11.331  0.1558  0.0189 -0.1272
16479W        W32613   3.196   2.741   2.568 -0.1284 -0.0781 -0.2984
16480W        W32614  16.404  11.921  14.973 -0.0086  0.0868  0.0091
16481W        W32615   3.608  17.314  14.701  0.1579 -0.1260 -0.1413
16482W        W32616   0.141  14.261   5.126  0.3517 -0.0837 -0.0128
16483W        W32617   1.742   2.968  15.376 -0.0981  0.1056 -0.0212
16484W        W32618   5.675  17.559  15.955  0.0630 -0.0962  0.1088
16485W        W32619   9.398  16.255   5.241 -0.1579  0.0246  0.1180
16486W        W32620   1.233   5.648   3.330  0.0088 -0.2229 -0.2338
16487W        W32621   1.370  15.681   0.836 -0.2458 -0.2054  0.1560
16488W        W32622   4.619  12.553  13.562  0.3684  0.0099 -0.0155
16489W        W32623  14.615   7.159  13.503 -0.0001 -0.0406 -0.0927
16490W        W32624   4.517  14.179   5.534  0.0110  0.1293  0.3229
16491W        W32625  17.880   6.873  13.063 -0.1512 -0.0820 -0.1484
16492W        W32626  11.866  10.424   4.907  0.0545  0.2356 -0.0261
16493W        W32627   6.315   0.884   0.796  0.2104 -0.1682  0.0296
16494W        W32628  15.670  15.596   1.312  0.0747 -0.1063 -0.4007
16495W        W32629   7.316   6.596  13.793 -0.1607 -0.2279 -0.0376
16496W        W32630   5.957  17.830   2.368 -0.0514  0.4901 -0.1108
16497W        W32631   0.189  10.198   0.570 -0.0940 -0.1057  0.0081
16498W        W32632  18.503   5.981   0.764 -0.3611  0.1765  0.0752
16499W        W32633  17.172  10.507  13.837 -0.0878  0.1046 -0.2403
16500W        W32634  15.329  12.376   3.056 -0.0651 -0.1194  0.0984
16501W        W32635   0.690   5.871   3.538  0.0406  0.2952  0.2213
16502W        W32636   4.977   2.631  12.227  0.2311  0.1423  0.2051
16503W        W32637  14.141  12.048  13.008 -0.0619 -0.0296 -0.2022
16504W        W32638  17.035   9.633  15.432 -0.0479 -0.2214 -0.0758
16505W        W32639   3.748   7.427   5.393  0.0292 -0.2596  0.0910
16506W        W32640  15.200   2.347   0.133  0.0941 -0.0466  0.2754
16507W        W32641  14.648   1.720  15.049  0.0061  0.3194 -0.0953
16508W        W32642  17.434   9.453   1.888 -0.3733 -0.1333 -0.0287
16509W        W32643   0.525  14.148  11.052 -0.0404 -0.1792  0.2248
16510W        W32644  11.889  10.334  14.031 -0.1282  0.3099  0.1737
16511W        W32645  11.727   8.459   5.056 -0.0292  0.1119  0.0531
16512W        W32646  13.575   3.302   0.726 -0.1299  0.4132  0.5047
16513W        W32647  13.319  15.850   0.326 -0.1539  0.3292 -0.5291
16514W        W32648   9.002  13.066  15.943  0.3118 -0.0390  0.0858
16515W        W32649  14.447  13.434   4.249 -0.0655  0.0495 -0.0099
16516W        W32650   7.042  13.112  14.074 -0.0191 -0.1615 -0.1947
16517W        W32651   0.427   7.618  14.451 -0.1176 -0.1689  0.4635
16518W        W32652   2.856   2.904  14.224 -0.0158  0.4186 -0.1125
16519W        W32653  12.332  17.329   1.302 -0.0832 -0.1142 -0.2866
16520W        W32654   2.831   6.696  15.708  0.3084 -0.1543 -0.3293
16521W        W32655  16.736   7.955  15.914  0.2572 -0.2608 -0.1214
16522W        W32656  12.311   5.161  12.021 -0.2718 -0.1246 -0.3309
16523W        W32657   2.677   8.726   1.353  0.0904 -0.0361  0.0842
16524W        W32658   6.122   8.011  15.668  0.1118  0.3709  0.3927
16525W        W32659  16.329   2.758  12.247  0.0040  0.1366  0.2020
16526W        W32660   4.857   5.531  11.668  0.2144  0.2115  0.2295
16527W        W32661  18.490   8.365   2.079 -0.1541  0.1486 -0.2214
16528W        W32662  11.079  10.479  15.779  0.0439 -0.1578 -0.4461
16529W        W32663   0.311   5.314   1.208 -0.1963  0.0492 -0.1924
16530W        W32664  14.467   7.087  12.912  0.1163  0.3300  0.4352
16531W        W32665   5.306  16.478   1.395  0.0608  0.1546  0.0490
16532W        W32666   2.059   7.749   4.018 -0.2190 -0.5503  0.3478
16533W        W32667   4.694   6.680   0.945 -0.1907 -0.1700 -0.2644
16534W        W32668  13.070  10.064  15.889 -0.0128 -0.3150 -0.1654
16535W        W32669   3.776  11.479   3.753  0.2300 -0.1234 -0.0561
16536W        W32670   7.880   5.751   4.692 -0.0768 -0.0691 -0.3777
16537W        W32671   0.208   5.154   3.941 -0.1809 -0.0047 -0.3329
16538W        W32672  17.737   4.965  13.766  0.1098 -0.1985 -0.0447
16539W        W32673  12.968  16.754   1.578 -0.2790 -0.0742 -0.0282
16540W        W32674  11.031  14.361  12.095  0.0185  0.0102  0.0099
16541W        W32675   3.754  11.159  16.036  0.1621  0.1000  0.0040
16542W        W32676  16.218   1.993   2.569  0.0307  0.1591  0.4158
16543W        W32677  13.214   9.902   4.961  0.2584  0.1057 -0.1104
16544W        W32678   3.517  12.792   2.993  0.0888  0.5236  0.0922
16545W        W32679  14.021  14.482  15.244  0.0730 -0.0370 -0.1298
16546W        W32680  12.652  12.762   6.191  0.1246  0.0059  0.0671
16547W        W32681  17.061   8.457   1.042  0.0235 -0.0938  0.1389
16548W        W32682   1.791   0.648  15.703  0.2478 -0.0337 -0.2863
16549W        W32683  15.750   1.352  11.974 -0.2124  0.1343  0.0280
16550W        W32684   2.399  15.932   0.235 -0.1180  0.4954  0.5352
16551W        W32685   0.361  11.218   2.790  0.2992 -0.0264  0.1836
16552W        W32686   1.080  17.795  12.175  0.2003 -0.2725 -0.1062
16553W        W32687  16.826   7.648   2.877 -0.1827 -0.0009 -0.0614
16554W        W32688  16.244   8.076   1.590  0.2884  0.3618 -0.0202
16555W        W32689   0.409  17.457  13.261  0.1482 -0.1936 -0.2094
16556W        W32690   1.229   1.429  14.281  0.0026  0.0588 -0.0662
16557W        W32691   2.947   0.515  14.529  0.0028 -0.0413 -0.1125
16558W        W32692  17.322   6.788  13.299 -0.3531  0.0546 -0.2621
16559W        W32693   5.866   5.578  11.928  0.1788  0.1652 -0.0470
16560W        W32694   5.462   7.504   5.261 -0.0274 -0.2203  0.0567
16561W        W32695  18.240   6.719  10.764 -0.3343  0.1331  0.1101
16562W        W32696  16.217   4.547   4.595 -0.2567  0.3057  0.1416
16563W        W32697   8.501  15.406  14.679  0.1597 -0.0254 -0.0373
16564W        W32698  14.178   0.380   0.494 -0.1990 -0.2491 -0.2239
16565W        W32699   3.916   2.419   3.281 -0.0112  0.2650  0.0443
16566W        W32700   0.627   0.619   1.751  0.3026  0.0343 -0.2858
16567W        W32701   1.181   1.694  13.517 -0.0012  0.1850  0.0801
16568W        W32702   8.002   7.938   1.829  0.2029  0.0841  0.0100
16569W        W32703   1.370   8.881   2.336 -0.1461  0.2030  0.0211
16570W        W32704  12.682  12.755   0.626  0.2464  0.0059  0.1481
16571W        W32705  13.147  13.866  15.502  0.0558 -0.2359  0.1617
16572W        W32706   3.800  10.966   2.531 -0.0996  0.2951  0.1251
16573W        W32707  16.509   4.713  12.572  0.3308 -0.0963 -0.1246
16574W        W32708  10.822   8.688   4.108  0.2394 -0.1303 -0.2396
16575W        W32709   2.440   7.739  15.053 -0.2268 -0.0061 -0.2271
16576W        W32710   9.324   8.532  14.188  0.0205  0.2354  0.0793
16577W        W32711   0.580  18.466  12.303  0.1318 -0.0666 -0.1086
16578W        W32712   2.707  11.737   2.299 -0.2353  0.2560  0.3124
16579W        W32713  12.425   4.951  13.144 -0.1667  0.2757  0.2704
16580W        W32714   7.892  16.790   2.425 -0.2844 -0.0407  0.2361
16581W        W32715   0.358  13.847  12.370 -0.0750  0.0725 -0.1269
16582W        W32716  15.829   3.336  11.815 -0.1099 -0.0954  0.1914
16583W        W32717   0.413  15.548  15.258 -0.0657  0.1591 -0.3502
16584W        W32718   6.084   6.720   0.389 -0.1092 -0.3102  0.1110
16585W        W32719  16.967   7.626  13.411 -0.0243 -0.3169  0.0305
16586W        W32720   7.514  15.688  13.671  0.0044 -0.1356  0.2553
16587W        W32721  10.325  11.479  12.452  0.3355  0.0918  0.1821
16588W        W32722  17.485   9.451   1.006 -0.0741 -0.1571  0.0845
16589W        W32723  11.194   4.645   4.502 -0.0523  0.2065 -0.1747
16590W        W32724   3.139  10.619   0.537  0.2198 -0.1298  0.1985
16591W        W32725   4.573   5.017  14.605  0.4558 -0.0651 -0.1247
16592W        W32726  17.168   0.300  15.579  0.0373  0.0023  0.2548
16593W        W32727  14.881  16.655  10.179 -0.2610  0.0451 -0.0253
16594W        W32728   5.295   5.039  14.078 -0.1384  0.1935 -0.0569
16595W        W32729   0.668  10.796   0.764 -0.0945  0.2246  0.1258
16596W        W32730   2.352  17.592  12.348  0.0038  0.1333 -0.0796
16597W        W32731  14.041   9.078  13.260  0.2834 -0.1457 -0.1695
16598W        W32732  13.469  11.324  13.066  0.0743 -0.0643  0.0386
16599W        W32733   0.662   9.812  15.231 -0.1157  0.0698  0.0881
16600W        W32734   7.999   4.339   3.822  0.0691  0.2514 -0.0058
16601W        W32735  15.146  13.968   0.858 -0.0274 -0.1132 -0.0122
16602W        W32736  12.565   3.473  13.009 -0.1228  0.1859 -0.0237
16603W        W32737   9.726   8.335  13.912 -0.2991 -0.0569  0.1879
16604W        W32738   5.761  17.701   4.445  0.2355  0.3941  0.2329
16605W        W32739   5.607   5.862   4.116 -0.0205  0.3947 -0.0349
16606W        W32740   0.478  16.372   1.820  0.0612 -0.1298  0.2327
16607W        W32741   4.042   4.247   4.932  0.0694  0.1202 -0.1252
16608W        W32742   6.845  14.044   1.986  0.2492  0.1232 -0.0007
16609W        W32743   9.204   6.023   5.440  0.1567 -0.1980  0.0194
16610W        W32744   6.830  16.463   1.349  0.0161 -0.1209  0.3054
16611W        W32745  14.433   9.689  13.573  0.3806 -0.1340  0.0419
16612W        W32746  18.100   5.889   1.097 -0.0712 -0.2044 -0.0929
16613W        W32747  12.042   0.802  11.582  0.1815  0.0808 -0.5489
16614W        W32748  14.923  17.446   1.416  0.0179 -0.1613  0.1914
16615W        W32749  10.833  13.970  15.049  0.2187 -0.3952 -0.2089
16616W        W32750  13.215  10.508   5.637  0.0895  0.1697 -0.0481
16617W        W32751   4.294   1.856  11.589 -0.1715  0.0074 -0.0653
16618W        W32752   2.560  12.674   2.931 -0.1221  0.2030 -0.1786
16619W        W32753  13.867  10.477  15.916  0.0150 -0.2022 -0.0566
16620W        W32754   2.864  13.284   1.855  0.1280  0.0257  0.0228
16621W        W32755   5.034   7.294  11.606  0.0723 -0.0589 -0.0343
16622W        W32756  17.831  12.923   3.077 -0.1520 -0.2383  0.0956
16623W        W32757   5.503  14.549  11.534 -0.2716  0.0399  0.0140
16624W        W32758  18.334   7.257  15.967  0.0352 -0.0837 -0.0896
16625W        W32759   4.333   4.589  13.597 -0.0999 -0.0203  0.1534
16626W        W32760  10.705   7.579  15.094 -0.2985  0.1013  0.1657
16627W        W32761  16.287   7.208   5.622 -0.2342  0.1184 -0.0928
16628W        W32762   7.095   2.057   5.162  0.0484 -0.2181 -0.1412
16629W        W32763   2.575   7.159  10.866 -0.1051  0.4552 -0.0872
16630W        W32764   6.631   6.009  15.890 -0.0568  0.0332 -0.0558
16631W        W32765   1.947   1.228  11.537  0.2960 -0.3698  0.0510
16632W        W32766   8.766  13.185   4.802 -0.0087 -0.0376 -0.0029
16633W        W32767  10.751  17.499  14.197  0.1149 -0.0292  0.1729
16634W        W32768  13.437   3.083   0.239 -0.1231 -0.0036  0.2441
16635W        W32769  10.157   2.973   1.428 -0.1377 -0.0352  0.0153
16636W        W32770   6.371  10.295   5.138 -0.0577  0.2127 -0.2407
16637W        W32771  13.891  13.488  11.778 -0.1102  0.0610 -0.3214
16638W        W32772   3.647   4.374   0.533  0.0874  0.1820 -0.2183
16639W        W32773   0.009   4.322   1.102  0.2574  0.2351  0.0781
16640W        W32774  17.498   7.349   1.611  0.0039  0.0003  0.0359
16641W        W32775  12.481   3.328   0.313 -0.1275 -0.1163 -0.2364
16642W        W32776  12.197   7.140  14.782 -0.3831  0.0552  0.0726
16643W        W32777  17.382  16.429   2.139  0.1698 -0.2058 -0.0032
16644W        W32778  16.941   3.659  10.576 -0.0856 -0.0794 -0.2428
16645W        W32779   4.458  10.412   4.801 -0.0506 -0.0131  0.0333
16646W        W32780   5.374   0.709   4.253  0.0224 -0.0982 -0.1385
16647W        W32781  16.632  16.051   2.165  0.1008  0.1134  0.0225
16648W        W32782   7.653   4.467   0.219 -0.0661  0.1317 -0.0239
16649W        W32783  14.048   1.399   4.388  0.2837  0.0920  0.0943
16650W        W32784   4.406  10.516  13.105  0.1752 -0.3010 -0.0587
16651W        W32785   7.491   2.780   1.087  0.1182 -0.1104  0.0073
16652W        W32786   9.893  13.404   5.290  0.0957  0.1436 -0.1369
16653W        W32787  11.569   7.969   2.193 -0.4144 -0.1436 -0.0820
16654W        W32788  13.664  13.566  15.886  0.0866 -0.1106 -0.2317
16655W        W32789   1.401  11.064   4.435  0.0137 -0.0999 -0.1262
16656W        W32790   9.800  16.883   3.865  0.0966  0.1997  0.3661
16657W        W32791   8.444  17.607   3.569  0.1697  0.1566 -0.0701
16658W        W32792   0.674  15.089  15.339  0.4799 -0.0920 -0.1291
16659W        W32793   9.075  16.766   3.212  0.2362 -0.1712  0.2179
16660W        W32794   8.805  10.902  14.107  0.1139  0.3727 -0.2536
16661W        W32795   1.236  14.579  13.716  0.3876 -0.0005  0.0086
16662W        W32796  16.043   7.137  11.136  0.1824 -0.1077  0.2759
16663W        W32797  12.180   7.820   2.156  0.2907  0.0377 -0.1454
16664W        W32798   5.710   2.491  13.524  0.0521 -0.2643 -0.1105
16665W        W32799   9.205  16.465   0.648 -0.0279 -0.0204  0.2711
16666W        W32800   3.251   3.603  15.404  0.1505 -0.0264  0.2659
16667W        W32801   9.803   1.166   1.851  0.0108 -0.2439  0.2357
16668W        W32802   7.868   5.198   3.494  0.2903  0.0161  0.0724
16669W        W32803  16.861   5.723   3.352 -0.1225 -0.0731 -0.1103
16670W        W32804  14.101   2.884  12.563 -0.1305  0.0008  0.0379
16671W        W32805  18.271   8.398  14.592 -0.3859  0.2024  0.2031
16672W        W32806   7.532   5.651  13.850 -0.2262 -0.1330  0.1387
16673W        W32807  13.531  17.441   2.771 -0.0515 -0.0049  0.0572
16674W        W32808  13.792   6.904   3.903 -0.0286 -0.5654 -0.2719
16675W        W32809  10.671  15.492   1.277 -0.1687  0.1820 -0.0333
16676W        W32810   6.516   8.749  15.529 -0.2800 -0.4315 -0.1724
16677W        W32811   6.373  12.790   2.649 -0.1249 -0.2400 -0.0131
16678W        W32812   4.200  17.701  14.103 -0.2383  0.2258 -0.0109
16679W        W32813   0.631   6.032  10.577  0.0917  0.5784 -0.1737
16680W        W32814  10.002   2.735  15.164  0.2084  0.1907  0.0626
16681W        W32815   4.495  18.244  12.602  0.2372  0.0458 -0.0810
16682W        W32816   6.073   2.106  12.606  0.0935  0.0460 -0.0228
16683W        W32817  16.024   2.642  15.600 -0.0614  0.3270 -0.1458
16684W        W32818  11.537   7.975  12.841  0.4375  0.0128  0.4091
16685W        W32819  15.436   4.152  12.546  0.0806 -0.1948 -0.0005
16686W        W32820  12.524   8.166   0.034 -0.1550  0.2117  0.3514
16687W        W32821   2.594  11.003   1.592  0.2953  0.3432  0.1727
16688W        W32822   6.367   0.478  16.002 -0.0384 -0.1452  0.2644
16689W        W32823  15.094  15.656   1.226 -0.0798 -0.1806  0.3229
16690W        W32824  11.655  18.300  13.245 -0.1525 -0.0647  0.2746
16691W        W32825   4.391   9.417   2.768  0.0373  0.1282  0.1341
16692W        W32826   4.236   1.672   1.193  0.1765 -0.2016  0.3989
16693W        W32827   2.227  18.020  12.654  0.0605 -0.1276 -0.2341
16694W        W32828  17.799   9.954  10.858 -0.1951  0.0090  0.2604
16695W        W32829   1.577  14.742   4.984 -0.2624 -0.0402  0.3809
16696W        W32830  12.475   4.676   1.380  0.1256 -0.2763 -0.3000
16697W        W32831  13.662   6.772   0.600 -0.1671 -0.0020 -0.1667
16698W        W32832  14.947   1.088   3.373  0.0844  0.2372  0.2370
16699W        W32833   4.475  14.565   0.293  0.0907  0.2956  0.2192
16700W        W32834  16.381   3.827   2.185 -0.2123 -0.1120  0.3352
16701W        W32835   3.096   6.916   0.103 -0.0257  0.2798  0.0639
16702W        W32836  14.872  12.590   1.991  0.2467 -0.0319 -0.2765
16703W        W32837  16.309   2.907   1.480  0.0051 -0.3819 -0.2119
16704W        W32838   4.265   0.949   2.872 -0.0527  0.1765  0.0481
16705W        W32839   3.117  14.796   1.419  0.1014  0.0323  0.2011
16706W        W32840   8.917  10.039   0.472  0.0047  0.1443 -0.1474
16707W        W32841  16.403  14.646  12.497  0.1172  0.2154 -0.0677
16708W        W32842  17.620   6.315  11.867  0.0724  0.1869 -0.0541
16709W        W32843  13.679   0.744  11.340 -0.1456 -0.1728 -0.0603
16710W        W32844   4.972  10.782  13.740 -0.0790 -0.0100  0.1202
16711W        W32845  10.770   3.686   1.697  0.0398  0.1598 -0.1838
16712W        W32846   2.090   7.265   5.919 -0.3095 -0.0812  0.0379
16713W        W32847   3.778   7.262   3.590  0.2173  0.0520  0.0670
16714W        W32848  15.393  18.101   3.334  0.0148  0.2768  0.3598
16715W        W32849   8.490  18.327  12.200 -0.0231  0.0730 -0.0795
16716W        W32850  17.525   8.063  14.697  0.1059 -0.2854  0.0634
16717W        W32851   7.679   8.937  13.826  0.0171  0.1357  0.1161
16718W        W32852   5.736  11.935  13.272  0.0859  0.0854  0.1142
16719W        W32853   5.143  14.294  11.268  0.2557 -0.1111  0.0532
16720W        W32854  11.256  13.169   4.130 -0.4660  0.1036  0.0189
16721W        W32855  14.766  13.457  14.157 -0.0876 -0.5777  0.1923
16722W        W32856  13.611  17.165   0.117 -0.0565  0.1401  0.0209
16723W        W32857   1.974  10.695   4.632  0.2246  0.1993 -0.2877
16724W        W32858  17.588  12.288  10.507  0.0244 -0.0447  0.1247
16725W        W32859   8.416  14.363   2.280  0.1215  0.3983 -0.0227
16726W        W32860   6.644  15.813  11.274  0.3746 -0.1571 -0.0166
16727W        W32861   4.928  13.647  10.703  0.2531  0.2214 -0.1146
16728W        W32862   8.330  12.061   5.009  0.0070  0.4073  0.3750
16729W        W32863   6.052  13.294  14.275 -0.1099  0.3525 -0.0322
16730W        W32864   7.355  16.278  14.431  0.2082 -0.1349  0.0187
16731W        W32865  16.021   3.981   5.267 -0.0770  0.2052 -0.2213
16732W        W32866   6.398  11.281   5.213 -0.2773 -0.1020 -0.2672
16733W        W32867   8.641  11.475  15.789 -0.0395  0.0783 -0.1124
16734W        W32868  10.500  14.909  13.873 -0.5282  0.1652  0.1559
16735W        W32869  14.352  11.485   2.817  0.1280  0.2444  0.0379
16736W        W32870  18.302  17.014  13.221  0.1655  0.0123  0.0967
16737W        W32871   6.229   3.283   5.242 -0.0018  0.0348 -0.0229
16738W        W32872   4.961  12.104   0.552 -0.0191 -0.4090  0.0298
16739W        W32873   5.616  11.693  13.974  0.3496  0.2419  0.3156
16740W        W32874  11.870  16.107  16.060 -0.0131  0.1659 -0.1049
16741W        W32875  15.594   1.155   1.064  0.0564  0.1763  0.1673
16742W        W32876  18.465   1.813   3.149  0.0197 -0.0814  0.2927
16743W        W32877  10.628  12.287   2.250 -0.0211 -0.0687  0.2589
16744W        W32878  11.991   7.657  13.401  0.2675  0.3619 -0.0857
16745W        W32879   1.022  15.689  13.540  0.1188 -0.0049 -0.1297
16746W        W32880   8.068  13.121  12.624 -0.1638 -0.0195 -0.1992
16747W        W32881   5.897   5.232   0.478  0.2834 -0.2730 -0.0688
16748W        W32882   4.775   2.699   0.248 -0.5609 -0.1953  0.1949
16749W        W32883   5.514  18.254   4.023  0.0230  0.1526 -0.1802
16750W        W32884   7.453   6.860  13.194  0.2151  0.0664  0.4193
16751W        W32885  17.174   0.920   2.070  0.0573  0.1008 -0.1348
16752W        W32886   6.686   5.551   3.902 -0.0711 -0.2571 -0.3193
16753W        W32887  15.274   3.775   3.026  0.0366  0.1761  0.1313
16754W        W32888   7.944  10.677   1.451  0.0010 -0.2094  0.1161
16755W        W32889  18.351  15.402  13.033 -0.2165  0.0979 -0.0311
16756W        W32890   4.545  10.504  11.433 -0.0310  0.0960  0.0136
16757W        W32891  14.048   4.534  15.301 -0.2347  0.3732 -0.2168
16758W        W32892  17.607  14.120   5.581 -0.1723 -0.3112 -0.1492
16759W        W32893  18.399  17.703   5.701 -0.0315 -0.1990 -0.1832
16760W        W32894  13.927   7.723  11.199 -0.0787  0.1142  0.2300
16761W        W32895   2.440   7.400   4.103  0.0120  0.0185 -0.0528
16762W        W32896  13.784  17.918  12.666 -0.0632 -0.3670 -0.1110
16763W        W32897  13.753  10.258   0.232 -0.1261 -0.0757 -0.1517
16764W        W32898   9.134   8.153  12.125 -0.0181  0.2937  0.1079
16765W        W32899  18.040   3.368  12.181 -0.3347  0.0740 -0.4167
16766W        W32900  15.972  16.868   0.745  0.4120  0.1010 -0.1417
16767W        W32901  18.247   3.792   5.211 -0.1706  0.0097  0.1531
16768W        W32902  18.246   2.275   0.085  0.1049 -0.0989 -0.1441
16769W        W32903   6.967  12.117   0.863  0.1407  0.1105 -0.1454
16770W        W32904  16.451  13.768   4.632 -0.0104  0.0936  0.0298
16771W        W32905   3.846  15.493  13.953  0.1336 -0.1593  0.2858
16772W        W32906   3.173   2.397   3.950 -0.2008  0.2269 -0.0076
16773W        W32907  18.364   9.154  10.707 -0.0362 -0.1572  0.0413
16774W        W32908  16.798   8.689  11.851  0.1560 -0.0439 -0.3273
16775W        W32909   8.979   7.105  11.615 -0.2934  0.0105 -0.0408
16776W        W32910  17.763  16.973  11.333  0.1121 -0.0843 -0.1576
16777W        W32911   3.829   1.277   6.073 -0.0317  0.2244 -0.0256
16778W        W32912  10.869   2.917  15.712  0.3220  0.2785 -0.3510
16779W        W32913  15.872  16.661  12.837  0.2707 -0.1455 -0.0418
16780W        W32914  16.871   1.130  11.521 -0.1424  0.0328 -0.0350
16781W        W32915   8.912   0.605  13.176  0.0382  0.1325 -0.1275
16782W        W32916  16.138  12.398   1.396 -0.0903  0.1084 -0.0872
16783W        W32917   6.698   9.244  11.007  0.1537  0.2055  0.1212
16784W        W32918  15.808   2.526  14.535 -0.2870  0.1734  0.1159
16785W        W32919   4.746   0.254  14.571 -0.0406 -0.5493  0.0001
16786W        W32920   9.372  17.045  11.164 -0.1973  0.0039  0.0360
16787W        W32921  15.117  12.497  11.627 -0.1644  0.3457  0.2455
16788W        W32922  16.291   0.432   2.085  0.0725  0.1081 -0.1156
16789W        W32923   9.793   2.334   5.107  0.1097 -0.1580 -0.2026
16790W        W32924  11.097   1.525   3.720 -0.2607 -0.0937 -0.2366
16791W        W32925  11.146  18.345   1.571 -0.0127  0.0143  0.0944
16792W        W32926   4.588   2.172   5.372 -0.2035 -0.2045 -0.4226
16793W        W32927  16.674   5.417   1.431  0.0480  0.1366 -0.0569
16794W        W32928   8.093   2.283   0.946  0.1277 -0.2271  0.0431
16795W        W32929  13.524  18.190  15.691  0.0709  0.0925 -0.1946
16796W        W32930   8.809   2.758   4.284 -0.3169 -0.2913 -0.1574
16797W        W32931   6.446   8.241   2.843  0.0175  0.1026 -0.1900
16798W        W32932   6.131  15.044   0.345 -0.2863 -0.0256 -0.1137
16799W        W32933  14.035   4.121  14.000  0.0094 -0.1043 -0.1120
16800W        W32934  10.447  16.764   4.822  0.0237 -0.1775 -0.1583
16801W        W32935   3.956   2.173   1.411  0.1522 -0.3208  0.0431
16802W        W32936  15.067  13.386   4.207  0.0041 -0.2745 -0.2104
16803W        W32937  15.459  16.509  13.047 -0.1706 -0.0857 -0.2168
16804W        W32938   2.859  17.945   1.542 -0.1541 -0.1254 -0.0366
16805W        W32939   5.668  12.188   5.111  0.0737 -0.0552  0.0526
16806W        W32940  12.957   5.602  12.900  0.3076 -0.2623 -0.3772
16807W        W32941   7.830  16.588   1.896  0.3219  0.1486  0.0849
16808W        W32942   0.716   9.080  11.031  0.0122 -0.1805  0.1987
16809W        W32943  12.331   5.347  15.917 -0.0602 -0.0922  0.0011
16810W        W32944   3.924  16.532  12.526  0.1612 -0.0464 -0.2456
16811W        W32945  15.757   3.210   2.153 -0.0366 -0.0683 -0.3696
16812W        W32946  13.611  13.236  14.420 -0.0869 -0.5243 -0.4971
16813W        W32947   0.542   3.383  13.705 -0.0635 -0.0704  0.1440
16814W        W32948   9.780   4.974  14.214  0.3260  0.3073 -0.2415
16815W        W32949   8.362   9.137   1.273  0.0415  0.0656 -0.0911
16816W        W32950  10.364   9.523  14.392 -0.0042  0.0265 -0.3030
16817W        W32951   1.527   5.155  11.735  0.0334  0.1432 -0.2587
16818W        W32952   9.092  14.307   0.451 -0.2071 -0.0414  0.0526
16819W        W32953   9.067  15.765   2.113 -0.0976 -0.0581  0.0643
16820W        W32954  15.753  12.140   1.229 -0.3708 -0.1967  0.1102
16821W        W32955   3.887  10.953  14.284 -0.0588 -0.1468  0.0726
16822W        W32956  13.199  11.953   0.667  0.1277 -0.0163  0.1946
16823W        W32957   7.568  18.040  11.347 -0.1401 -0.1066 -0.2558
16824W        W32958  17.648   3.370   0.739 -0.2790  0.0648  0.2566
16825W        W32959  16.414  12.568   0.811 -0.0311  0.1396 -0.0948
16826W        W32960  11.259  11.970   3.047  0.2278  0.0542  0.0780
16827W        W32961  13.004   7.015  12.667 -0.0185 -0.2613  0.0109
16828W        W32962   3.049   7.078  15.390 -0.0507 -0.1474 -0.0461
16829W        W32963  13.170  12.149  15.105 -0.3720 -0.4775  0.0700
16830W        W32964   0.780  11.237  10.898  0.1663 -0.0478 -0.0337
16831W        W32965   8.072   6.148  15.412 -0.1238  0.0671 -0.1285
16832W        W32966   2.814   7.635  15.483 -0.3121  0.2022 -0.3215
16833W        W32967  17.397   4.295   1.665  0.0858  0.0336 -0.1485
16834W        W32968   9.178  10.335   0.712  0.0806 -0.1871  0.0760
16835W        W32969  17.532  11.446   4.706 -0.1888  0.0333  0.0296
16836W        W32970  16.554   7.734  15.054  0.3404  0.2625 -0.1277
16837W        W32971   7.559  10.324   2.735  0.0838 -0.0253  0.3008
16838W        W32972   5.743  14.342  12.560  0.0209 -0.3691 -0.1303
16839W        W32973   6.200   5.783   5.035  0.1626 -0.0479 -0.1458
16840W        W32974   4.072   7.777  12.379  0.1727  0.0287  0.1559
16841W        W32975  10.462  17.109  13.823  0.2122 -0.0958 -0.1129
16842W        W32976   7.749   5.457  12.227  0.5352  0.3176 -0.1157
16843W        W32977   1.258   1.187  12.777  0.3861  0.3228  0.1748
16844W        W32978   3.742   3.265  13.323  0.0366  0.2365  0.3780
16845W        W32979  14.965   8.269   4.624 -0.0850  0.0835  0.2663
16846W        W32980   1.539  10.578  10.506 -0.1215  0.2365 -0.1318
16847W        W32981  12.031   1.197   2.238 -0.1300  0.3829  0.4454
16848W        W32982  15.985   6.242   2.268  0.0328 -0.0667  0.2562
16849W        W32983  11.584   1.837  13.503  0.1991  0.0190 -0.1270
16850W        W32984   5.304  11.699  14.732  0.1374  0.1399  0.0448
16851W        W32985   2.761  10.777   0.043 -0.1381 -0.4265 -0.4694
16852W        W32986   6.436  17.603  13.666  0.2788 -0.0869 -0.1042
16853W        W32987   3.126  14.452  13.888  0.3631 -0.0029 -0.0096
16854W        W32988   0.954   8.976  14.051  0.3632 -0.1544 -0.1124
16855W        W32989  10.660   5.108  15.410  0.0477 -0.0231  0.2679
16856W        W32990   0.287   9.755  14.853  0.3986  0.2501 -0.2983
16857W        W32991   1.769   1.425   1.327 -0.4375  0.0967 -0.0609
16858W        W32992   3.099   5.006   4.903  0.0201 -0.3959 -0.2417
16859W        W32993  11.410   1.328   1.097  0.0266  0.0274  0.0841
16860W        W32994   6.646   4.919  11.558  0.1940  0.2101  0.1405
16861W        W32995  16.402   8.821   2.808  0.0702 -0.1075  0.0214
16862W        W32996   3.859  12.805  15.370  0.0940  0.1000  0.0096
16863W        W32997   8.555   3.801   0.881 -0.2611  0.0462 -0.0484
16864W        W32998  13.970  14.767   0.460  0.0415 -0.2970  0.0286
16865W        W32999   2.718  15.367   5.128  0.2146 -0.1473 -0.0918
16866W        W33000   6.732  15.132  15.305  0.0814 -0.1156 -0.1310
16867W        W33001  17.245   8.255   0.008  0.1996  0.1963  0.0892
16868W        W33002  15.947  15.264   2.922  0.1385  0.2592  0.0514
16869W        W33003   4.458  18.145   1.082  0.1831 -0.0585 -0.0650
16870W        W33004   7.791   0.517   4.403  0.3953 -0.1517  0.0978
16871W        W33005   1.879  16.352  13.726 -0.0102 -0.1616  0.1354
16872W        W33006   1.820  17.692   5.610 -0.1623 -0.2286 -0.1262
16873W        W33007   9.565  18.213   4.426 -0.2433  0.0235  0.1114
16874W        W33008   1.931   3.383   2.394  0.3442 -0.0572  0.0281
16875W        W33009  12.871  13.149  14.353 -0.1324  0.0344 -0.0191
16876W        W33010  13.650   5.073  13.777 -0.0356 -0.5727  0.2688
16877W        W33011  11.357  13.925   4.346 -0.0742 -0.1717  0.1483
16878W        W33012   6.555   9.963   1.822 -0.0719  0.0017 -0.1294
16879W        W33013   9.572   4.247  15.373 -0.1720  0.1550  0.0577
16880W        W33014  15.791  16.544   0.286 -0.3441 -0.0713  0.2372
16881W        W33015   4.527  18.367  13.184 -0.0505 -0.1101 -0.1702
16882W        W33016   7.218   1.478  12.378  0.0252  0.2566 -0.2516
16883W        W33017   0.305  16.983   3.758  0.0529  0.0909  0.1418
16884W        W33018  12.779   5.382   3.885  0.0369  0.1211  0.0361
16885W        W33019  12.104   4.162  11.008 -0.4286 -0.1386 -0.0443
16886W        W33020  15.501   2.524  12.222 -0.0150 -0.0976  0.4231
16887W        W33021   9.678  18.094  14.653  0.3720  0.3076  0.1039
16888W        W33022  10.446   8.154  15.961  0.0378 -0.0538  0.1296
16889W        W33023   3.442  17.737  11.176 -0.2169  0.0424  0.0313
16890W        W33024   6.612   7.675  13.936  0.2964 -0.0315  0.0749
16891W        W33025   8.401   1.722  13.033  0.3062 -0.1757  0.1254
16892W        W33026   6.756  10.865   2.503 -0.1129  0.3027 -0.1257
16893W        W33027   9.509  17.684   3.050 -0.0615 -0.1165 -0.1102
16894W        W33028   9.803  14.436   0.688 -0.2853  0.0889 -0.1837
16895W        W33029   3.869   1.751  14.249  0.0407  0.2216  0.1618
16896W        W33030  17.668  16.618  15.732 -0.1736 -0.6309 -0.0143
16897W        W33031   1.852  10.069  13.637  0.1118  0.0782 -0.3587
16898W        W33032  13.867  18.306  15.292  0.2040 -0.1132  0.0906
16899W        W33033  13.127  15.411   5.083  0.0518  0.1814 -0.0837
16900W        W33034  14.097  13.834  14.316 -0.1878 -0.2046  0.0500
16901W        W33035   6.644  13.618   2.240  0.2290  0.2841  0.0647
16902W        W33036  17.139  11.428  14.561  0.0032  0.0098 -0.2378
16903W        W33037  11.668   7.800  10.949 -0.1346  0.0496  0.0278
16904W        W33038   1.945   7.148  10.710 -0.3726  0.0066  0.2549
16905W        W33039  11.811  11.676   1.253 -0.1782 -0.0059  0.0650
16906W        W33040   5.878   2.602  14.065  0.0084 -0.3633 -0.0154
16907W        W33041   4.736   0.662  14.874 -0.0560  0.0692  0.2703
16908W        W33042   3.287  14.626   4.998  0.0926 -0.1035  0.2622
16909W        W33043   6.312   8.295  15.247  0.0074  0.1992 -0.2515
16910W        W33044  10.735  15.404   5.683  0.1429  0.1359 -0.1915
16911W        W33045   1.762   1.193   3.324 -0.3368  0.2245 -0.0165
16912W        W33046  11.290   1.682  13.072  0.0227  0.1493  0.2275
16913W        W33047  12.129   9.218  13.453  0.0998  0.1056  0.0499
16914W        W33048   3.062  16.348   0.937  0.0826 -0.0881 -0.0575
16915W        W33049  14.490  16.024  13.447 -0.2386  0.0034  0.0152
16916W        W33050   5.306  14.753   5.843  0.4720 -0.0307  0.2274
16917W        W33051  15.966  16.323   3.989  0.2859  0.1747 -0.0398
16918W        W33052   6.127  12.819   3.905 -0.0815 -0.0347 -0.2746
16919W        W33053   4.684   2.066   4.892  0.1438  0.0931 -0.0606
16920W        W33054  13.830   1.915  12.686 -0.0662  0.0727 -0.2481
16921W        W33055   0.913  15.921   0.871  0.1368 -0.1631  0.3802
16922W        W33056  15.821   6.021  10.333 -0.1243 -0.1673  0.1276
16923W        W33057  18.206   2.831  14.534  0.0853  0.0389  0.2641
16924W        W33058   2.676   0.090  13.641 -0.3841 -0.1663  0.1039
16925W        W33059   6.532   7.465   0.630  0.1528  0.1988 -0.0939
16926W        W33060  13.325  14.431  12.592 -0.1182  0.0975  0.0037
16927W        W33061   2.021  18.007   1.819  0.1500 -0.1245 -0.3877
16928W        W33062  10.438  16.779   2.235  0.1059  0.1169  0.0979
16929W        W33063   1.782  12.796  12.697  0.1081 -0.2749 -0.3872
16930W        W33064   0.229   2.187  14.051  0.3776 -0.0859  0.1387
16931W        W33065  13.325   6.031   3.746  0.0553  0.1121 -0.0248
16932W        W33066   4.617  11.933  15.353 -0.1477  0.1136 -0.2158
16933W        W33067   1.290   6.802  15.415  0.2820  0.0504  0.3447
16934W        W33068   4.914   9.663  10.417 -0.1059 -0.0101  0.2091
16935W        W33069  16.541  10.111   3.069  0.0849  0.3808 -0.0136
16936W        W33070   4.661   4.798   1.596 -0.1418  0.1000 -0.2713
16937W        W33071   0.954  11.294   0.629  0.0760  0.3757  0.2065
16938W        W33072   3.380   0.730  11.496 -0.0355  0.4262 -0.0644
16939W        W33073  13.004  11.223  10.504 -0.0387 -0.1192 -0.0635
16940W        W33074   8.530   4.537  14.287  0.0214  0.0584  0.1020
16941W        W33075  16.566   1.842   0.005 -0.2165 -0.0581  0.1639
16942W        W33076  11.626  16.387   2.729  0.1475 -0.0099 -0.1663
16943W        W33077   3.297   2.417   2.179  0.1678  0.2690  0.0633
16944W        W33078  10.949   7.230  13.171  0.0642  0.1342  0.1074
16945W        W33079  18.163  16.515   3.095  0.0896  0.0500 -0.1730
16946W        W33080  15.512   6.672   3.805  0.1177 -0.0836  0.0979
16947W        W33081  17.844  14.931   5.332 -0.0845  0.2670  0.2928
16948W        W33082   2.370   8.274  12.573  0.1569 -0.0301 -0.3486
16949W        W33083  15.292   5.845   2.825  0.0848  0.0651  0.0058
16950W        W33084   4.416   8.633   1.939  0.1490  0.0093  0.0321
16951W        W33085   3.186   8.779   1.466  0.1627 -0.1515 -0.3648
16952W        W33086   8.590  14.422  12.029  0.0191  0.0400  0.0993
16953W        W33087  17.624  16.302  13.295  0.1286  0.0659 -0.3873
16954W        W33088   3.574  14.184   5.046 -0.0916  0.1375  0.3285
16955W        W33089   1.076   9.358  12.288 -0.3831  0.1330  0.0507
16956W        W33090  15.271   4.129   5.828  0.2847  0.3717  0.2676
16957W        W33091   2.671   6.510  13.723 -0.2831  0.0025  0.0478
16958W        W33092  12.569  18.134   4.440 -0.1472  0.2970 -0.3322
16959W        W33093   0.247   5.552   3.511 -0.0934  0.1161 -0.0013
16960W        W33094   8.580  15.779   2.220  0.2183  0.0640 -0.0681
16961W        W33095   2.122  18.061  14.843 -0.1840  0.1042  0.0824
16962W        W33096   1.551   3.167   3.467  0.0918  0.3210 -0.0771
16963W        W33097  14.244   0.481   2.188 -0.0412 -0.1898 -0.1011
16964W        W33098   3.094  10.438  13.993  0.2280  0.1336 -0.0507
16965W        W33099   0.206   6.537  12.700  0.0934 -0.0366  0.2789
16966W        W33100  16.552   7.918   3.181 -0.1268 -0.2976  0.1966
16967W        W33101   9.356   0.157  15.483 -0.1296  0.0004 -0.2405
16968W        W33102   6.222   3.388   3.917  0.0248  0.2020  0.4869
16969W        W33103   4.228   9.656   1.434 -0.0738 -0.4762 -0.0584
16970W        W33104   1.718  12.974   5.080 -0.0495  0.2040 -0.2561
16971W        W33105  18.258  17.578  12.696  0.0398  0.0086 -0.0375
16972W        W33106  12.383   5.499  14.682  0.3364  0.0001 -0.3339
16973W        W33107   8.987  11.442   5.412 -0.0659 -0.0114  0.1945
16974W        W33108   0.253   1.508  10.658 -0.0450  0.1220 -0.1588
16975W        W33109   8.916  12.070   0.381 -0.1730 -0.2871 -0.0576
16976W        W33110   9.910   8.688  13.178 -0.0059 -0.0693  0.3062
16977W        W33111   6.106  14.789   0.921  0.1079  0.2377  0.1897
16978W        W33112  15.105   1.866  15.567  0.0370  0.0465  0.1139
16979W        W33113   7.247   8.775   4.781  0.1549  0.2242 -0.3101
16980W        W33114  11.815  16.854   3.257 -0.0646 -0.0345 -0.1016
16981W        W33115  10.492   2.652   1.758 -0.0733 -0.0842 -0.2172
16982W        W33116   8.055  13.312  15.490  0.0867  0.1584  0.2829
16983W        W33117   5.543   9.696   3.214  0.0393  0.0086 -0.2568
16984W        W33118   3.173   1.562  11.269 -0.1661  0.1924 -0.1858
16985W        W33119   5.525  12.725   4.966 -0.2800 -0.3083  0.0720
16986W        W33120   6.582  10.092   3.470  0.0055 -0.0696 -0.2940
16987W        W33121  15.414   9.986  14.244 -0.1420  0.0119  0.0382
16988W        W33122  17.399   7.859   1.729  0.0867  0.0181 -0.2352
16989W        W33123   2.864  18.148  11.755  0.4866  0.0779 -0.2781
16990W        W33124  11.505  12.796  14.485 -0.0958  0.0024 -0.0762
16991W        W33125  17.083  16.257  10.709 -0.2633 -0.1174  0.1028
16992W        W33126  15.481   3.540   3.646 -0.1141  0.2392  0.2825
16993W        W33127  14.574   5.803  15.922  0.0330 -0.2916  0.2987
16994W        W33128   0.714   0.438  13.115 -0.0213  0.1663  0.2963
16995W        W33129  13.629   4.926   4.421  0.1321 -0.1720 -0.1113
16996W        W33130  17.988   4.539  11.426 -0.0458 -0.2298  0.3381
16997W        W33131   0.063   0.669   4.346  0.0888 -0.2108 -0.0768
16998W        W33132  10.538   2.949  14.369 -0.2148  0.0004  0.1916
16999W        W33133   1.206  11.847   1.375 -0.0338  0.0360  0.1100
17000W        W33134   9.850  10.025  13.478 -0.0809  0.0126 -0.2548
17001W        W33135   7.504  13.939   4.634 -0.0037  0.1590  0.0894
17002W        W33136  10.434  11.355   5.331 -0.2618  0.0438 -0.0400
17003W        W33137   6.290   4.769  11.913  0.1376  0.0315  0.2389
17004W        W33138   2.692  11.393  12.208 -0.2008 -0.1655  0.1063
17005W        W33139   4.319   5.865   0.909 -0.1255  0.0094  0.1338
17006W        W33140   0.535   3.307  14.872 -0.1827 -0.0941 -0.2612
17007W        W33141   9.322   9.145   1.383 -0.2753  0.0708 -0.0319
17008W        W33142   6.934  11.282  13.755  0.0492  0.5018  0.0209
17009W        W33143   5.309   0.774   5.009  0.1954  0.1964  0.1402
17010W        W33144  15.088  15.254  16.058 -0.0791  0.0008 -0.6603
17011W        W33145  18.496   4.616  13.551  0.0464  0.3880  0.1373
17012W        W33146  11.428   3.645  12.940 -0.1077  0.5479  0.0731
17013W        W33147  15.258  14.984  14.715 -0.4281  0.1791 -0.0750
17014W        W33148   5.630  15.804   5.952 -0.3023 -0.1154  0.2572
17015W        W33149   7.698   3.235  11.728  0.2723 -0.0653  0.1169
17016W        W33150  12.241  13.921   3.719 -0.4131 -0.2585  0.4066
17017W        W33151  14.088  13.654  15.711  0.1348 -0.3677  0.3497
17018W        W33152   0.097   4.359  14.440  0.3207 -0.4005  0.2084
17019W        W33153  10.901   6.313   1.452  0.0985 -0.0577 -0.4425
17020W        W33154  13.600   0.171   5.161  0.3335 -0.0154  0.0162
17021W        W33155  18.318   4.765  12.738  0.1559 -0.0793  0.3632
17022W        W33156   9.603  13.909   3.198  0.0008 -0.2095 -0.1868
17023W        W33157  13.566   6.900   2.523  0.2897  0.1594  0.2115
17024W        W33158  17.389   1.161  14.604  0.2057  0.3703  0.1123
17025W        W33159   9.325   6.095   0.173 -0.2430 -0.1043  0.0683
17026W        W33160  14.132   9.473  15.076 -0.0390 -0.2942 -0.3641
17027W        W33161   7.280   3.351  10.886  0.0623 -0.0785 -0.3259
17028W        W33162  15.805  15.776  14.989  0.1389 -0.1729 -0.2332
17029W        W33163   3.937   6.259   4.042  0.1083  0.3326  0.0396
17030W        W33164   9.341  14.228  13.575 -0.1232 -0.1007 -0.2880
17031W        W33165  14.301  14.412   5.794  0.3995  0.1795  0.2158
17032W        W33166   5.643   5.933  15.715  0.0658  0.1199  0.0911
17033W        W33167   5.784  17.958  14.996 -0.0461  0.1189 -0.0840
17034W        W33168   7.353  13.045  15.487  0.0143 -0.3909  0.0622
17035W        W33169  10.224  10.569   4.503  0.0651 -0.2757  0.2423
17036W        W33170   2.679   8.211  15.276  0.2404  0.0940 -0.2519
17037W        W33171  10.989  13.556   2.100  0.1578  0.1555 -0.3921
17038W        W33172  16.233  14.763   4.456 -0.1981  0.3825  0.1695
17039W        W33173   2.677  13.224   5.010  0.1115 -0.1566 -0.2392
17040W        W33174  16.989   4.009  15.505  0.3346 -0.0507 -0.2357
17041W        W33175   7.896  12.477   5.130 -0.0185 -0.1287  0.1102
17042W        W33176  13.325   6.928   4.121 -0.2005 -0.0065 -0.0186
17043W        W33177  16.639  11.289   3.102  0.1985 -0.2029 -0.1507
17044W        W33178  16.065   1.228   3.601 -0.1485  0.0590  0.0069
17045W        W33179   9.954   3.075   1.913  0.2777 -0.0389 -0.1119
17046W        W33180   5.395  10.539   2.137  0.0567  0.3530 -0.0473
17047W        W33181   7.532  13.123   0.152  0.0180  0.0143  0.1031
17048W        W33182  10.464   0.522  12.898  0.2616  0.0714 -0.1609
17049W        W33183  11.998   0.101  11.546 -0.2974 -0.1381  0.1037
17050W        W33184   2.567   6.410  11.095  0.0526 -0.0350 -0.0248
17051W        W33185  14.083   7.195   6.034  0.1814  0.1235 -0.1046
17052W        W33186   5.356  15.885   3.198 -0.1389  0.1763 -0.3006
17053W        W33187   2.509   6.319   4.033  0.1115  0.1331 -0.0791
17054W        W33188  12.999   9.527  14.537 -0.3536 -0.1960  0.3405
17055W        W33189   6.300  10.231  13.531 -0.0803  0.5030  0.2090
17056W        W33190   8.601   5.437   0.680 -0.0630 -0.0792  0.4167
17057W        W33191  17.005  15.733  10.829  0.0990  0.0551 -0.0029
17058W        W33192   0.463   9.604   1.630  0.5997  0.2000  0.5521
17059W        W33193  11.729   1.087   0.682  0.2750 -0.0230  0.2334
17060W        W33194   7.964   9.403   4.115  0.1584  0.4146  0.2351
17061W        W33195  10.603  15.074   2.938  0.1431 -0.1816  0.0182
17062W        W33196   1.886   1.604   4.052 -0.1478 -0.0249 -0.0286
17063W        W33197   5.637  11.137   1.131 -0.4284  0.1927  0.2626
17064W        W33198   9.885  11.419  13.259 -0.1234  0.0431  0.2987
17065W        W33199   2.811   5.253   3.172 -0.3228  0.2308 -0.1755
17066W        W33200   4.298  13.320  13.974  0.0428  0.5452 -0.1302
17067W        W33201   0.358  11.942   2.331  0.0382 -0.2296 -0.1067
17068W        W33202   4.047   2.103   1.920  0.2068  0.1357  0.0719
17069W        W33203   9.848   6.484   1.204  0.3378  0.2063  0.0738
17070W        W33204  10.861  12.526  11.880  0.2668 -0.3450 -0.1191
17071W        W33205  10.406  13.360  13.895 -0.2578 -0.2765  0.0143
17072W        W33206   1.104  15.546  13.089  0.1352  0.2106 -0.0631
17073W        W33207   4.622   7.753   2.177 -0.0864  0.1548 -0.2042
17074W        W33208   9.422   8.688  12.009  0.0939 -0.0689 -0.0984
17075W        W33209   0.462  12.806  15.341  0.0387  0.0105 -0.3244
17076W        W33210  15.968   2.207   1.626 -0.3887  0.0264  0.0350
17077W        W33211   2.859  14.724   4.736  0.1880  0.0803 -0.1069
17078W        W33212   8.995  14.763   0.957  0.1096 -0.3529  0.0569
17079W        W33213  16.267   3.921   0.166  0.3786 -0.0353 -0.0504
17080W        W33214  17.145   0.943   3.127 -0.2489 -0.0183 -0.1272
17081W        W33215  17.083  17.595  15.591 -0.1540 -0.0529 -0.1468
17082W        W33216  14.911   6.853   4.730 -0.2762 -0.0903  0.2879
17083W        W33217   0.046  18.465  15.874  0.0803  0.1155  0.2135
17084W        W33218  16.197   8.348   0.601  0.1290  0.0781  0.1238
17085W        W33219   6.944  12.001  14.534 -0.0394 -0.1443  0.2066
17086W        W33220   6.620  14.553  14.528  0.2159  0.2139 -0.2252
17087W        W33221   6.907  17.600   5.633 -0.2682 -0.0134  0.0023
17088W        W33222  14.218   4.976  12.772 -0.2780  0.3115  0.0388
17089W        W33223   3.258   4.552   1.767 -0.0217  0.0395 -0.0476
17090W        W33224   2.935  14.130  12.296 -0.0057  0.0895  0.0854
17091W        W33225   3.694   4.740  14.285 -0.3388  0.0925  0.2028
17092W        W33226  18.460   7.626  12.489  0.1277  0.0505  0.2122
17093W        W33227   7.272   4.153  13.629  0.2871  0.0018 -0.3178
17094W        W33228  13.399  14.596   3.249 -0.0907 -0.1720  0.0641
17095W        W33229   4.980  17.136  11.800  0.3956  0.0826 -0.1442
17096W        W33230   4.380   8.320  13.075  0.0812 -0.0068  0.3469
17097W        W33231   7.458   9.761   5.502  0.0410 -0.0254  0.1449
17098W        W33232  13.752   8.560  14.763 -0.0358 -0.1937  0.0573
17099W        W33233  11.663   6.513   1.854 -0.2814  0.1766 -0.2092
17100W        W33234   2.171  11.880   3.258 -0.1782  0.0564 -0.0600
17101W        W33235   4.683  13.272   0.768 -0.1476  0.0573 -0.3241
17102W        W33236   2.335  14.693   3.573  0.1805 -0.1481  0.2379
17103W        W33237   1.459  13.959  13.831  0.0080  0.2995  0.1575
17104W        W33238  13.442  17.998  15.227 -0.2948 -0.0498 -0.1065
17105W        W33239  15.787  18.192   2.202  0.0136  0.2740 -0.1086
17106W        W33240   0.872   4.063  13.853  0.0484 -0.0493 -0.1361
17107W        W33241  15.910   8.657  12.048 -0.0735 -0.1107  0.2154
17108W        W33242  14.072   2.529   4.271 -0.2857 -0.0864  0.0257
17109W        W33243   5.678  17.037   5.272  0.1539  0.2656  0.0634
17110W        W33244   6.193  15.494   1.737 -0.2006  0.0701 -0.0005
17111W        W33245  13.243  16.078  12.512 -0.2355 -0.3228  0.2515
17112W        W33246  11.245   9.140   4.999 -0.0104  0.0112  0.0383
17113W        W33247   4.424   3.713  15.671 -0.0525 -0.1084 -0.2228
17114W        W33248  11.749  15.530   4.182  0.0937  0.3941 -0.0678
17115W        W33249   7.101  17.189   4.933 -0.0781  0.1318  0.3566
17116W        W33250  14.521   6.584   4.435  0.3744  0.1822  0.3718
17117W        W33251   0.083  11.127  12.532 -0.0059  0.1326  0.0062
17118W        W33252  14.808   0.739   0.891  0.3015  0.0890  0.0608
17119W        W33253  15.600   9.064  12.736  0.0825  0.3839 -0.0693
17120W        W33254   2.274   5.278  15.156  0.0903  0.1365 -0.2183
17121W        W33255   9.382   2.769   1.342  0.2223 -0.1414 -0.2191
17122W        W33256  17.596   3.129   4.169  0.1412 -0.1622  0.1231
17123W        W33257  14.625  16.538   0.268 -0.3443  0.1352  0.0812
17124W        W33258   4.523  15.896  11.015 -0.1004  0.1109  0.0003
17125W        W33259  17.041  11.246  12.681 -0.2706  0.1040 -0.3439
17126W        W33260   4.404  17.353  11.636 -0.1262 -0.1832  0.5386
17127W        W33261  11.196   7.249   5.214 -0.2618  0.2506  0.1549
17128W        W33262   3.688  16.151  14.684  0.1200  0.1263 -0.1027
17129W        W33263   6.532  13.720  14.080  0.0941  0.0291 -0.2328
17130W        W33264   9.048  10.453   3.565 -0.0125  0.2923  0.0591
17131W        W33265   8.676   0.747  11.777 -0.0122  0.1943 -0.2458
17132W        W33266  15.959   7.244  14.693 -0.5304 -0.5525  0.1561
17133W        W33267  10.103   2.565   2.164  0.2571 -0.1940  0.0090
17134W        W33268   0.997   7.218  11.683  0.1768  0.1329  0.0239
17135W        W33269  11.656  17.285  12.432 -0.1648 -0.0211 -0.0230
17136W        W33270   3.900   8.037  13.331  0.0017 -0.4170 -0.3564
17137W        W33271   5.514  14.345  13.330  0.1062 -0.1814 -0.0655
17138W        W33272   0.647   5.477   9.321  0.0126 -0.0548 -0.0073
17139W        W33273   9.913  10.980   2.571 -0.2186  0.0160 -0.2343
17140W        W33274   8.089   3.652   0.652  0.2967  0.1148  0.1879
17141W        W33275  15.372   1.515  11.362  0.2239 -0.0549 -0.3616
17142W        W33276  14.743   7.787   1.534 -0.0087  0.5165 -0.1869
17143W        W33277   9.938  15.571   1.341 -0.1147 -0.3367  0.1734
17144W        W33278  10.009  10.993   3.763  0.2890  0.3382 -0.1221
17145W        W33279   4.938   1.727   2.157  0.1223 -0.2321 -0.2214
17146W        W33280  13.919  11.049  11.942  0.0391 -0.0444 -0.1981
17147W        W33281  16.373   2.491  13.784  0.2192 -0.1667  0.1894
17148W        W33282   7.633  12.763   5.501  0.0257  0.1649  0.0219
17149W        W33283   2.124  17.194   2.948  0.3358 -0.1868  0.1918
17150W        W33284   8.398   4.939   2.384 -0.1116  0.1648  0.0236
17151W        W33285   8.299   2.647   4.529  0.3210  0.1772 -0.3697
17152W        W33286  10.731   0.858   1.081 -0.2291 -0.2218 -0.4247
17153W        W33287   7.342  17.247  14.027 -0.1179 -0.1813  0.3117
17154W        W33288   7.167   8.973   1.641 -0.2087 -0.2708  0.0650
17155W        W33289  17.437  14.572   5.474  0.1285  0.1070  0.0483
17156W        W33290   2.334   9.715  15.049 -0.0640  0.1481  0.3153
17157W        W33291  13.701   7.854   0.099  0.0648  0.2455  0.1036
17158W        W33292   4.611  15.517   0.250  0.0916 -0.0496  0.1484
17159W        W33293  15.273   2.640   6.304  0.2086 -0.3074 -0.2190
17160W        W33294   8.205  15.445   1.493  0.2497  0.2059 -0.0304
17161W        W33295   9.178  14.865   3.276  0.1231  0.0178  0.0773
17162W        W33296  15.301  14.379  14.197 -0.1270 -0.0201 -0.4647
17163W        W33297  16.153   1.421  11.491  0.2679  0.4051 -0.0191
17164W        W33298   9.989   8.544   0.686  0.2086 -0.1323 -0.1253
17165W        W33299  13.704  15.858  13.931 -0.0774 -0.0093 -0.1453
17166W        W33300   7.017  11.113   1.207  0.1279 -0.0719 -0.0889
17167W        W33301  10.188   2.273   6.317  0.2741  0.0592 -0.2206
17168W        W33302   0.667   6.097   0.220 -0.0600  0.1737  0.2076
17169W        W33303  10.389   4.683   3.200  0.0764  0.2037  0.2000
17170W        W33304   8.318   0.362  14.663  0.0167  0.0223 -0.0434
17171W        W33305   5.952   1.891   3.919  0.1022 -0.0489  0.0165
17172W        W33306   5.141  12.454   2.805  0.0336  0.0144  0.2191
17173W        W33307   9.935   9.335  16.050  0.3138 -0.0734  0.2264
17174W        W33308   3.454  15.390  12.617 -0.3569  0.4310 -0.1973
17175W        W33309   5.610  14.925   2.793  0.1383 -0.0405 -0.4435
17176W        W33310   3.354   4.155   2.673  0.0311  0.5150 -0.0021
17177W        W33311  10.420   9.880  14.728  0.2047 -0.0628 -0.3193
17178W        W33312   7.464   5.018   5.266  0.0083  0.0475 -0.1411
17179W        W33313   8.804   0.344   2.836 -0.1533 -0.2684 -0.0262
17180W        W33314  13.899   1.374   0.638 -0.0101  0.0853 -0.2317
17181W        W33315  16.228  18.259   5.021  0.1143  0.0987  0.3196
17182W        W33316  14.806  11.089  12.591 -0.1319 -0.3330 -0.3110
17183W        W33317   7.089   2.299  14.671  0.1002  0.2991 -0.0572
17184W        W33318   1.528   2.161   3.252  0.0027  0.3285 -0.1016
17185W        W33319  15.315   8.029   4.193 -0.0428 -0.2368 -0.2504
17186W        W33320   8.691   6.888   5.201 -0.2133 -0.0322 -0.2668
17187W        W33321   2.107   2.980  15.062 -0.1627  0.0564  0.0893
17188W        W33322   4.998  10.244  11.290 -0.0681 -0.2089  0.0791
17189W        W33323   6.416   2.287   1.385  0.0451 -0.0208 -0.2793
17190W        W33324  13.769   8.467   4.113  0.0812 -0.0606 -0.0407
17191W        W33325   7.444  16.716  15.219 -0.0615  0.1941 -0.2381
17192W        W33326  18.123   6.989  11.761  0.0877 -0.2225 -0.2411
17193W        W33327   4.086   3.151   1.854  0.5825 -0.0197 -0.4107
17194W        W33328  17.671  11.255  15.486 -0.0831  0.1229 -0.1385
17195W        W33329  17.495   9.747  15.744 -0.3394 -0.1315  0.0486
17196W        W33330  11.986   9.303  14.086 -0.1877  0.0151  0.0820
17197W        W33331  12.569   7.292   4.832 -0.0078 -0.1412  0.4253
17198W        W33332   7.327   3.347   3.085 -0.0008 -0.1433 -0.0237
17199W        W33333  14.846   9.714   0.162  0.2601 -0.0075 -0.0005
17200W        W33334   0.076  11.371  11.021 -0.1249 -0.1471  0.0796
17201W        W33335   4.172  10.204   4.445 -0.3099  0.1883  0.0267
17202W        W33336  13.636  14.652  14.453 -0.2452 -0.0103  0.0005
17203W        W33337   1.193   4.819   1.542 -0.2026  0.1325 -0.0514
17204W        W33338  16.777   7.278   3.644  0.1074 -0.3194 -0.2152
17205W        W33339  11.893   9.404   1.950  0.0202  0.0429  0.1206
17206W        W33340   2.982   7.487   0.923 -0.0638  0.3241 -0.2285
17207W        W33341   1.464  10.989  15.730 -0.2605 -0.2926 -0.1422
17208W        W33342   5.131   0.605   3.670 -0.0975 -0.1244  0.0182
17209W        W33343   7.777   5.296  12.924 -0.3297 -0.0403  0.3072
17210W        W33344  16.961   1.494   0.092 -0.2429 -0.3168 -0.0136
17211W        W33345   9.593   6.089  15.678 -0.0869 -0.1303 -0.2137
17212W        W33346   1.893   9.448   3.277 -0.0099 -0.4072 -0.0531
17213W        W33347  11.647   2.684  11.971 -0.2135 -0.3644  0.3182
17214W        W33348  12.523  15.361   3.673  0.0113  0.0544 -0.2163
17215W        W33349  12.363  17.770   4.217 -0.0434  0.0776 -0.0259
17216W        W33350  17.440   3.792   4.326 -0.0870  0.1710  0.1542
17217W        W33351   6.952   4.440   1.588  0.1124 -0.3263  0.4784
17218W        W33352  10.579   6.848  14.558 -0.3107  0.1218 -0.0058
17219W        W33353  18.000   1.118   3.744  0.2152  0.0996  0.0641
17220W        W33354   1.127  11.778   3.797 -0.0664  0.3980  0.0179
17221W        W33355   3.156  15.778  11.641 -0.2337  0.1613 -0.3148
17222W        W33356   0.580  10.348  15.166  0.1216  0.2502  0.0037
17223W        W33357   9.714   5.416  13.896  0.2291  0.3280 -0.0068
17224W        W33358   7.651   0.744  15.166  0.0342  0.1846 -0.0020
17225W        W33359   9.916  13.498  13.862  0.4033  0.0902  0.2573
17226W        W33360  17.587  10.781   3.092 -0.1330 -0.0439  0.0930
17227W        W33361   3.990  11.992   5.405 -0.0921 -0.0330 -0.0481
17228W        W33362  17.035  10.966  11.033 -0.4167  0.3070  0.1701
17229W        W33363   6.203  13.582   0.034 -0.1540 -0.0580  0.0775
17230W        W33364   5.654   8.977   2.575  0.3064 -0.1904 -0.1822
17231W        W33365   1.987  10.139   3.861  0.1109 -0.3256  0.3526
17232W        W33366   8.172  11.417  14.743  0.3420 -0.1910  0.4907
17233W        W33367  18.351   3.319  15.504  0.1556  0.2018 -0.0179
17234W        W33368  16.677   0.782  15.103 -0.4224 -0.4921  0.0237
17235W        W33369  17.096  11.396   2.634  0.0010 -0.3211  0.0614
17236W        W33370   3.272  18.484   1.796 -0.2398 -0.0805  0.0707
17237W        W33371   1.373   5.684   0.612 -0.2530 -0.0840  0.1524
17238W        W33372   3.839  12.522  11.968 -0.0841 -0.1788  0.0335
17239W        W33373   9.353  14.448   0.051 -0.3039  0.0602 -0.0326
17240W        W33374  16.890  17.804   3.604  0.1537  0.1394  0.1321
17241W        W33375  11.354   8.332   0.540 -0.0790 -0.0718  0.0786
17242W        W33376   0.983   7.406  15.930 -0.3271 -0.4412 -0.1874
17243W        W33377  17.351  16.585   3.747 -0.0741  0.2323  0.0430
17244W        W33378   1.744   8.957   0.444 -0.1092  0.0156 -0.0658
17245W        W33379   8.532   0.640  15.669  0.0243  0.2524  0.0542
17246W        W33380   7.093  13.996   1.113  0.1407 -0.0743  0.1218
17247W        W33381   8.261  12.554   2.727 -0.0125  0.1768  0.0347
17248W        W33382  11.446   1.520  15.158 -0.0763  0.0911  0.2399
17249W        W33383  14.730   4.193   3.711  0.0045 -0.0648 -0.1892
17250W        W33384  18.336   3.986   0.022 -0.0619 -0.0766 -0.1689
17251W        W33385   9.788   6.350   4.823 -0.0843 -0.1952 -0.0837
17252W        W33386  17.704  12.748  12.850 -0.0395 -0.3117  0.0680
17253W        W33387   1.468  17.218  15.533  0.0918 -0.0573  0.3069
17254W        W33388  13.953   6.512  13.385  0.1827 -0.0268  0.1521
17255W        W33389   5.840   6.460  16.063  0.0494  0.2193 -0.1722
17256W        W33390   7.054  14.358  11.294  0.1348  0.3905 -0.3009
17257W        W33391  13.032  16.701   2.467  0.2843  0.3496  0.2549
17258W        W33392  17.894   9.446  14.326  0.0359 -0.1045 -0.0707
17259W        W33393   4.838   1.291   5.145 -0.1631  0.3177  0.0517
17260W        W33394   0.250   9.221  14.758  0.1282 -0.1845  0.1507
17261W        W33395  15.213  12.085   3.943  0.1175 -0.0619 -0.2127
17262W        W33396   4.690   3.457  13.814 -0.0260 -0.0284  0.3314
17263W        W33397   0.179  10.761   0.686  0.1496  0.1266 -0.3459
17264W        W33398  15.452  16.679  15.577 -0.1781 -0.0285  0.2135
17265W        W33399   3.424   0.488  14.753  0.1299 -0.1820  0.0623
17266W        W33400  18.438   0.304  11.268 -0.1006  0.1889 -0.0157
17267W        W33401   1.230  16.030  11.346  0.1662 -0.0535  0.1803
17268W        W33402   6.722   5.571  15.205 -0.0190 -0.3054 -0.0499
17269W        W33403   5.833  13.078  11.887  0.3852 -0.4134  0.0007
17270W        W33404   7.633   2.061   2.921  0.0912  0.1427 -0.3037
17271W        W33405  13.417   3.889  13.204 -0.0484 -0.1701 -0.0775
17272W        W33406   8.497   2.337  14.905 -0.3167 -0.0559 -0.2296
17273W        W33407  12.282   2.442   3.696  0.2049  0.0285 -0.1987
17274W        W33408   0.604  15.443  14.817 -0.1020 -0.1569 -0.0180
17275W        W33409  16.539   4.161  15.560 -0.1316 -0.3128 -0.1280
17276W        W33410  17.236   1.532  15.696  0.1034  0.2996  0.4192
17277W        W33411   9.377  15.589   0.916 -0.1631  0.0743  0.2104
17278W        W33412   7.919  11.342  16.062  0.1597 -0.2524 -0.0247
17279W        W33413   5.766   4.438   2.749  0.0746  0.0716  0.4681
17280W        W33414  11.760  15.945  15.331 -0.2516 -0.1514 -0.0514
17281W        W33415  13.410   8.273   3.726 -0.0868 -0.3262  0.0386
17282W        W33416   4.763   1.724  15.898 -0.1358 -0.0669  0.1243
17283W        W33417   8.807   2.529   4.808  0.0371  0.0220  0.0718
17284W        W33418   4.564   6.975   9.977 -0.0112 -0.2256 -0.0088
17285W        W33419   4.224   0.892  14.144  0.1517  0.1271 -0.0889
17286W        W33420   8.321   6.590  12.303  0.1408 -0.1366  0.0956
17287W        W33421  13.676   2.359  14.233  0.0219 -0.0761  0.3009
17288W        W33422   6.577   3.243   4.286 -0.0885 -0.1437  0.1116
17289W        W33423   6.545  14.275   5.561 -0.1507  0.1115  0.2703
17290W        W33424   0.466   6.160  12.546  0.2382  0.0639 -0.1903
17291W        W33425   5.438   4.509  12.032  0.0380  0.0209 -0.2900
17292W        W33426  13.472  12.740   3.675 -0.2121 -0.1123 -0.0622
17293W        W33427  13.919   8.604  13.270  0.2151 -0.0211  0.2914
17294W        W33428  16.134   7.729  15.984 -0.0266  0.1889 -0.0750
17295W        W33429   5.542  16.135   2.793  0.1689 -0.2773  0.2780
17296W        W33430   9.752  14.490  14.179  0.0197 -0.2306  0.0731
17297W        W33431   0.534   5.229   0.279 -0.2980 -0.1168  0.4496
17298W        W33432   1.730  12.790  11.482 -0.3565 -0.2576  0.0517
17299W        W33433   6.439  13.114   4.174 -0.0696  0.0423  0.2408
17300W        W33434   1.870   4.952  12.524 -0.2892 -0.2334 -0.0254
17301W        W33435  15.264  13.267   5.897 -0.0129  0.0081 -0.0825
17302W        W33436  14.744  16.012  15.355  0.4366 -0.0603  0.2352
17303W        W33437   0.633  10.903  10.530  0.2848  0.1566 -0.2690
17304W        W33438   3.702   6.266   3.073 -0.1870 -0.0009  0.0649
17305W        W33439   9.102   8.482  12.527 -0.1373  0.1333 -0.2402
17306W        W33440   8.760  15.910   0.096 -0.0829 -0.2267 -0.0627
17307W        W33441  18.011   5.870  11.091 -0.4113  0.0803  0.0440
17308W        W33442   1.321   9.080   0.041  0.0085 -0.0571  0.1580
17309W        W33443   8.667   0.696   0.135  0.0758  0.0889  0.0560
17310W        W33444  10.891   9.501   4.741 -0.0543  0.1214 -0.0940
17311W        W33445   7.191  17.522   4.592  0.2827 -0.4119 -0.1051
17312W        W33446   9.156  13.203  14.285  0.3320 -0.3117 -0.0535
17313W        W33447   5.269   6.066  12.639  0.1062  0.2490 -0.3087
17314W        W33448   9.615   3.815  13.119 -0.1751  0.1931 -0.1548
17315W        W33449   8.795  11.023   1.963  0.1668 -0.0674  0.0643
17316W        W33450   1.892   9.934   9.640  0.2734  0.1321 -0.0005
17317W        W33451   4.244   3.237  13.971  0.3882  0.2917 -0.1077
17318W        W33452   6.080  16.676   1.926  0.2171 -0.0002  0.0214
17319W        W33453  12.457  16.246  12.556  0.0462 -0.3350 -0.1200
17320W        W33454  13.371   3.815   3.076 -0.0170 -0.2295  0.1727
17321W        W33455   5.618  13.699  11.335 -0.1766  0.2290  0.3347
17322W        W33456   7.028   8.104   1.337  0.2952  0.0130 -0.0750
17323W        W33457   3.703  16.991  14.299  0.0505 -0.0602 -0.3638
17324W        W33458   4.639  11.007   3.135  0.2578 -0.1384 -0.2668
17325W        W33459  11.308  16.435  12.901 -0.1023  0.0692  0.0197
17326W        W33460  10.290   6.231   1.910  0.0898 -0.1892 -0.2363
17327W        W33461   5.792   3.197   4.908 -0.2057  0.2402  0.1395
17328W        W33462   2.082   8.534   0.144  0.1508  0.4109  0.0512
17329W        W33463  12.162  14.360   4.618  0.0356  0.2419 -0.0508
17330W        W33464  13.575   5.752  12.153  0.3346 -0.2305 -0.2268
17331W        W33465   1.625  11.532  14.394  0.0256 -0.0889  0.1217
17332W        W33466   4.363   7.204   2.264  0.1528  0.2664 -0.0577
17333W        W33467  15.267  14.303   1.456 -0.0657  0.0447 -0.0139
17334W        W33468  16.689   2.082  11.505 -0.1241  0.0670 -0.1897
17335W        W33469  17.060   8.806   3.265 -0.2068 -0.1795 -0.1156
17336W        W33470  17.102   5.362   4.989  0.3381  0.1314  0.3594
17337W        W33471   1.332   5.614   9.936 -0.0451 -0.3411 -0.1274
17338W        W33472  13.173  13.350  13.412  0.0347 -0.1041 -0.2837
17339W        W33473  14.763  13.920   1.855 -0.2317 -0.0751 -0.1055
17340W        W33474   2.850   4.931  15.712  0.3488  0.0969  0.1525
17341W        W33475  17.328  17.864   0.848 -0.0056 -0.1866 -0.4857
17342W        W33476  14.973  17.908  10.814  0.0078  0.0419  0.0647
17343W        W33477   3.939   4.639   2.322 -0.0645 -0.2973  0.1590
17344W        W33478   6.435   3.170  15.539 -0.0896  0.1240  0.2667
17345W        W33479  11.278  14.362  13.310  0.0096 -0.1936 -0.0641
17346W        W33480   7.674  10.950   3.372 -0.2322  0.1327 -0.1322
17347W        W33481   5.975   1.138   2.141 -0.1332 -0.1132 -0.0063
17348W        W33482  13.666   8.026   5.110 -0.2036 -0.0272 -0.0997
17349W        W33483  11.726  15.271   3.583  0.0508 -0.1519  0.2166
17350W        W33484  10.894  17.386  11.898 -0.1000 -0.1603  0.2827
17351W        W33485  17.265   5.390  13.061  0.1950  0.2748 -0.1066
17352W        W33486  12.638  16.272   4.832 -0.1581  0.3211 -0.1674
17353W        W33487   4.757   1.863   3.199 -0.2384 -0.1222 -0.0695
17354W        W33488  13.713   1.528  11.839  0.0579  0.3987 -0.4087
17355W        W33489   9.891   2.434   1.382 -0.1554  0.0464 -0.2482
17356W        W33490   6.785  13.319   4.441  0.0373 -0.1914 -0.4654
17357W        W33491   6.559  14.617   3.124  0.0300 -0.1439  0.1718
17358W        W33492  16.281  10.096  10.876 -0.0491  0.1128  0.1754
17359W        W33493  13.778  12.589   0.460  0.0334 -0.0714  0.0691
17360W        W33494  11.763  17.441  14.363 -0.0142 -0.1560 -0.1089
17361W        W33495  13.693   2.530   1.709 -0.2060  0.1176  0.2628
17362W        W33496  10.096  16.116  15.446 -0.1338 -0.1633  0.2542
17363W        W33497   0.372   1.173   5.580 -0.0160  0.4332 -0.2981
17364W        W33498  15.685  12.165  13.898  0.0717  0.2883  0.1746
17365W        W33499  17.046  15.201   2.556 -0.0727  0.0784 -0.0473
17366W        W33500   2.309  16.232   1.550 -0.1588 -0.2629  0.0621
17367W        W33501  13.494  11.211  14.801 -0.0730  0.0113  0.2546
17368W        W33502  10.897  11.612   3.587 -0.3053 -0.0453 -0.0304
17369W        W33503   1.242  17.076   2.680 -0.2895  0.1844  0.2381
17370W        W33504   6.552   5.969   1.657 -0.2647 -0.0383 -0.2523
17371W        W33505   0.494  12.310  11.124 -0.0761 -0.0489  0.1856
17372W        W33506  17.288   9.088  11.026 -0.1228  0.2659  0.3061
17373W        W33507   0.790   4.468   0.575 -0.0082  0.1935 -0.0089
17374W        W33508   3.438   5.228  15.845  0.2168  0.0594  0.1570
17375W        W33509  11.939   1.523  13.702 -0.3604 -0.2016 -0.1643
17376W        W33510  11.107   7.240  14.167  0.2110 -0.2493  0.2370
17377W        W33511  12.082   1.306  12.566  0.2568  0.3429  0.0381
17378W        W33512   3.896   8.716   2.449 -0.2673  0.0236 -0.2372
17379W        W33513  10.249  12.738   3.609 -0.1793 -0.1526 -0.0571
17380W        W33514  17.800   1.559  13.827  0.0921 -0.1206  0.0768
17381W        W33515  14.227   5.884  12.715 -0.1608  0.3509  0.0273
17382W        W33516   8.016   3.834  15.185 -0.0411 -0.1351 -0.0366
17383W        W33517  13.155  11.461  13.487 -0.0024  0.1209  0.0354
17384W        W33518  11.250  14.268   1.379 -0.2380 -0.1511 -0.1185
17385W        W33519   4.317   8.925   2.664  0.0915 -0.0171  0.1915
17386W        W33520  12.795  12.733  14.700  0.3501  0.2028  0.1514
17387W        W33521   7.530   4.344   1.309  0.0499  0.0237  0.4723
17388W        W33522  16.826   1.618  13.940  0.0194 -0.0851 -0.1000
17389W        W33523  10.460   6.455   4.260  0.0725  0.0523  0.1363
17390W        W33524  13.706  13.008  15.706 -0.1193 -0.0970 -0.0006
17391W        W33525   7.688   8.629  14.193 -0.1429  0.0651  0.1685
17392W        W33526   4.953  11.444  11.854  0.2296 -0.0709  0.0331
17393W        W33527  15.303  11.167  12.697  0.1409  0.1629  0.1863
17394W        W33528   8.001   3.554  12.044  0.1148  0.1685  0.0627
17395W        W33529   3.890  16.632  13.982 -0.5005  0.1749 -0.2314
17396W        W33530   6.685   7.482  13.449  0.0318  0.0335  0.1644
17397W        W33531   9.581   4.754  15.163 -0.1356 -0.2491  0.1141
17398W        W33532  10.337   8.563   0.302  0.0973  0.0760 -0.1676
17399W        W33533  11.174   5.605  15.401  0.0033 -0.3352  0.0688
17400W        W33534  12.223   1.105  15.607 -0.1258  0.2734 -0.3663
17401W        W33535  12.481  16.358  14.811 -0.0970 -0.3431 -0.0959
17402W        W33536  18.349  15.673  14.639  0.0635 -0.3543  0.2302
17403W        W33537  12.143  15.630  15.445 -0.1085  0.0460 -0.1247
17404W        W33538  16.418   5.417   3.207  0.0435  0.0367 -0.0991
17405W        W33539  18.444   1.806   0.083 -0.1897 -0.2833  0.2783
17406W        W33540  15.021  10.237   3.883 -0.1170  0.0158  0.1159
17407W        W33541  15.896   6.534  14.980  0.0390  0.0813 -0.3501
17408W        W33542   2.643   2.354   3.287 -0.0006 -0.1429 -0.1029
17409W        W33543  15.871  17.014   4.369 -0.0440  0.2939  0.0134
17410W        W33544  12.179   7.540   4.584  0.0255  0.0123  0.0347
17411W        W33545   3.999   3.851  15.899 -0.0845  0.0200 -0.0830
17412W        W33546  10.484  15.711  12.130 -0.0857 -0.1272  0.0037
17413W        W33547   9.912   5.878   5.532  0.0634  0.1096 -0.2836
17414W        W33548   2.941   6.819   3.217 -0.1204 -0.1438  0.2411
17415W        W33549   5.587   3.970  12.359  0.0785  0.0486 -0.1011
17416W        W33550   6.984   3.388  12.618 -0.2276  0.0814  0.1498
17417W        W33551  11.996  11.640  15.117 -0.1787 -0.2148  0.1519
17418W        W33552   9.026   2.149   2.566 -0.1874  0.3564 -0.2979
17419W        W33553   6.133  10.456  11.386  0.0806  0.1101  0.1216
17420W        W33554   2.489  12.701   4.098  0.1826  0.1038 -0.1051
17421W        W33555   9.313   6.214  14.343 -0.1291  0.0218  0.5577
17422W        W33556  16.133   7.564   4.612  0.4686 -0.2745 -0.0279
17423W        W33557  10.919   4.122  15.988 -0.1452  0.0352 -0.5138
17424W        W33558   5.806   4.920  14.159 -0.2902  0.0437  0.2353
17425W        W33559   4.175   3.093  14.738  0.1061  0.0264  0.2597
17426W        W33560  16.318  10.023   5.648 -0.1378 -0.0103  0.1947
17427W        W33561  18.035  14.358   3.546  0.1954 -0.0435  0.1296
17428W        W33562  16.889  16.495  14.840 -0.6222 -0.1655  0.1402
17429W        W33563   4.935  10.819   0.420 -0.2028  0.1792  0.0465
17430W        W33564   0.346   9.612  10.321  0.2101  0.0245 -0.0144
17431W        W33565   2.963   0.494   1.145 -0.1298 -0.4456 -0.0097
17432W        W33566  11.251  16.550  14.014 -0.1286  0.0006 -0.0362
17433W        W33567   8.170   8.152  11.472 -0.1626 -0.2885 -0.0169
17434W        W33568   4.310   8.252   1.598  0.1298  0.1167 -0.1369
17435W        W33569   6.262  16.459   4.771  0.2413 -0.0223 -0.0404
17436W        W33570  14.059  16.542  13.809 -0.1278  0.2300  0.1895
17437W        W33571   7.222   3.201  14.464  0.2322 -0.2368  0.1917
17438W        W33572   4.781  12.583  11.462 -0.2418 -0.2228 -0.0429
17439W        W33573   6.871   4.084   2.821 -0.0572 -0.0874  0.4237
17440W        W33574  15.788  11.912   0.759 -0.1256  0.2283  0.0875
17441W        W33575   8.479   3.957   4.163 -0.0659  0.2296 -0.1909
17442W        W33576   1.281   5.133   0.158  0.2427 -0.3478  0.0808
17443W        W33577  12.795  15.846   3.450  0.0027  0.0698  0.0193
17444W        W33578   4.308   2.967   3.836 -0.0712  0.0500 -0.0340
17445W        W33579   2.649   2.685   0.677  0.0015  0.2648 -0.0925
17446W        W33580   9.377   0.627   1.450  0.2121 -0.1361  0.1559
17447W        W33581  12.219  18.271   1.240 -0.3120 -0.1431 -0.0902
17448W        W33582  11.958   9.039   1.613  0.0016  0.2117 -0.0182
17449W        W33583   1.063  15.389   4.575  0.2444 -0.1024 -0.2087
17450W        W33584   8.922   9.750   3.009  0.2980  0.4285  0.4008
17451W        W33585   9.466   8.597   2.745 -0.1192 -0.0095  0.3967
17452W        W33586  14.191  16.528   5.085  0.0903 -0.1026  0.2390
17453W        W33587   6.153  13.926   5.517 -0.2717 -0.0074  0.0040
17454W        W33588   9.223   1.676   3.093  0.2134 -0.0785 -0.0075
17455W        W33589  11.431   4.397   4.835  0.1264  0.1015  0.4629
17456W        W33590  14.994   9.197  11.022 -0.0775  0.1303 -0.0623
17457W        W33591  15.081   4.443  14.414  0.0610 -0.0795 -0.1020
17458W        W33592   9.001  10.904  15.208 -0.2794 -0.0641 -0.1568
17459W        W33593   8.131  17.322  15.732  0.0675  0.3294  0.0756
17460W        W33594   3.580  13.689  14.292  0.2892  0.3475  0.2008
17461W        W33595   7.523  10.517   4.407 -0.2044  0.2477  0.1724
17462W        W33596  12.526   4.054   3.666  0.0358 -0.0058  0.2271
17463W        W33597   5.128   3.823  15.093  0.2371  0.2049 -0.1429
17464W        W33598   4.118  18.153   3.706  0.2108  0.3640  0.1894
17465W        W33599   7.266   6.069  15.960 -0.1530 -0.1758  0.0179
17466W        W33600   2.325   8.958   0.427  0.2996 -0.1185  0.1618
17467W        W33601   5.015  14.686  12.278 -0.0616  0.2390  0.1984
17468W        W33602   2.860   8.688  11.977  0.4068  0.0126  0.2135
17469W        W33603   2.229   3.170   5.278 -0.2162 -0.0841  0.1276
17470W        W33604  11.979   3.799  11.809  0.0119  0.0242  0.2988
17471W        W33605   5.608   1.889   3.441  0.2113  0.1443  0.0012
17472W        W33606  13.461   2.211   1.369 -0.1817  0.2891 -0.1468
17473W        W33607  10.215  10.291  13.208 -0.1069 -0.2464 -0.3419
17474W        W33608   2.822  10.982  11.856 -0.1108  0.4100  0.0723
17475W        W33609   1.989  11.802  11.381 -0.0939  0.2133 -0.0884
17476W        W33610  13.478  15.815   4.292 -0.0393 -0.0030 -0.0320
17477W        W33611   3.235  12.657   3.469  0.3079  0.0212  0.0405
17478W        W33612  13.873   3.681   3.871 -0.1089 -0.2717 -0.0550
17479W        W33613  10.979  12.049   2.630 -0.3234 -0.0392  0.1365
17480W        W33614  10.846   2.433  15.681  0.0167 -0.0519 -0.1135
17481W        W33615   0.389   6.178  14.689 -0.1324  0.4129 -0.1311
17482W        W33616  18.261   1.191  11.992  0.3359 -0.0533 -0.1053
17483W        W33617   1.209   8.669   1.046 -0.0405  0.1116 -0.0339
17484W        W33618  15.154   9.684  11.651  0.0994 -0.0944 -0.0218
17485W        W33619  15.675   5.966  11.362  0.0363  0.4393  0.1326
17486W        W33620   7.071   3.291   0.106  0.1021  0.0059 -0.1249
17487W        W33621  17.206  11.414  11.221  0.0721 -0.0141 -0.2016
17488W        W33622  14.334   8.288   2.649 -0.2036  0.3017 -0.0940
17489W        W33623   3.017  17.707  15.036  0.0348 -0.2992  0.1373
17490W        W33624  12.258   8.749   0.579 -0.2813 -0.1920  0.0105
17491W        W33625  16.068  16.438   3.524  0.0028 -0.0147  0.0486
17492W        W33626   0.342  12.452   2.423  0.2463  0.4042  0.2868
17493W        W33627   2.676   7.476  12.040 -0.0022  0.2210  0.1606
17494W        W33628  10.778  12.532   4.723 -0.1634  0.3664 -0.0657
17495W        W33629   7.992   2.727   5.703 -0.3164  0.1088  0.0126
17496W        W33630   2.562   7.531   0.681  0.0760  0.0256  0.1328
17497W        W33631  10.510  11.793   2.598 -0.1995 -0.4802  0.0560
17498W        W33632   6.789  14.997  14.348  0.0155  0.2985  0.1020
17499W        W33633  10.038   2.575  14.637  0.1834 -0.3064 -0.0403
17500W        W33634   0.610   4.379  15.970 -0.2445 -0.1464 -0.0411
17501W        W33635  11.567   0.254   3.300 -0.4006 -0.0561 -0.1343
17502W        W33636   6.682   5.830   5.014  0.0746 -0.2633 -0.0358
17503W        W33637  16.094  18.048  14.387 -0.1125 -0.0364  0.1320
17504W        W33638   8.279   6.253  13.936  0.1909  0.2245  0.2712
17505W        W33639   9.319  17.115   4.890 -0.2351 -0.3255  0.0289
17506W        W33640  15.388   5.624   1.640 -0.0063  0.1428 -0.0343
17507W        W33641  13.914  15.533   5.059 -0.1752  0.0296  0.0933
17508W        W33642  16.833   5.729   1.052 -0.0974 -0.0831 -0.1638
17509W        W33643   9.571   6.093   2.495 -0.0356  0.3868 -0.0970
17510W        W33644   2.454  11.779  11.899 -0.0211  0.0735 -0.0783
17511W        W33645   9.470   4.265  13.355 -0.0023  0.3552  0.2619
17512W        W33646  18.267   2.528   0.960 -0.2011  0.0319  0.1731
17513W        W33647   0.706  16.626   4.749  0.0101  0.0537 -0.0410
17514W        W33648  16.475   2.561   0.593 -0.2326 -0.1415 -0.3998
17515W        W33649  16.504   6.496   1.158  0.0025 -0.2582  0.0523
17516W        W33650  10.612  13.879  15.866 -0.0899  0.0232  0.2202
17517W        W33651   2.602  16.937  15.450  0.2202 -0.1768 -0.0998
17518W        W33652  13.833   2.348   2.946  0.3598 -0.2255 -0.2316
17519W        W33653  10.710  16.750   3.841  0.2569 -0.1043  0.2545
17520W        W33654   9.727  14.145   5.241 -0.1286  0.0661  0.0962
17521W        W33655  13.244  17.549   4.582  0.1228  0.0551 -0.0713
17522W        W33656  10.588  11.180  12.850  0.5094  0.2675  0.0714
17523W        W33657   6.409   9.137   2.240 -0.2748  0.1170 -0.2264
17524W        W33658   6.996   0.845   2.172 -0.2955 -0.2440  0.4119
17525W        W33659  14.561   7.391  12.380 -0.4199 -0.0823  0.0536
17526W        W33660   9.860   3.979   6.572  0.0439 -0.2543 -0.0579
17527W        W33661  11.100   2.015   4.721 -0.0824 -0.1123 -0.0356
17528W        W33662   7.651   3.824  12.280 -0.2818  0.3177 -0.2479
17529W        W33663   2.102  12.196   0.652 -0.0031 -0.1872 -0.0140
17530W        W33664   2.106  12.165  10.346 -0.4048 -0.7004 -0.3388
17531W        W33665  15.840   5.397   0.991  0.0086  0.2337 -0.2424
17532W        W33666  18.236  12.479  11.140 -0.1133 -0.0282 -0.0953
17533W        W33667  17.019   3.493  12.216  0.1465 -0.1070  0.1148
17534W        W33668   8.681  15.690   5.714  0.4207 -0.0401 -0.1280
17535W        W33669  16.665  18.315  13.245 -0.0238 -0.2542  0.0578
17536W        W33670   3.651   7.748  11.119 -0.1486  0.0492 -0.2115
17537W        W33671   2.088   8.526   0.740 -0.1820  0.0181  0.0683
17538W        W33672   9.015   5.470   6.430  0.1080  0.0734  0.0680
17539W        W33673   6.956  12.465  12.591 -0.0745 -0.2387  0.3206
17540W        W33674   0.198   5.866  12.228 -0.0839 -0.0100 -0.1154
17541W        W33675  11.910  10.569   5.353 -0.2048 -0.2119 -0.0234
17542W        W33676   5.877   6.240   0.491  0.3209  0.1295 -0.0256
17543W        W33677   3.236   3.911  14.432 -0.1383  0.2548 -0.0611
17544W        W33678  10.454  16.554  14.652 -0.3827 -0.2742  0.3019
17545W        W33679   6.542   3.362   3.440  0.0888 -0.0480 -0.0745
17546W        W33680  18.318   1.004  12.738 -0.1862  0.4028  0.2071
17547W        W33681  14.202  15.591   3.150  0.0717  0.1211 -0.3845
17548W        W33682  14.160   2.123  12.933 -0.3198  0.1417  0.1689
17549W        W33683   3.612  10.297  11.797 -0.3059 -0.2251  0.1244
17550W        W33684   9.691   5.509   5.156  0.1552  0.2973 -0.0862
17551W        W33685   6.983   2.653  11.441  0.0218 -0.1224 -0.2061
17552W        W33686  15.986   2.878  13.096  0.1745 -0.2564 -0.1151
17553W        W33687  17.439   1.295  11.393  0.0907  0.2961  0.1422
17554W        W33688  11.682  15.454   1.028  0.2542 -0.1630  0.0289
17555W        W33689  12.580   7.802  15.813 -0.0660 -0.3435  0.2028
17556W        W33690   3.707   2.534   5.042 -0.0074  0.0030 -0.0166
17557W        W33691   4.686  15.116  11.430 -0.2101 -0.2452 -0.2505
17558W        W33692   0.689  17.355  11.572 -0.1688  0.3166  0.1324
17559W        W33693  12.651  13.273   0.767  0.0530  0.0624  0.0114
17560W        W33694   5.358  14.704  13.666  0.3146  0.0144 -0.1114
17561W        W33695   5.723  11.521  12.503 -0.0943  0.2333  0.0361
17562W        W33696   7.652  10.288   0.892 -0.3882  0.2077  0.2695
17563W        W33697   4.265  12.640  14.588 -0.1321 -0.6486  0.5090
17564W        W33698  11.583  12.037  12.159 -0.0727 -0.2409 -0.0874
17565W        W33699   3.758  10.226   1.191  0.1459 -0.0062  0.3284
17566W        W33700   8.615  10.913  13.199  0.2751  0.0228  0.1165
17567W        W33701   5.106   3.494   5.470 -0.1218  0.2240 -0.1331
17568W        W33702  15.611   7.834  14.376  0.1711 -0.1104 -0.1795
17569W        W33703   4.399   4.000   0.722 -0.0184  0.3080 -0.1026
17570W        W33704  13.414  13.015  15.279  0.0139 -0.0187  0.2584
17571W        W33705  15.804  11.374  15.473  0.0562  0.1231  0.0807
17572W        W33706  13.204   8.639   2.895  0.0303  0.0319 -0.2736
17573W        W33707  14.860   1.302   5.922  0.0568 -0.1036 -0.0022
17574W        W33708  10.525   3.836   2.185 -0.0542 -0.2702 -0.3666
17575W        W33709   1.071  14.908   4.842 -0.1361 -0.1088 -0.0806
17576W        W33710   5.071   8.799  14.221 -0.1855  0.4095 -0.1173
17577W        W33711  16.112  15.396  12.849 -0.0079 -0.1914 -0.0376
17578W        W33712   7.041  17.289   6.431 -0.1211 -0.1672  0.3400
17579W        W33713   1.116  18.280   1.675  0.0954 -0.0772 -0.2451
17580W        W33714  14.099   8.899  12.246  0.1695  0.2004  0.3242
17581W        W33715   8.493  17.106   2.317 -0.0759  0.1943  0.4682
17582W        W33716   0.322  13.367   1.410 -0.0292 -0.0831 -0.2000
17583W        W33717  15.581   1.097  11.628  0.0673  0.0667  0.2614
17584W        W33718   4.066  11.988  13.367 -0.2047 -0.0715 -0.2726
17585W        W33719  11.718  12.901   2.150 -0.1855 -0.0743 -0.0796
17586W        W33720  17.961  15.472   4.105  0.2103  0.2313  0.1484
17587W        W33721   6.968  10.400   3.495 -0.0031 -0.0466  0.0749
17588W        W33722   0.893   9.512  10.123 -0.1296  0.1757  0.0731
17589W        W33723   6.046   6.150   1.720 -0.1833  0.0216  0.1543
17590W        W33724   5.677  13.915   0.937  0.0626 -0.2132  0.0489
17591W        W33725   4.556  16.817  13.131  0.3708 -0.3272 -0.0994
17592W        W33726  11.704   9.221  13.217 -0.0520 -0.1409  0.2193
17593W        W33727   3.362  10.751  13.196 -0.0319  0.2155  0.0967
17594W        W33728   4.611   7.205  10.599  0.0829 -0.5085 -0.2288
17595W        W33729  14.983  18.235  14.325  0.2242 -0.0178  0.1734
17596W        W33730   3.432  14.134   1.793 -0.0381 -0.1630  0.1438
17597W        W33731   5.542   6.810  12.232 -0.3150 -0.1072  0.0661
17598W        W33732  15.660   8.635  11.462  0.1723 -0.2627 -0.0726
17599W        W33733   2.641   0.732   0.198  0.1289 -0.0704  0.2535
17600W        W33734  12.926  17.447  12.970 -0.0015 -0.4004 -0.0607
17601W        W33735   0.821   6.949  15.660 -0.2325 -0.3075 -0.0779
17602W        W33736   1.518  15.860   2.572  0.3022 -0.1667  0.0602
17603W        W33737   6.743   3.707   5.208  0.0863  0.0994 -0.3901
17604W        W33738  12.167   3.905   4.519  0.0625  0.1190  0.2428
17605W        W33739  10.051  18.067   5.644 -0.2175  0.0769 -0.0125
17606W        W33740   4.001  15.147   5.065 -0.1605  0.2339  0.0485
17607W        W33741  11.743   8.612  13.349  0.3027 -0.0179 -0.1192
17608W        W33742   0.974   7.827   3.346 -0.3055  0.0341  0.1143
17609W        W33743   3.088   5.268   0.980  0.1062 -0.2711 -0.1252
17610W        W33744   4.660   0.251  15.484  0.2405  0.1668  0.3695
17611W        W33745   3.337  13.039  15.678 -0.1297  0.2351 -0.0116
17612W        W33746   4.931  13.827   4.148 -0.0086 -0.1044  0.1513
17613W        W33747  14.275   4.754   0.681 -0.2874  0.0648 -0.1030
17614W        W33748  12.246  16.573   1.929 -0.2472 -0.0067 -0.1984
17615W        W33749  14.135  14.387  11.262  0.3284  0.3112 -0.0556
17616W        W33750   8.438   2.201   4.909 -0.3507 -0.1391 -0.0506
17617W        W33751  17.949  16.337   0.884  0.1823 -0.1692 -0.3210
17618W        W33752   3.319   1.635  12.575 -0.0437 -0.1196 -0.0405
17619W        W33753   1.414  13.958  13.014  0.1513 -0.2546 -0.1802
17620W        W33754   1.662  13.240  14.061  0.1331  0.0852 -0.3104
17621W        W33755  17.158   0.684   0.003 -0.2784  0.0927  0.0980
17622W        W33756  15.575   4.468  14.485 -0.1373  0.0407  0.2534
17623W        W33757  10.590  13.485   5.591 -0.0801  0.5962  0.0750
17624W        W33758   8.659  15.597   1.742  0.0296  0.0195 -0.3380
17625W        W33759   4.133  10.731   2.184  0.2322 -0.2102 -0.2263
17626W        W33760   7.387  13.230   3.360  0.0279 -0.2322  0.1155
17627W        W33761   6.073   1.954   3.154  0.1141 -0.1513  0.1888
17628W        W33762  16.972  13.401   2.670  0.0640 -0.0015 -0.4152
17629W        W33763   1.944  16.253  15.659  0.2082 -0.3956 -0.3184
17630W        W33764   5.493   2.181   5.825 -0.0343 -0.0130 -0.0018
17631W        W33765   1.135   0.167  11.322  0.1284  0.1647  0.0302
17632W        W33766   3.477  15.059   5.170  0.1408 -0.0889  0.3813
17633W        W33767  12.392   6.795   5.611 -0.0360  0.1706  0.2152
17634W        W33768   9.041   2.349  14.406 -0.4046 -0.1605  0.1210
17635W        W33769  18.043  16.860  14.204 -0.0249 -0.0250  0.0878
17636W        W33770  18.304   2.957  11.894  0.1782 -0.1200  0.0645
17637W        W33771   7.130  16.725  14.759  0.2625  0.1620  0.1359
17638W        W33772  10.201  11.075   4.291 -0.0463  0.2407  0.1420
17639W        W33773   4.247   1.551   6.129  0.0366  0.1059  0.3801
17640W        W33774   9.364  14.787  14.824  0.2987  0.1593  0.2870
17641W        W33775   4.555  18.467   5.539  0.1070  0.2050  0.4962
17642W        W33776   1.485  17.851  11.199 -0.2032 -0.0004  0.0676
17643W        W33777  17.897  15.057  12.715 -0.3485 -0.0284 -0.1929
17644W        W33778   2.067  15.249   0.601  0.0346 -0.0094 -0.0660
17645W        W33779  12.061   4.656  13.963 -0.1992 -0.2342  0.0741
17646W        W33780  11.849  16.686  11.383  0.2110 -0.2560 -0.0722
17647W        W33781   4.990   5.909  15.046 -0.0895 -0.1686 -0.1000
17648W        W33782   2.426   6.921   2.813 -0.1029 -0.0772  0.1115
17649W        W33783   7.379  12.126   1.763 -0.0490 -0.0224 -0.0665
17650W        W33784  11.318   9.401  13.461 -0.1302  0.0440 -0.0426
17651W        W33785   4.501  17.625   1.889 -0.3128  0.0330 -0.1799
17652W        W33786   3.763   2.553   0.268  0.1894 -0.0618 -0.1512
17653W        W33787   3.067   3.525  13.134 -0.2099  0.4623  0.0049
17654W        W33788   8.460   6.386   6.066  0.1586 -0.0216  0.2016
17655W        W33789  10.814  12.103   3.284  0.0242 -0.1675  0.1866
17656W        W33790   7.166   4.541   5.221 -0.0132 -0.1575 -0.0846
17657W        W33791   5.129  14.472   1.176 -0.0009  0.1223 -0.1970
17658W        W33792  18.469  11.486  14.801 -0.0202 -0.1586 -0.0160
17659W        W33793   0.852   6.404  10.244  0.1878 -0.1876 -0.0701
17660W        W33794  17.493   4.684   4.387  0.0964  0.1581 -0.0483
17661W        W33795   2.628   0.871  14.771  0.1887  0.1623 -0.1922
17662W        W33796  16.710  13.380  12.727 -0.0913 -0.2687  0.0812
17663W        W33797   2.380   2.137  15.534  0.3669 -0.3959  0.3705
17664W        W33798  18.377   4.874  11.567 -0.2133 -0.0706  0.1583
17665W        W33799  17.278  10.497   1.355  0.3065 -0.1443 -0.1619
17666W        W33800   0.304  14.062   0.849  0.2450 -0.1035  0.0199
17667W        W33801   5.611   6.549   2.574 -0.0375 -0.1182 -0.2847
17668W        W33802  15.216   5.746  14.258 -0.1665  0.0394  0.1455
17669W        W33803  16.287  10.601  15.189 -0.2383  0.3125  0.1423
17670W        W33804   7.203   8.662  13.816  0.2197  0.0364 -0.0500
17671W        W33805   2.662  15.368  13.373 -0.2125 -0.0033  0.0761
17672W        W33806  18.343  14.929  13.744 -0.1282 -0.0939  0.4052
17673W        W33807   5.208   7.512   4.212  0.1832 -0.0781  0.3393
17674W        W33808   8.873  11.099   0.237 -0.3997  0.2342  0.2858
17675W        W33809   4.992   9.879  10.898 -0.1945  0.1317  0.3198
17676W        W33810  17.683   6.680  11.533  0.4500  0.0422  0.1972
17677W        W33811  11.829   0.838  14.228  0.0090  0.0890  0.2028
17678W        W33812   6.913   1.469  14.921 -0.1288  0.1499 -0.0456
17679W        W33813  16.530   0.566   4.628 -0.1463  0.1101  0.1084
17680W        W33814  10.916   3.522   5.904  0.2448 -0.0394  0.1549
17681W        W33815   1.698  17.907   3.648  0.0649  0.1814 -0.0875
17682W        W33816   3.343   5.302   3.176  0.1593  0.0740 -0.0255
17683W        W33817  16.654  14.005  11.708 -0.0762  0.1228  0.0294
17684W        W33818  15.616   4.190   1.401 -0.2817  0.2504  0.2836
17685W        W33819   0.076  13.128   3.744 -0.0934  0.1997 -0.1736
17686W        W33820  18.213   3.349  13.176  0.1908  0.3480  0.1997
17687W        W33821   8.948   8.229   0.097  0.1798 -0.0641 -0.1856
17688W        W33822   5.917  17.577   6.020  0.6551  0.3051  0.0073
17689W        W33823  14.938  17.861   2.327 -0.2121  0.0251 -0.0021
17690W        W33824   2.100   8.040  15.208  0.5263 -0.1952 -0.0830
17691W        W33825  16.022  16.117   1.193  0.2879  0.0688 -0.2539
17692W        W33826   6.581   5.446   5.395  0.1153 -0.0564  0.0516
17693W        W33827   3.137   8.906   3.149  0.3913 -0.1520  0.3087
17694W        W33828  18.236   7.343  11.308  0.3248 -0.2868 -0.0297
17695W        W33829   4.857   8.876   4.832 -0.1505  0.0144 -0.2870
17696W        W33830  16.548  14.192   3.339 -0.1056  0.0404 -0.0192
17697W        W33831   7.515   1.502  15.127 -0.0834  0.0971  0.2067
17698W        W33832  12.398   0.049   0.302  0.2121  0.2137 -0.2923
17699W        W33833   8.644  11.408  13.986  0.1889 -0.1573 -0.0294
17700W        W33834   7.676   2.436   2.090  0.2777  0.1013  0.1152
17701W        W33835  12.549   9.431   2.421 -0.1445  0.0381  0.1478
17702W        W33836  15.035  11.934  16.087  0.1405  0.1673  0.0829
17703W        W33837  14.564   7.434   3.935 -0.3208  0.1407  0.4409
17704W        W33838  14.579   3.063   5.431  0.1012 -0.0991  0.0454
17705W        W33839  17.492   7.524   0.308 -0.5801 -0.0100  0.4459
17706W        W33840   4.952   1.664   1.649  0.0097 -0.0355  0.5258
17707W        W33841   9.409  11.339  13.392 -0.3492 -0.2188 -0.2822
17708W        W33842   5.713  12.098   1.608  0.0483 -0.1245 -0.0037
17709W        W33843   4.189  11.730   3.184  0.0197  0.1388 -0.0505
17710W        W33844  10.297   5.390  15.154  0.1576  0.0952  0.1611
17711W        W33845  10.192   8.974   0.972 -0.0363 -0.0273 -0.1599
17712W        W33846   3.971   6.111   1.286  0.3012 -0.1095 -0.0638
17713W        W33847   9.391   8.587  15.440  0.2104 -0.0673 -0.1347
17714W        W33848  10.889   6.431  13.684  0.1267  0.3136 -0.0862
17715W        W33849   4.190   0.234  13.289 -0.0326 -0.1686  0.1073
17716W        W33850   6.236   5.162   5.053 -0.0931  0.1000  0.1925
17717W        W33851  11.756   4.494   3.226  0.1003 -0.0539 -0.0670
17718W        W33852  15.935   7.224   0.035  0.1226  0.2129 -0.0663
17719W        W33853   6.000   5.194   1.949 -0.0667 -0.2479  0.1532
17720W        W33854   3.936   1.020   5.156 -0.0888  0.0717  0.1035
17721W        W33855   1.238   0.973   1.223 -0.0999 -0.0718 -0.0386
17722W        W33856  15.595   9.368   0.063  0.0566  0.2231  0.0849
17723W        W33857   4.488   2.549   4.922 -0.1362 -0.2377 -0.1700
17724W        W33858   1.840  18.223  15.206 -0.1505 -0.0562  0.1499
17725W        W33859   4.207   3.487   0.635 -0.1195  0.1293  0.1969
17726W        W33860  12.973  13.919  14.940  0.1219 -0.1200 -0.3732
17727W        W33861   0.932  12.608   3.416 -0.0338 -0.1662 -0.0088
17728W        W33862   3.860  16.290   4.352 -0.1520 -0.4230 -0.1254
17729W        W33863   0.553   0.259   4.724 -0.1472 -0.3658  0.1934
17730W        W33864   1.003  17.236   0.935 -0.0506  0.0987 -0.1406
17731W        W33865  17.879   0.034   1.052 -0.0415  0.2751  0.3439
17732W        W33866  10.300   6.881   1.638 -0.2659 -0.0820 -0.0956
17733W        W33867  14.245  15.200   4.333  0.0384 -0.0404 -0.0585
17734W        W33868   7.671  14.086  15.344  0.2996 -0.1718 -0.0619
17735W        W33869   2.652   0.874   1.279 -0.0785 -0.0176 -0.2995
17736W        W33870  13.893  17.501   0.723  0.1653  0.0292 -0.2144
17737W        W33871  10.954   5.112   4.293 -0.0425  0.1632 -0.1600
17738W        W33872   5.354   1.214   4.354  0.3724 -0.0873  0.0499
17739W        W33873  14.317  15.777   0.063  0.1416  0.1109  0.0169
17740W        W33874   9.657   1.615   5.102 -0.1662  0.2260  0.1698
17741W        W33875  12.900  13.003  12.138 -0.1120 -0.1791  0.1237
17742W        W33876   0.697  11.296   1.055 -0.1322  0.0261 -0.3276
17743W        W33877  11.841  16.197  11.441 -0.2776  0.1328 -0.0627
17744W        W33878   6.113  15.713   5.144  0.3504  0.2319 -0.2090
17745W        W33879   6.543  14.353  12.074  0.1734  0.2099 -0.0054
17746W        W33880   0.135   6.895  10.435  0.4850 -0.0559 -0.1625
17747W        W33881   7.592  17.306   1.865  0.3004  0.2744 -0.0919
17748W        W33882   7.807   9.754  15.428  0.1050 -0.2169 -0.0120
17749W        W33883   8.277  18.259   4.613 -0.1243 -0.0860  0.0716
17750W        W33884  17.678   2.125   2.882  0.0561  0.1175  0.1914
17751W        W33885  11.074   5.120  12.718 -0.0554 -0.1229  0.1349
17752W        W33886   4.446  17.468   4.921 -0.1799 -0.0096 -0.1945
17753W        W33887  10.062  11.075  11.530  0.0079  0.2284 -0.0460
17754W        W33888   6.704   5.112   2.809 -0.0512 -0.3495  0.0137
17755W        W33889  17.657  14.461   0.433 -0.0233 -0.0795  0.3827
17756W        W33890   3.934   4.058   0.767 -0.0274  0.1189  0.4097
17757W        W33891  10.207  16.693  15.464 -0.1358 -0.0458 -0.2708
17758W        W33892   5.555  17.712   3.471 -0.0481 -0.0747  0.1025
17759W        W33893   8.869  12.568   5.669 -0.1642  0.0341 -0.1091
17760W        W33894  11.285   6.634   4.750  0.0147 -0.2922  0.0671
17761W        W33895  13.547   8.128  15.137  0.3213 -0.1721 -0.1289
17762W        W33896   2.601   7.186   4.625 -0.2426  0.2196 -0.1781
17763W        W33897  15.585   2.918   5.012  0.1931  0.2203  0.3127
17764W        W33898  17.245  10.626   5.039 -0.1271  0.0243  0.3383
17765W        W33899  13.125  11.259   6.616 -0.1014 -0.1998 -0.2002
17766W        W33900   2.882  11.998  12.878 -0.1007  0.3017 -0.1139
17767W        W33901   2.279  15.861  15.468  0.2547  0.0200 -0.2660
17768W        W33902  13.372   2.106   1.849  0.0588 -0.0307 -0.1073
17769W        W33903  17.647  12.955  11.830 -0.0131  0.0515  0.1356
17770W        W33904  10.759  14.554   0.589  0.3666  0.2573 -0.0138
17771W        W33905  17.745  10.463  13.952 -0.0737 -0.2161  0.2122
17772W        W33906   9.585  13.303  14.444 -0.3870 -0.1755  0.2946
17773W        W33907   6.548  12.569   4.050  0.0271 -0.2595  0.1413
17774W        W33908  17.172   5.715  11.459 -0.0164  0.2162  0.0359
17775W        W33909  17.499  14.070   0.739 -0.1543  0.0695 -0.1645
17776W        W33910   1.141  15.496  14.022  0.1328  0.2282 -0.3198
17777W        W33911   0.615   3.072   0.659  0.2125 -0.2341  0.2395
17778W        W33912  16.296   7.373   0.910  0.0294 -0.0881  0.0301
17779W        W33913   0.726   0.844  11.343  0.0107 -0.1389  0.3206
17780W        W33914  13.072   3.244   5.564  0.0219  0.0573  0.1611
17781W        W33915  13.793   8.553   3.630 -0.0472  0.3338 -0.0050
17782W        W33916  12.663  11.655   3.972  0.0328 -0.1535  0.0560
17783W        W33917   3.910   7.621   1.015  0.2095  0.4601 -0.2548
17784W        W33918  14.197  11.058   2.517 -0.2131  0.2788 -0.0268
17785W        W33919  11.656   5.121  15.704 -0.0076  0.1555 -0.0354
17786W        W33920  10.373  15.358  15.241  0.0992  0.1294  0.1651
17787W        W33921   8.393   1.118  11.776 -0.0506 -0.1884 -0.1066
17788W        W33922   0.228  12.445  12.853 -0.1836 -0.2581  0.1587
17789W        W33923   5.057  18.179   5.681  0.0529 -0.1367  0.1576
17790W        W33924   7.295  15.244  13.680 -0.0150 -0.0672 -0.1196
17791W        W33925  14.589  11.020   2.904 -0.2494  0.1567  0.0485
17792W        W33926  11.717  16.742   5.057  0.0068 -0.0051  0.0746
17793W        W33927   9.118   5.027  15.218 -0.0394 -0.1385  0.1035
17794W        W33928   0.553   9.922  10.684 -0.0128  0.0265  0.1819
17795W        W33929   9.679   5.358   3.088  0.0157 -0.0838  0.3980
17796W        W33930   2.935   8.208   3.771  0.3195 -0.5075 -0.0677
17797W        W33931   5.195   5.702  15.513 -0.4235 -0.0211 -0.1186
17798W        W33932   8.421  10.283   0.212 -0.4209 -0.1184 -0.2631
17799W        W33933  17.210   0.306   1.940  0.2640  0.0423  0.0960
17800W        W33934   8.896   2.818   1.112  0.2087 -0.5238  0.1885
17801W        W33935   5.488   3.550  11.868  0.0784  0.1337  0.3016
17802W        W33936  12.270   5.075   3.875  0.1721 -0.2473  0.0697
17803W        W33937  15.279   7.947  13.824 -0.2132  0.0135 -0.1173
17804W        W33938   2.913   3.360  10.852  0.2551 -0.2767 -0.1983
17805W        W33939  15.556  10.696   1.998 -0.1733  0.2149  0.0094
17806W        W33940   6.397   8.329  14.541 -0.1483 -0.1879  0.2935
17807W        W33941   1.375   2.583  13.879  0.1404 -0.1041 -0.3959
17808W        W33942  16.271  15.296   0.816  0.2071  0.2685  0.1816
17809W        W33943  15.975   4.304  14.140  0.0045  0.0631 -0.1816
17810W        W33944  13.403   7.391   2.378 -0.0765 -0.1242  0.1589
17811W        W33945   5.118   9.035   1.524 -0.3847  0.3087  0.1672
17812W        W33946   4.193   1.069  12.696  0.0756 -0.0955 -0.0267
17813W        W33947   7.208   4.401  15.709  0.3920 -0.1014 -0.2168
17814W        W33948   4.937  16.266  12.007  0.2517  0.4208 -0.1691
17815W        W33949   5.400  18.474  14.060 -0.0416 -0.2189  0.0820
17816W        W33950   9.420  16.064   6.590 -0.3101  0.2806 -0.0448
17817W        W33951  11.416   4.696  15.089  0.1306  0.0312  0.1052
17818W        W33952  17.512  17.249  13.352  0.0936  0.0255  0.0131
17819W        W33953  15.296   2.127  12.727  0.0321  0.1239 -0.1311
17820W        W33954  14.392   8.676  13.443 -0.0885 -0.1743  0.1487
17821W        W33955   9.477   9.923  13.073  0.3015 -0.1034  0.0360
17822W        W33956  18.088  11.338   4.942 -0.0208 -0.0687 -0.0552
17823W        W33957  13.775  16.310   1.699  0.0053 -0.1657  0.0294
17824W        W33958  13.577  13.026   2.193  0.0473 -0.0538 -0.3602
17825W        W33959  10.803   4.382   3.487  0.0793 -0.0137 -0.1192
17826W        W33960  16.510   6.147   2.201  0.0910  0.2991  0.0178
17827W        W33961   7.319  13.669  12.631 -0.0581  0.1206  0.2986
17828W        W33962  13.741  14.290   4.644 -0.0184  0.3987 -0.0514
17829W        W33963   7.935   8.850   4.446 -0.2874 -0.1724  0.1460
17830W        W33964   2.991  11.717  13.271  0.1187 -0.0131 -0.2571
17831W        W33965   4.721   7.935   3.493 -0.0126  0.1370  0.2110
17832W        W33966   5.560   9.543  15.196  0.0119 -0.3292 -0.1663
17833W        W33967   6.239   8.856  11.948  0.0876 -0.4229 -0.2198
17834W        W33968   2.898   4.305   5.504 -0.1865 -0.0317  0.1320
17835W        W33969   7.962   5.821   2.056  0.1333  0.0060 -0.0882
17836W        W33970  12.680  13.693  14.601  0.0100  0.1543 -0.2090
17837W        W33971   7.136   6.700   3.761 -0.0166 -0.3183 -0.2304
17838W        W33972   3.335   0.060   4.250 -0.2142 -0.2729 -0.1913
17839W        W33973   3.541  17.063  12.007  0.0771  0.0912  0.0551
17840W        W33974   4.467   1.923  12.062  0.0527 -0.0360 -0.0350
17841W        W33975  12.842  16.121  13.275 -0.0280 -0.2619  0.1725
17842W        W33976  12.897  17.239   1.344 -0.2014  0.1504  0.0545
17843W        W33977  18.019  15.846  15.412 -0.0307 -0.0095  0.0216
17844W        W33978  10.437   7.180   0.304  0.0117 -0.2847 -0.3385
17845W        W33979   4.675  15.368   4.400  0.0474 -0.0284 -0.2554
17846W        W33980   2.243   3.535  13.074 -0.0459  0.0398  0.0006
17847W        W33981   5.694  13.446   3.282  0.2190 -0.0916  0.1043
17848W        W33982   6.297   2.382   4.647  0.1763  0.3086  0.0532
17849W        W33983   6.244  12.753  14.276 -0.0447  0.4156  0.2855
17850W        W33984  11.046   1.042  14.727 -0.0059 -0.2082 -0.0738
17851W        W33985   0.655   7.891   3.778  0.2853  0.0600 -0.0937
17852W        W33986   7.262   7.257  11.497 -0.0086  0.3063 -0.3202
17853W        W33987  12.533  16.957   3.320  0.0130 -0.1639 -0.2515
17854W        W33988  17.788   8.348  13.760 -0.1152  0.1353 -0.2603
17855W        W33989   8.102  13.366   4.254  0.1162 -0.0078  0.0108
17856W        W33990  10.247  18.129   3.421 -0.0924  0.0815 -0.0860
17857W        W33991  16.754  17.362   4.551  0.0278  0.0281  0.1036
17858W        W33992  17.877  17.337  12.963  0.1516 -0.0757  0.1303
17859W        W33993  10.751  15.805   0.021 -0.2445  0.2095 -0.2685
17860W        W33994   0.981   7.866   1.107  0.0456 -0.0497 -0.2213
17861W        W33995  18.273  18.101  15.712 -0.3515  0.0933 -0.1313
17862W        W33996   2.423  13.199  10.699  0.0998 -0.1597 -0.0848
17863W        W33997  17.736  14.753   3.354  0.1020  0.0093 -0.3153
17864W        W33998   8.506   9.133  15.638 -0.0492  0.0403  0.1433
17865W        W33999  15.154  10.252  11.549  0.0516  0.1464 -0.0419
17866W        W34000  10.680   0.787   3.160 -0.2197  0.0730  0.0031
17867W        W34001  18.166  15.598  13.630 -0.2406 -0.1628  0.0581
17868W        W34002   1.322   5.438  13.893 -0.3976 -0.0735 -0.4771
17869W        W34003   2.248   4.689   3.021  0.0625 -0.2240  0.1651
17870W        W34004   0.065   7.033  11.471  0.1070 -0.2484  0.1868
17871W        W34005  17.645   6.436  12.935 -0.2217 -0.1403  0.2457
17872W        W34006   4.173  12.438  10.720  0.0782  0.0958 -0.1326
17873W        W34007   6.439   1.591  14.437  0.1736  0.0138 -0.0033
17874W        W34008   4.988   1.716  12.526 -0.3953  0.2434 -0.0117
17875W        W34009   2.275   2.726  12.928  0.1351  0.1351  0.4391
17876W        W34010   5.027   6.857  14.036 -0.0519  0.1636  0.2868
17877W        W34011  11.436   4.027  14.262 -0.1274 -0.0580 -0.0316
17878W        W34012   0.374   1.243   1.794  0.1191 -0.0074  0.1016
17879W        W34013  11.147  13.537  16.061 -0.0680 -0.0229  0.2676
17880W        W34014  10.942   1.207  13.083  0.1864 -0.0510  0.3113
17881W        W34015  14.057  13.600   3.728 -0.1530  0.2500  0.0385
17882W        W34016  11.063  11.677  12.134  0.2407  0.1094 -0.3878
17883W        W34017   8.582  13.434  11.778 -0.1664 -0.3589 -0.1050
17884W        W34018   5.642   4.957  12.753 -0.0899  0.2086  0.1285
17885W        W34019   4.955  12.841   3.025 -0.1206 -0.1662  0.3849
17886W        W34020   6.557   6.201  14.324 -0.2129  0.0527 -0.0712
17887W        W34021  14.844  18.246   3.359 -0.3714 -0.3227 -0.0281
17888W        W34022  10.430   6.384  13.262  0.0588  0.3211 -0.4027
17889W        W34023   2.756  15.357   2.736  0.2046 -0.0297 -0.0795
17890W        W34024   2.430   3.339  13.580  0.0844  0.2946 -0.2982
17891W        W34025   7.196   5.132  14.542  0.0145 -0.1056 -0.3748
17892W        W34026   3.857  16.239  13.468 -0.0946 -0.2483 -0.0867
17893W        W34027  13.541   8.982  13.144  0.2516  0.2058  0.1165
17894W        W34028   2.838  14.668   5.290  0.2518  0.1692 -0.1210
17895W        W34029   0.020  17.643  10.705  0.0821 -0.0214 -0.0956
17896W        W34030   2.650   3.695  14.538 -0.0622 -0.3166  0.2576
17897W        W34031   4.215  18.085   4.169  0.0222  0.0751 -0.0386
17898W        W34032   7.101  14.939  15.067  0.1033 -0.2277 -0.3066
17899W        W34033  15.192   9.545  14.534 -0.0533  0.1193  0.0773
17900W        W34034   8.319  16.900  11.804 -0.0244  0.1878  0.0793
17901W        W34035  16.441   6.712  12.385 -0.2436 -0.1620  0.1276
17902W        W34036   0.191   5.842   2.219  0.2137  0.0777 -0.0700
17903W        W34037   6.567   6.258  12.810 -0.0597  0.1214  0.2519
17904W        W34038  17.244  14.745   5.052 -0.0389 -0.0604 -0.1440
17905W        W34039   7.798  16.981  11.866  0.1904 -0.2065  0.0544
17906W        W34040  12.649  10.767   1.426 -0.1408 -0.0443 -0.3886
17907W        W34041   4.910  12.049   4.321  0.2099  0.1076 -0.1066
17908W        W34042   3.628   4.224   4.128  0.0046 -0.1584  0.1261
17909W        W34043  10.041  12.097   1.474 -0.0429  0.0667 -0.2461
17910W        W34044   8.906  15.822   2.594 -0.3099  0.1422  0.1079
17911W        W34045  15.364  16.051  11.338 -0.0601 -0.1141 -0.0105
17912W        W34046   7.971  10.829  14.734 -0.0347 -0.0544  0.2932
17913W        W34047   5.295   4.793   0.988  0.0106 -0.0633 -0.1252
17914W        W34048  18.223   2.316   2.985  0.1367  0.0421  0.0776
17915W        W34049  15.755  15.283   2.461 -0.1433  0.2490 -0.0601
17916W        W34050  12.236  10.464  11.916 -0.1052 -0.1568 -0.1403
17917W        W34051   7.506   7.125   0.335  0.0501  0.0480  0.1585
17918W        W34052   3.465   0.495  11.040  0.0672 -0.2176 -0.0541
17919W        W34053   4.916   6.466  11.329  0.1476 -0.0657 -0.1931
17920W        W34054  15.354   7.111  12.034 -0.0500 -0.0548  0.0630
17921W        W34055   2.821  14.059  10.435  0.0263  0.2118 -0.0814
17922W        W34056  15.480  17.421   1.302  0.0922  0.2945 -0.4017
17923W        W34057  11.777  14.792   4.637  0.0088 -0.2364  0.1668
17924W        W34058   9.031   7.902   2.771  0.0089  0.2061  0.1913
17925W        W34059   6.425   8.358  15.840  0.0380  0.0589  0.1268
17926W        W34060  18.103   9.299  15.878 -0.2824 -0.0217 -0.1629
17927W        W34061  10.102   7.414  14.301  0.1290  0.2042  0.0714
17928W        W34062   3.163   5.452  11.969  0.3342 -0.3182  0.2854
17929W        W34063  11.844   6.244  15.074 -0.0238  0.0556  0.0033
17930W        W34064  11.465   7.148   1.721  0.0805 -0.3210  0.2494
17931W        W34065   0.724   7.431  13.003  0.0394  0.5039  0.3155
17932W        W34066   2.589   0.296  15.021  0.0586  0.0952  0.0005
17933W        W34067   9.955  13.479   5.785  0.2121  0.0216  0.4119
17934W        W34068  17.765   3.924   0.588  0.4036 -0.1384  0.1541
17935W        W34069  18.092   8.844  10.443 -0.0408 -0.2632 -0.0492
17936W        W34070   6.659  11.827   2.941 -0.1436  0.3406  0.1113
17937W        W34071   3.366  13.112  11.238 -0.2772  0.2777  0.1276
17938W        W34072  15.913  17.778  15.730 -0.0584 -0.1963  0.0936
17939W        W34073  10.897   3.874   4.879 -0.2654 -0.1951 -0.0909
17940W        W34074   5.256   1.627   3.008  0.4007 -0.2880  0.2216
17941W        W34075  15.209   5.300   5.338  0.0201 -0.0618  0.0358
17942W        W34076   8.310  11.909   2.322 -0.2001  0.0735  0.0436
17943W        W34077   7.737  11.986   1.324  0.0372  0.3277  0.0923
17944W        W34078  16.206   3.101   3.890  0.1980 -0.0363  0.0518
17945W        W34079   6.726  15.910  12.179 -0.0811  0.0858 -0.1048
17946W        W34080  13.008  16.821  15.526 -0.2039 -0.0561  0.1534
17947W        W34081   4.118  15.295   0.433  0.0789  0.0300 -0.0537
17948W        W34082   8.292   2.490  13.819 -0.1650  0.2282 -0.0040
17949W        W34083  12.161  12.720   0.497 -0.2870  0.3020 -0.2114
17950W        W34084  11.650  12.771   4.742 -0.3928 -0.0368  0.0921
17951W        W34085   4.042   2.515   4.603 -0.4418 -0.1461  0.2002
17952W        W34086   4.958   0.111   3.712  0.1146 -0.0190  0.0972
17953W        W34087  13.255   9.451   5.187 -0.0520  0.0491 -0.2170
17954W        W34088   3.098  12.720  11.075 -0.1453  0.2594  0.2462
17955W        W34089   5.368   9.268  11.256  0.0520  0.0450  0.4607
17956W        W34090   1.591   4.340   2.275  0.0209  0.1504  0.4552
17957W        W34091  12.133   2.051  15.463 -0.0320  0.0293  0.1251
17958W        W34092  12.946   0.046   0.927  0.2196  0.1127 -0.0410
17959W        W34093   3.249   1.355  10.823 -0.0286  0.0980  0.0012
17960W        W34094  16.500  17.324  13.039 -0.2667  0.2557  0.1855
17961W        W34095  11.506  10.464   2.840 -0.1866  0.1920  0.2780
17962W        W34096   2.299   0.299  15.503  0.0400 -0.3092 -0.0412
17963W        W34097  17.559   3.482   0.106  0.0891  0.0019  0.2870
17964W        W34098   2.305  12.050   2.423 -0.1505  0.0125 -0.2227
17965W        W34099   6.929   8.178  13.915 -0.1505 -0.0525 -0.1195
17966W        W34100  14.559  15.171  11.378 -0.1600  0.0676 -0.0428
17967W        W34101   6.130  13.166   0.670 -0.1153  0.1068  0.2042
17968W        W34102   5.148   4.685   1.785  0.4830 -0.4948  0.0330
17969W        W34103   9.776   7.574  15.510  0.3363  0.4326 -0.2023
17970W        W34104   9.319   1.791   4.195 -0.1137  0.3058  0.0914
17971W        W34105  12.248   0.496  14.586 -0.1428  0.1115 -0.0490
17972W        W34106  16.679   5.421   3.655 -0.2423 -0.0078 -0.2316
17973W        W34107  11.600   4.791  13.746 -0.0235  0.4170  0.0195
17974W        W34108  17.148   1.907   0.819  0.0816 -0.3224  0.0054
17975W        W34109  14.288   4.270   4.384 -0.1637  0.1063  0.3002
17976W        W34110   6.101   1.945   2.595 -0.1227  0.0842  0.2097
17977W        W34111  17.560   9.126   0.086  0.0035 -0.1489 -0.0510
17978W        W34112   7.044  13.214   4.894 -0.2053 -0.0903 -0.0838
17979W        W34113  13.381  12.212   3.592  0.2633  0.0296 -0.1755
17980W        W34114   1.002  13.973   4.732 -0.0728 -0.0849  0.0962
17981W        W34115   5.682   3.220   3.700  0.1245 -0.2353  0.1806
17982W        W34116   8.170   7.159  13.359 -0.2088 -0.2745  0.0646
17983W        W34117  11.747   9.797   1.289  0.2771 -0.1038 -0.2239
17984W        W34118  12.445  13.634   2.216  0.2270 -0.2398 -0.3735
17985W        W34119   5.236   3.539  11.045 -0.0544  0.2022 -0.0137
17986W        W34120   8.652  17.005  13.347  0.0040 -0.0959 -0.0299
17987W        W34121  15.335  12.435   4.320 -0.0185 -0.0116 -0.4361
17988W        W34122  13.555  16.570  15.659 -0.1825 -0.3525  0.3333
17989W        W34123   0.004   8.534  15.855  0.1022 -0.0174  0.0750
17990W        W34124   4.963  16.695  14.599 -0.1281 -0.0155 -0.0462
17991W        W34125  10.968   4.118  14.074 -0.2908  0.2918  0.0714
17992W        W34126  16.745   6.709  15.117  0.2223 -0.0709  0.2433
17993W        W34127  15.886   9.797   3.962  0.2645 -0.1898  0.0876
17994W        W34128  11.928  10.117   0.943  0.3065  0.0267 -0.0945
17995W        W34129  14.481  10.996   0.716  0.0349 -0.0242  0.0942
17996W        W34130  17.100   7.582   4.608  0.2849  0.0258  0.1966
17997W        W34131   7.543   9.213   0.566  0.1656  0.3270 -0.0304
17998W        W34132  10.554   7.971   1.872  0.0967 -0.2857  0.2210
17999W        W34133   8.078  10.468   4.721  0.1481  0.1094 -0.1454
18000W        W34134   8.163   5.093   5.609 -0.2849 -0.1199  0.1159
18001W        W34135   4.176  15.161   2.600  0.2185  0.1360  0.1559
18002W        W34136  15.682   2.267   4.229  0.0882 -0.2598  0.2724
18003W        W34137  12.099  17.096  11.145 -0.3595 -0.0392 -0.0736
18004W        W34138  17.182   4.827  14.565  0.2613  0.3061  0.2578
18005W        W34139  17.014  12.946  12.416  0.2182  0.2961  0.1577
18006W        W34140   0.054   4.000   4.267  0.0656  0.0277 -0.0670
18007W        W34141   3.428   6.438  11.241 -0.0420  0.2498 -0.1006
18008W        W34142   9.399  17.443   0.155 -0.1212  0.1674  0.1666
18009W        W34143   3.264   6.556   5.938  0.0548  0.0920 -0.0750
18010W        W34144   0.153  10.649   1.741  0.0385 -0.1806  0.4312
18011W        W34145   1.114   8.809  15.265 -0.1065  0.3419  0.0692
18012W        W34146   6.302  14.803  15.283  0.0693 -0.2099 -0.0823
18013W        W34147  18.285   4.043   0.506  0.2574 -0.1867 -0.0124
18014W        W34148   3.556   0.612   2.213 -0.0835  0.0279  0.0918
18015W        W34149   5.153  14.877  13.224 -0.2216  0.1560  0.0118
18016W        W34150   9.338   3.740  15.259  0.3815 -0.0517  0.1789
18017W        W34151   1.943  10.822  10.601 -0.0453  0.0691 -0.0270
18018W        W34152   2.364   5.544  11.955  0.1283 -0.2151 -0.1180
18019W        W34153   8.927   6.738  15.599 -0.1044  0.0596  0.2212
18020W        W34154  10.840   7.619   5.270  0.3126  0.1340  0.0009
18021W        W34155   2.739   0.093  15.449 -0.1201  0.3274  0.3623
18022W        W34156  10.313  17.034   0.083 -0.2243 -0.1235  0.1859
18023W        W34157  10.049   5.539   3.413  0.2117  0.2443  0.1067
18024W        W34158  16.166   5.685   3.789 -0.1754  0.0785  0.0850
18025W        W34159   3.741   0.639   2.775 -0.1763  0.1315  0.0200
18026W        W34160  16.666  15.822   3.419 -0.2601 -0.3037 -0.0077
18027W        W34161  14.522   7.907   2.322 -0.0924  0.2502 -0.0958
18028W        W34162   9.022  18.321  13.603 -0.0143 -0.2723  0.2807
18029W        W34163   4.013  11.626  10.127 -0.1641  0.1824 -0.1831
18030W        W34164   6.775  16.687  12.415 -0.0864 -0.0397 -0.1900
18031W        W34165  17.022   3.053  11.662  0.1268  0.1183 -0.0817
18032W        W34166   2.622   1.518   5.945  0.1115 -0.1362 -0.0513
18033W        W34167  11.176  13.444  11.559 -0.1756  0.2970 -0.1359
18034W        W34168  18.023   0.639  10.539  0.0549  0.2149 -0.3511
18035W        W34169   5.965   3.497   1.615 -0.2022  0.1435  0.0333
18036W        W34170   0.468   4.342  14.138 -0.1439 -0.0809  0.3585
18037W        W34171  17.491   2.085   1.210  0.2374  0.0786 -0.2794
18038W        W34172   4.697   9.903  14.065 -0.1426 -0.0330 -0.0514
18039W        W34173  11.790   7.966   6.193  0.0872 -0.0331  0.0707
18040W        W34174   3.017  12.237  12.418 -0.0808 -0.0771  0.0130
18041W        W34175   5.961  13.243   4.223 -0.1555  0.1574 -0.2775
18042W        W34176   1.779  10.419  11.062 -0.1042  0.2582  0.0172
18043W        W34177   4.105  12.281   4.535 -0.1402 -0.1239 -0.1448
18044W        W34178   6.000   7.387   1.998  0.0667 -0.0466 -0.2588
18045W        W34179  15.709   4.553   3.482  0.0449 -0.0841  0.0887
18046W        W34180  17.401   1.864  13.726  0.1823 -0.0730  0.0599
18047W        W34181  11.831  14.488  13.997  0.0201 -0.2438 -0.0160
18048W        W34182   8.733   1.889  15.132  0.2111  0.3761 -0.0296
18049W        W34183   7.067   2.479   3.500  0.2348  0.3147  0.0008
18050W        W34184  10.398   5.937   3.570  0.0868 -0.0472  0.2307
18051W        W34185   1.464  10.911   3.428 -0.1388 -0.2376 -0.0835
18052W        W34186  15.928  10.287   1.836  0.0982  0.0292 -0.0290
18053W        W34187  11.716  15.894  12.746  0.1472 -0.0094 -0.0800
18054W        W34188  12.084  14.087  16.019 -0.0239  0.2656 -0.2435
18055W        W34189   8.485   8.744   6.195  0.3261  0.2089  0.0300
18056W        W34190  13.007  14.152  12.915  0.0694  0.0250  0.0783
18057W        W34191  16.243  16.371  13.004  0.3184 -0.0403 -0.0144
18058W        W34192   2.048  13.170  14.955  0.1722  0.1353 -0.4123
18059W        W34193  17.613  16.044   4.614  0.0060  0.1326  0.1504
18060W        W34194   8.740  12.263   1.596  0.3172  0.2660 -0.2276
18061W        W34195   3.750   1.165   2.873  0.0577  0.3224  0.0993
18062W        W34196  16.499   7.357  13.335 -0.0209  0.1166  0.2912
18063W        W34197  18.105   5.685  11.674  0.0234 -0.0188 -0.1770
18064W        W34198   4.457   0.718   4.523  0.3522 -0.1167 -0.0164
18065W        W34199  17.796  11.212   1.106  0.0033  0.1947  0.0406
18066W        W34200  10.649   7.250  14.111 -0.0197 -0.2745 -0.1297
18067W        W34201   9.798   7.489  11.654  0.2588  0.2279  0.2922
18068W        W34202  16.459  16.787  14.917  0.1009 -0.1563  0.0535
18069W        W34203  14.483  16.730  14.703  0.0471  0.1262 -0.0506
18070W        W34204  12.248   5.365  12.884  0.1726  0.0119  0.0176
18071W        W34205   6.385   3.478  14.484 -0.1602  0.3402 -0.3080
18072W        W34206   9.511  15.939  14.081 -0.1306  0.2022  0.0178
18073W        W34207   1.232  18.243   1.212 -0.0753 -0.0076 -0.2125
18074W        W34208  13.293   1.566   1.956  0.0625  0.0058  0.3127
18075W        W34209  16.735   7.418   0.627 -0.1057  0.1501  0.0378
18076W        W34210   8.091   8.425  12.673  0.0652 -0.1884 -0.1553
18077W        W34211  13.483  18.494  14.953 -0.1865  0.1512  0.0857
18078W        W34212   5.911  14.575  14.368 -0.2057 -0.0059 -0.2071
18079W        W34213  12.246   4.911   4.411  0.0574 -0.0116  0.1603
18080W        W34214   0.307   4.785   5.084  0.0446  0.0706  0.0610
18081W        W34215   2.129   7.234   0.424 -0.3390 -0.0956 -0.0817
18082W        W34216  10.253   9.361   5.215 -0.2375  0.1095  0.0674
18083W        W34217   7.402   7.520  14.119  0.0419 -0.1499 -0.0509
18084W        W34218   1.671  11.661   3.162  0.0629 -0.0825  0.0257
18085W        W34219  11.207  15.406   0.182 -0.4414 -0.1711 -0.0512
18086W        W34220  13.364   3.654   0.395 -0.1520 -0.0539 -0.0024
18087W        W34221   4.208  11.030   4.942  0.1397  0.0673 -0.3215
18088W        W34222  13.377   8.807  14.594 -0.3639 -0.1482  0.1587
18089W        W34223  14.349  14.741  14.961  0.3387  0.0050  0.1566
18090W        W34224   7.022  17.273  14.566  0.0584  0.0435  0.0301
18091W        W34225  15.330   0.394  11.281  0.2354  0.2459 -0.2271
18092W        W34226   7.178  18.208  12.737  0.2259 -0.1214  0.1068
18093W        W34227   4.101   1.142  15.397 -0.0209  0.2798  0.1735
18094W        W34228  10.280  10.971  13.241  0.4250  0.2861 -0.3779
18095W        W34229  12.641   9.355  13.540  0.1148  0.0139 -0.0584
18096W        W34230   1.455  10.723  15.166 -0.1610 -0.3193 -0.0343
18097W        W34231   6.861   0.328   2.878  0.0603  0.2237 -0.3465
18098W        W34232   2.015  17.158   1.529  0.2168  0.1932 -0.0293
18099W        W34233   1.830  14.954  13.018  0.0115 -0.0637 -0.3270
18100W        W34234  17.390  15.416  12.275  0.1914  0.2102  0.0613
18101W        W34235  16.351   3.879   5.692  0.1653 -0.1032 -0.1762
18102W        W34236   6.930   6.183   2.062 -0.0733  0.2597 -0.0869
18103W        W34237   2.232  15.069   1.526  0.0544  0.1694 -0.0093
18104W        W34238  10.922   4.227  15.525  0.1505 -0.0097 -0.0978
18105W        W34239   1.424   9.710  11.177 -0.0012 -0.4069 -0.3715
18106W        W34240  14.827   4.154   3.163  0.0783 -0.2048 -0.1979
18107W        W34241  12.934  11.872  11.684  0.0504  0.2209  0.3366
18108W        W34242   2.606   3.230  13.140 -0.1812 -0.1337  0.0659
18109W        W34243   3.216  11.303  14.993 -0.1950 -0.1674  0.0863
18110W        W34244  18.310   8.422  13.658  0.0294  0.1408  0.0088
18111W        W34245   2.714  13.590  11.661 -0.0990  0.0202  0.2763
18112W        W34246   0.579   6.513   1.761  0.0583 -0.0111  0.0183
18113W        W34247   9.670  10.761  11.517 -0.1996  0.1123 -0.1441
18114W        W34248   0.719   9.558  13.949  0.1457  0.4050  0.0152
18115W        W34249   8.058   9.627  13.272  0.0337  0.1006 -0.1120
18116W        W34250  13.723  15.714  13.411  0.0692 -0.3125 -0.0153
18117W        W34251  11.060   1.033   0.071 -0.0545 -0.1616 -0.2053
18118W        W34252   8.070   7.924  15.113 -0.1961 -0.0132 -0.3062
18119W        W34253  10.336  10.128  12.664  0.2470  0.0899  0.0393
18120W        W34254   4.148  11.680  12.209 -0.0504  0.0146 -0.2731
18121W        W34255  10.059   3.942   6.048  0.0793  0.2584 -0.2300
18122W        W34256  18.355   3.873  11.553 -0.0511  0.0708  0.1705
18123W        W34257   3.770   3.677   3.850 -0.4669  0.0418 -0.0007
18124W        W34258   0.051  14.259  10.735 -0.0520  0.0676 -0.1358
18125W        W34259  13.668  16.729   2.358  0.1813  0.0672  0.0478
18126W        W34260   8.429  14.137   3.589  0.3118 -0.0195  0.0143
18127W        W34261  14.054  17.485  15.352 -0.0285  0.1728  0.1414
18128W        W34262  12.121   0.418   4.683 -0.1817  0.4180  0.2893
18129W        W34263  13.113   7.898  15.331 -0.0312 -0.1472 -0.0695
18130W        W34264   2.746   5.948   3.615  0.1123 -0.0383 -0.0143
18131W        W34265   0.311  10.114   3.228 -0.0923  0.3091  0.2115
18132W        W34266   9.699   9.114   3.416  0.0572 -0.0543  0.2050
18133W        W34267   6.649  13.625   4.839  0.0440 -0.0514 -0.2322
18134W        W34268  17.167  11.722  12.804 -0.2894 -0.0474  0.1055
18135W        W34269   4.549   8.091  14.136  0.0460  0.0883  0.0027
18136W        W34270   7.217  11.271   4.538  0.3001 -0.0095 -0.0046
18137W        W34271   5.082   2.560  15.887  0.1897 -0.0198  0.0504
18138W        W34272   1.263  11.499   2.370 -0.0291 -0.1500  0.2602
18139W        W34273   4.448  18.451  13.805  0.1745  0.0569  0.0754
18140W        W34274  15.090   0.715   2.375 -0.1145  0.2715  0.2358
18141W        W34275   3.916  13.704   5.091  0.2764 -0.0029 -0.2350
18142W        W34276  18.391   1.867   3.642 -0.0658 -0.2550  0.2506
18143W        W34277  10.392  16.482   1.369 -0.2559  0.0630  0.1880
18144W        W34278   1.133   7.678   1.600  0.2978  0.2040  0.1576
18145W        W34279  11.891  13.052  14.413 -0.1226 -0.1156 -0.2502
18146W        W34280   1.727   7.073  11.219 -0.3741  0.6119  0.1176
18147W        W34281   6.833  10.727  12.476 -0.2801  0.1088 -0.4160
18148W        W34282   3.292   8.840   0.523 -0.2234  0.3675 -0.1793
18149W        W34283  15.889   9.668   2.864 -0.1021  0.1638 -0.0640
18150W        W34284   5.801   1.886   5.597  0.0656 -0.0593  0.1765
18151W        W34285   3.166  12.712  12.525 -0.2342  0.1525  0.2381
18152W        W34286   5.834  16.097   0.627  0.1936  0.3613  0.1480
18153W        W34287   7.796  14.250   4.845  0.3369  0.1458 -0.0317
18154W        W34288   3.184   7.748   1.909  0.0763 -0.2751 -0.4112
18155W        W34289   6.159  14.653  12.561  0.0755  0.3638  0.1076
18156W        W34290   0.502   0.500  12.625  0.5865 -0.4183 -0.0761
18157W        W34291  16.187   9.378   2.111 -0.1648 -0.0647 -0.1168
18158W        W34292  15.454   2.534  11.126  0.1623 -0.1087  0.0981
18159W        W34293   9.647   0.950   3.183 -0.0190  0.1169 -0.2931
18160W        W34294   5.518   7.435  12.510 -0.2079  0.0768 -0.0108
18161W        W34295  13.389  15.435   3.935 -0.1414  0.2364 -0.1479
18162W        W34296   3.147   5.286  13.855 -0.0535  0.1126 -0.2079
18163W        W34297   7.165  10.379   1.667 -0.0840  0.0971  0.1751
18164W        W34298   4.861  15.096   4.033 -0.2190  0.2544  0.4127
18165W        W34299   0.679  13.180  15.710 -0.1149 -0.4086  0.1429
18166W        W34300  10.862  18.423  13.620  0.0039 -0.0112  0.0068
18167W        W34301   1.745  18.084  12.705 -0.1954  0.0343  0.0899
18168W        W34302   4.445   5.790   5.953  0.0158 -0.1445  0.2910
18169W        W34303  14.272   5.747  13.380  0.1354  0.0977 -0.2952
18170W        W34304   4.854   2.208   2.381 -0.0898 -0.3060  0.2380
18171W        W34305  18.407   4.648   2.538 -0.0792 -0.0879 -0.1287
18172W        W34306   9.433   7.826  11.729 -0.1706 -0.0909 -0.0395
18173W        W34307   6.490  14.458   1.905 -0.2254  0.1371 -0.3710
18174W        W34308   1.752   9.544   4.398  0.1626 -0.2776  0.0272
18175W        W34309   9.110   4.290  14.459 -0.0823  0.1751  0.0753
18176W        W34310  12.303  13.954   6.494 -0.1620  0.0920 -0.1207
18177W        W34311   0.135   6.331   2.021 -0.0192 -0.1831 -0.1941
18178W        W34312  15.080   6.635  11.896 -0.2381 -0.0374 -0.0415
18179W        W34313  11.418  12.451   0.747  0.2217  0.0668  0.2302
18180W        W34314  17.662   4.569  13.538 -0.0657  0.0363  0.1336
18181W        W34315  12.060  17.365  14.968 -0.1527 -0.1616 -0.1116
18182W        W34316   2.081   1.156   2.025  0.1934 -0.1132 -0.0876
18183W        W34317  15.080   9.998   2.388  0.4355  0.2861  0.0724
18184W        W34318   1.610  16.593  14.444 -0.0279  0.4100  0.1046
18185W        W34319  13.611  10.108   5.270  0.1869 -0.0560 -0.0114
18186W        W34320  11.010  14.850   2.614 -0.2483  0.1214  0.1567
18187W        W34321   7.372   6.001  12.988  0.2467  0.0944  0.1275
18188W        W34322  10.321   4.526  12.510 -0.3884  0.2346  0.2554
18189W        W34323   9.572   7.285   4.719 -0.0298  0.1590 -0.0571
18190W        W34324   5.513   9.692   4.738 -0.1491 -0.0919  0.3371
18191W        W34325   1.326  14.812  11.924  0.1879 -0.2020  0.0169
18192W        W34326   3.819  16.079   4.857  0.0642 -0.0809 -0.1401
18193W        W34327   2.572  14.800  12.509  0.3042 -0.1312 -0.1722
18194W        W34328   8.714   7.446  12.491  0.0168  0.0795 -0.0467
18195W        W34329   9.763   4.585   0.464  0.2785  0.0748  0.1460
18196W        W34330  15.998   9.349  14.660  0.1175  0.0204 -0.1015
18197W        W34331   6.200  11.227   0.715 -0.2268  0.1425 -0.0143
18198W        W34332  11.143   8.347  14.809 -0.1915  0.2516  0.1911
18199W        W34333   9.444   2.264   1.305  0.1594  0.1510  0.1123
18200W        W34334   0.116   4.436   4.659  0.0139 -0.0872  0.0480
18201W        W34335  12.246   0.319  16.002 -0.0022  0.0418 -0.1225
18202W        W34336  11.051   4.591  16.013 -0.4419 -0.2702  0.0032
18203W        W34337   2.384   7.822   4.983 -0.0922 -0.1376 -0.2102
18204W        W34338   5.898   4.649  14.559 -0.1527 -0.1982 -0.0057
18205W        W34339  10.153   9.092  14.074 -0.1473 -0.0129  0.0855
18206W        W34340  13.448  15.681   3.285  0.2386 -0.4887 -0.0342
18207W        W34341  13.536   8.850   4.357  0.0496  0.0314  0.0648
18208W        W34342  12.946   3.783  13.385 -0.3211  0.1519 -0.1788
18209W        W34343   2.045   8.688   5.416 -0.0559  0.1219 -0.2608
18210W        W34344   2.410  14.835  14.528  0.0409  0.1789 -0.1479
18211W        W34345   7.555   3.555   2.650  0.1043 -0.2848 -0.1695
18212W        W34346   6.118  18.423  11.483  0.1789  0.2141  0.0462
18213W        W34347  10.936   4.653   3.969  0.0899  0.1112  0.0592
18214W        W34348   2.051   3.169  12.731 -0.1310 -0.1124 -0.0674
18215W        W34349   7.405   0.072   1.049 -0.0475  0.0206  0.2269
18216W        W34350   3.139  10.896  12.231  0.1265  0.1109 -0.1902
18217W        W34351   5.121   4.324  12.310 -0.0613 -0.0024  0.2224
18218W        W34352  12.846   1.543  15.447 -0.0220  0.3025 -0.0171
18219W        W34353  13.556   1.033   0.617  0.0905 -0.1053  0.1718
18220W        W34354  12.882   7.603   5.214  0.1208 -0.0736 -0.1508
18221W        W34355   4.194   7.735   0.626  0.2922  0.1663 -0.4526
18222W        W34356  13.651  18.089   2.072  0.2688 -0.0164 -0.1957
18223W        W34357  16.922   4.615  15.787 -0.1055  0.0586  0.0532
18224W        W34358   7.665  10.186   0.289  0.1862  0.0952  0.1343
18225W        W34359   9.742  16.319   6.088  0.0919  0.0801  0.0042
18226W        W34360   1.223  16.303  10.266 -0.1231  0.2304  0.0657
18227W        W34361   2.965   0.058   4.649  0.0139 -0.1394 -0.0451
18228W        W34362   1.521  14.773  13.388 -0.1180  0.3842 -0.3962
18229W        W34363   9.949  16.699  12.775  0.2674 -0.3345 -0.1581
18230W        W34364  16.936  10.675   5.534 -0.0367  0.0582 -0.0642
18231W        W34365   3.957   9.426   3.450  0.0340  0.1735  0.0887
18232W        W34366   3.167   4.613   0.014  0.0022 -0.0716 -0.2728
18233W        W34367   6.057   9.296  11.746 -0.0114 -0.0252 -0.1327
18234W        W34368   4.574   5.539   4.327 -0.0005  0.1829 -0.0165
18235W        W34369  16.525   0.822  11.855 -0.0341 -0.0364 -0.2144
18236W        W34370   8.930   1.893   0.863  0.0513  0.3748 -0.5637
18237W        W34371   4.731   2.539   1.145 -0.2585 -0.0827 -0.1907
18238W        W34372  13.373   7.600  15.876 -0.0270  0.1065 -0.5354
18239W        W34373  18.205   3.290   5.425 -0.4379  0.1231  0.2116
18240W        W34374  10.821  11.251   0.096  0.1372  0.1348 -0.2334
18241W        W34375   6.471   3.273  12.937  0.1101  0.2709  0.0190
18242W        W34376  15.572   5.303  10.710  0.2089  0.0525 -0.2403
18243W        W34377   5.973   8.523  15.605 -0.1839  0.1765  0.0232
18244W        W34378   9.708   6.962   3.431 -0.3919 -0.1109 -0.1758
18245W        W34379  18.209   1.051   1.941 -0.1367 -0.0176  0.0127
18246W        W34380  12.683  11.369  12.534  0.1667  0.1295  0.0039
18247W        W34381   0.816   9.011  11.708 -0.2259 -0.2051  0.1803
18248W        W34382  18.334  11.704   5.437  0.2773 -0.0283 -0.0473
18249W        W34383  17.822   6.152   3.602 -0.3558 -0.2377  0.0192
18250W        W34384   4.335   7.029   1.781  0.0397 -0.0537  0.0485
18251W        W34385  12.361  18.427   4.840 -0.2391  0.0442 -0.0067
18252W        W34386   4.406  14.687   3.009  0.1027  0.1032 -0.3012
18253W        W34387   8.659   4.445   1.916 -0.2843  0.0598  0.2266
18254W        W34388   1.605  10.026   4.218  0.4505 -0.1824  0.0534
18255W        W34389  11.152   9.443  11.915  0.1514  0.2392 -0.3392
18256W        W34390   8.633   8.360  12.430 -0.0786  0.0530  0.1165
18257W        W34391   7.548  14.641   3.106  0.0045 -0.1511 -0.1337
18258W        W34392  12.539   4.500  12.895 -0.0643  0.1190 -0.2154
18259W        W34393  16.563   7.347   4.670 -0.1061 -0.0940  0.0948
18260W        W34394   7.761   8.473   1.923  0.3298 -0.1323 -0.2773
18261W        W34395   6.133  11.522   4.881 -0.0231 -0.2834 -0.0238
18262W        W34396  12.264  13.624   2.780  0.0408  0.0773 -0.1208
18263W        W34397  10.256   4.618   2.582  0.1367  0.1706  0.1868
18264W        W34398   5.024  11.439  10.815 -0.1241  0.2007 -0.1853
18265W        W34399  10.207  16.389  13.099  0.1786 -0.0192  0.0301
18266W        W34400   5.860  17.381   2.202  0.1855  0.1769 -0.1004
18267W        W34401   8.360  13.493   2.896  0.1460 -0.1654  0.0343
18268W        W34402  16.594  10.287  11.463 -0.1016  0.0500 -0.2067
18269W        W34403   9.777   6.516  14.850  0.0636 -0.0024  0.1276
18270W        W34404   3.149  13.202   3.696  0.0251 -0.0178 -0.0479
18271W        W34405   8.263   2.226   0.078 -0.0800 -0.0957 -0.1302
18272W        W34406  15.784   0.125   1.313  0.1334 -0.0480 -0.1153
18273W        W34407   2.462   1.073  11.646 -0.1079 -0.0248 -0.1226
18274W        W34408  10.994  15.481   6.090 -0.4502  0.0593 -0.2277
18275W        W34409   3.581   2.786  13.697 -0.1804  0.0313  0.2163
18276W        W34410  14.351  17.951   3.993 -0.0379 -0.0699  0.0526
18277W        W34411  14.495  11.156  13.439 -0.2564 -0.3535 -0.3188
18278W        W34412  17.088   0.697   4.555  0.1110  0.2156 -0.1022
18279W        W34413  12.310  11.343  14.750 -0.0109  0.0249 -0.3049
18280W        W34414   6.269   7.068   2.980  0.3311 -0.3532  0.1771
18281W        W34415   1.574  13.824   4.028 -0.0297 -0.2795 -0.0023
18282W        W34416  17.089   4.304   3.651 -0.0893  0.4563 -0.1932
18283W        W34417   2.954   3.054   0.367 -0.0880 -0.0974  0.4324
18284W        W34418   6.084   7.023   3.643 -0.3133 -0.0859 -0.2068
18285W        W34419  12.559   1.156   2.188  0.1456  0.0384 -0.0764
18286W        W34420  17.369   3.331   4.583 -0.2221 -0.1966  0.1419
18287W        W34421   8.835  16.117  14.235  0.2671  0.0830 -0.2575
18288W        W34422   7.184  16.058   4.881 -0.1740 -0.0061  0.0338
18289W        W34423   7.508  12.160  11.594  0.3580  0.1495 -0.1067
18290W        W34424  15.736   8.917   1.461  0.1023  0.1331  0.1098
18291W        W34425   6.077   8.005   4.617  0.1516 -0.0582  0.0797
18292W        W34426  10.790  13.179  14.942 -0.0449  0.1754 -0.0369
18293W        W34427  10.427   8.750  14.452 -0.1535 -0.0013  0.0751
18294W        W34428  14.490  17.086   0.318  0.0214  0.5454 -0.2432
18295W        W34429  16.012  14.541   5.385  0.0836 -0.2225 -0.0064
18296W        W34430  15.819   2.131  12.500 -0.2194  0.0768 -0.1302
18297W        W34431   5.935   7.062   1.207 -0.1375 -0.1690  0.2182
18298W        W34432   1.986  10.810  11.263  0.0149  0.0670  0.1036
18299W        W34433   6.942  11.371   0.372  0.1254  0.0883 -0.0914
18300W        W34434   6.768   4.439   0.384  0.0433 -0.0946 -0.0211
18301W        W34435  12.576  14.190  14.632 -0.0438 -0.1317 -0.0459
18302W        W34436   5.309   9.877   0.412 -0.0659  0.0839 -0.1729
18303W        W34437  12.693  14.128   0.367 -0.0567 -0.2142  0.0266
18304W        W34438   8.691   9.620   5.694 -0.0687 -0.1562 -0.0466
18305W        W34439   5.461  11.111   0.528 -0.1278  0.2084 -0.0242
18306W        W34440  10.762   9.496  13.450  0.3659  0.4438 -0.0589
18307W        W34441  13.706   9.414  12.836 -0.0769  0.0911 -0.1895
18308W        W34442  16.969   4.853   4.452  0.0754 -0.1482 -0.2748
18309W        W34443  14.001  10.735  15.026 -0.2410 -0.0198  0.0567
18310W        W34444   7.226   6.724  14.691 -0.0196  0.1026 -0.0737
18311W        W34445  13.508   4.760   2.023 -0.1247  0.1113 -0.1671
18312W        W34446  13.395  12.855   0.468 -0.0417 -0.0547 -0.0122
18313W        W34447  11.738   3.442  11.030 -0.0364 -0.4295 -0.1512
18314W        W34448  14.090   1.955   4.709 -0.2252 -0.2780  0.0608
18315W        W34449   5.615  17.061   2.800  0.0065 -0.0010  0.2199
18316W        W34450   8.687  18.351   2.879 -0.2166  0.2046  0.3806
18317W        W34451  11.803   3.819   0.753 -0.3340 -0.2513 -0.1674
18318W        W34452  18.270  13.312  14.630 -0.0763  0.1495  0.2229
18319W        W34453  14.925   3.408   4.026 -0.0926 -0.1797 -0.0673
18320W        W34454   8.446  14.955  14.898  0.2541 -0.0836 -0.1222
18321W        W34455   2.519  16.956  11.473  0.2062  0.2943  0.0350
18322W        W34456  17.909   4.268  12.230 -0.1863 -0.2478  0.0427
18323W        W34457  14.946  12.645   3.900 -0.0636 -0.1095  0.1194
18324W        W34458  16.418  17.358   2.299 -0.2039  0.0547 -0.1264
18325W        W34459  10.080   0.548   2.119 -0.0632  0.0546 -0.1659
18326W        W34460  18.351  11.449   1.690 -0.2375 -0.1509  0.0407
18327W        W34461  17.896   5.936  12.755 -0.1770 -0.1710  0.0465
18328W        W34462   0.289  16.501  13.722 -0.1488 -0.1714  0.1981
18329W        W34463  17.503   7.437  11.501 -0.0238  0.1283 -0.0656
18330W        W34464   8.821  15.852   3.075 -0.0230 -0.3871 -0.1228
18331W        W34465  12.566   4.481   4.344  0.0735  0.4296 -0.2509
18332W        W34466   8.660   1.781   2.687 -0.0289 -0.4267  0.0475
18333W        W34467   2.775   9.679  10.486 -0.0797 -0.2245 -0.7050
18334W        W34468   5.028  12.657  11.940 -0.0351 -0.2071 -0.3751
18335W        W34469   5.629  15.797   5.281 -0.1986  0.2471 -0.0565
18336W        W34470   6.064   4.345   4.243  0.1038  0.1041 -0.1010
18337W        W34471  12.100  16.731   5.398  0.0355  0.2351  0.0879
18338W        W34472   9.522  11.656  12.372 -0.0617  0.0754 -0.0523
18339W        W34473  12.131   3.305   5.829  0.1891  0.0219  0.0182
18340W        W34474  10.119   6.038   1.238  0.1276 -0.1268  0.0938
18341W        W34475  16.185  12.146   0.941  0.2122 -0.1154 -0.1767
18342W        W34476  14.667   8.927  11.859  0.0607 -0.1561  0.0923
18343W        W34477  14.770   2.078   0.291 -0.0176  0.1632  0.1336
18344W        W34478   9.783   6.626  15.747 -0.1739 -0.0914  0.1210
18345W        W34479   2.608   4.648  14.882 -0.0782  0.1002 -0.0824
18346W        W34480  13.869  14.861  14.926 -0.0774  0.1042  0.0666
18347W        W34481   5.483  16.962   2.322 -0.2805 -0.2340  0.0858
18348W        W34482   1.653   7.124  11.787  0.2105 -0.3050 -0.1117
18349W        W34483  14.518   2.386  11.160  0.1120  0.0959  0.1666
18350W        W34484  13.791  12.392   3.131  0.1264 -0.0691 -0.3735
18351W        W34485   9.091   3.148  15.246 -0.0399  0.0613  0.1635
18352W        W34486  17.407  11.617  12.264 -0.0507  0.2245 -0.1957
18353W        W34487   0.388   1.706  12.598 -0.0862 -0.5626 -0.1200
18354W        W34488  15.968   2.606   4.918 -0.1054 -0.4034 -0.0958
18355W        W34489   1.580   6.030   3.236 -0.1647  0.1817  0.1421
18356W        W34490   0.946  11.965   4.694  0.4526 -0.3181 -0.2566
18357W        W34491   7.950   5.192   4.064 -0.1772  0.1517  0.1351
18358W        W34492   8.787  11.402  13.068 -0.0774  0.2029  0.2153
18359W        W34493   7.673   2.635  15.843 -0.1429 -0.3261 -0.0067
18360W        W34494   3.090  16.088   1.518 -0.1259  0.0793 -0.1170
18361W        W34495  18.066  18.043  11.375  0.4952  0.0690 -0.0919
18362W        W34496   4.343  17.159   1.241 -0.2979 -0.1595  0.3556
18363W        W34497  17.599   0.393   9.769  0.5228  0.0504 -0.0692
18364W        W34498  17.011   6.131   1.980  0.1618  0.3335  0.0259
18365W        W34499   7.620  12.987   1.093  0.0819 -0.2106  0.0443
18366W        W34500  16.352  14.395  15.842  0.0583 -0.1069 -0.0639
18367W        W34501   0.777  17.773  15.015  0.0084 -0.2154  0.2701
18368W        W34502   3.164   3.692   1.571  0.0461 -0.0292 -0.3778
18369W        W34503   8.034  11.644  13.660  0.1508  0.3981  0.1811
18370W        W34504   1.314  13.617  12.146  0.1922  0.0724 -0.0862
18371W        W34505  15.123   4.960   4.928  0.0352 -0.0835  0.0442
18372W        W34506   2.344   2.231   1.702  0.1142  0.1252  0.1038
18373W        W34507   8.698   2.819  13.152  0.0141 -0.2962 -0.1198
18374W        W34508   4.503   5.898  10.894 -0.0698 -0.0615  0.0676
18375W        W34509   8.581  13.976   6.039  0.3574  0.2354 -0.1379
18376W        W34510  11.684  10.876  12.995 -0.1347 -0.0945  0.1895
18377W        W34511   1.376  15.816  10.559  0.0241  0.2879  0.2453
18378W        W34512  14.969   8.976  14.573 -0.1617  0.1003 -0.0887
18379W        W34513  17.104   3.054   2.785 -0.0810 -0.2289 -0.1214
18380W        W34514   1.376  11.964   4.443  0.2038  0.0709 -0.0646
18381W        W34515  10.448  12.941   4.034  0.2892  0.0873  0.1973
18382W        W34516  12.818  13.194  13.776 -0.1873  0.1147 -0.1444
18383W        W34517   1.841   5.915   0.735  0.0982 -0.1822  0.0076
18384W        W34518  15.746   3.197   0.655  0.3913  0.1213  0.0547
18385W        W34519   2.997  10.622  11.288 -0.0131  0.2825 -0.1001
18386W        W34520   4.033   2.591  12.216  0.1512  0.0268 -0.2692
18387W        W34521  16.945   7.114  13.173 -0.3034 -0.0106 -0.2243
18388W        W34522   7.427   5.042  13.878 -0.1704  0.2992  0.1155
18389W        W34523   2.744  11.900   4.474  0.1827 -0.1186  0.2741
18390W        W34524   2.375   5.679   3.299  0.0124 -0.0068  0.0687
18391W        W34525  11.911   3.579   3.210 -0.2006 -0.0018 -0.0457
18392W        W34526  10.350  14.733   0.972  0.0113 -0.0011 -0.1077
18393W        W34527   3.365   5.952   1.139  0.0662  0.0544 -0.3147
18394W        W34528   2.656  17.379   5.773  0.1385  0.0447  0.0141
18395W        W34529  15.784   1.365  11.121 -0.0244  0.1158  0.3259
18396W        W34530  13.979  16.822  14.594  0.0662 -0.0628 -0.3246
18397W        W34531   4.495   5.875  11.812 -0.0015  0.0486  0.1951
18398W        W34532  12.749  11.253  15.604  0.2052  0.1841 -0.0721
18399W        W34533  12.666   7.918   2.785 -0.1224 -0.0716  0.0731
18400W        W34534  13.056  12.154   3.201  0.0853 -0.0379  0.0260
18401W        W34535  17.962   8.218   4.687 -0.0264  0.2163 -0.1327
18402W        W34536  12.350  12.715   1.242  0.3228 -0.0309 -0.2644
18403W        W34537  15.287   6.306  11.566 -0.0567  0.2130 -0.4599
18404W        W34538   3.618   4.710  15.745  0.2455  0.0626 -0.0237
18405W        W34539  12.957   7.641   3.951  0.3599  0.0318 -0.1134
18406W        W34540  13.212  16.815  13.847  0.4106  0.0678  0.1244
18407W        W34541  12.352  15.632   0.431 -0.0083  0.1311  0.2014
18408W        W34542   3.394  18.298  11.651  0.5151 -0.0127 -0.2120
18409W        W34543   1.288   5.541  12.821  0.0883  0.1749  0.0179
18410W        W34544   5.285  14.999  12.500  0.2957 -0.4181  0.2658
18411W        W34545  13.032  16.269  11.018  0.3100 -0.2583 -0.0590
18412W        W34546   5.884  11.255   2.577 -0.0256  0.0082 -0.1443
18413W        W34547   3.600  17.769   5.515  0.2016  0.0374  0.2166
18414W        W34548   5.310   1.193   5.337  0.2298 -0.0706 -0.0956
18415W        W34549   8.860  16.087  14.960 -0.1406 -0.0227  0.1261
18416W        W34550   6.185  13.108  14.735 -0.2693 -0.0085 -0.1118
18417W        W34551  11.171   9.486   5.351 -0.1011 -0.2565 -0.0307
18418W        W34552   4.024  16.181  12.966  0.0106 -0.3935  0.1498
18419W        W34553   1.961  12.987  11.911  0.0084  0.2245  0.0210
18420W        W34554  17.831  10.409  12.672 -0.2223  0.1869 -0.0388
18421W        W34555  16.883   4.158   0.412 -0.1487  0.1567 -0.3007
18422W        W34556  16.345   5.941   4.186 -0.1627  0.0633 -0.0725
18423W        W34557  17.374  11.793   3.389 -0.2101 -0.1867 -0.0332
18424W        W34558   4.487  16.398  15.353  0.1372 -0.3755  0.1749
18425W        W34559  17.896   8.362  14.872  0.1210 -0.1056  0.1123
18426W        W34560   3.173   2.106  10.232 -0.5004  0.2324 -0.1951
18427W        W34561   4.592   6.020   4.567 -0.2079  0.1496 -0.1364
18428W        W34562   9.016   4.575  15.858  0.2872  0.2593 -0.0188
18429W        W34563   0.846   2.499  11.735 -0.0309 -0.1727  0.0592
18430W        W34564   1.918   2.969   3.846  0.0794 -0.2844 -0.2159
18431W        W34565   3.935   3.298  10.957  0.0726 -0.0321  0.5015
18432W        W34566  13.728   7.110   4.354  0.0645 -0.3051 -0.0011
18433W        W34567  11.823  10.239  11.671 -0.3574  0.2657  0.1452
18434W        W34568  17.036  16.306  14.039 -0.0987 -0.0286 -0.1742
18435W        W34569  11.392   7.349   2.811 -0.0914 -0.2459  0.2762
18436W        W34570   8.925   5.575   1.947  0.2462  0.0880 -0.1284
18437W        W34571  14.411   9.590   2.724  0.0199 -0.1673 -0.0224
18438W        W34572   6.201   2.619   3.748 -0.1498  0.0278 -0.1199
18439W        W34573   5.298   1.489  13.455 -0.0983 -0.1038 -0.0259
18440W        W34574  11.222  14.815   0.715 -0.0488 -0.1427  0.0406
18441W        W34575  14.846   5.301  11.271 -0.2580  0.1455  0.0680
18442W        W34576   5.208  15.221  10.499 -0.2709 -0.1915 -0.2586
18443W        W34577   6.339  13.303   1.531  0.1046 -0.1639  0.2110
18444W        W34578  10.714   5.163  14.051  0.3799 -0.3551  0.3131
18445W        W34579  12.906  18.310  13.978  0.1128 -0.0049  0.0026
18446W        W34580  10.961   0.542   0.066  0.0435 -0.1529  0.0190
18447W        W34581   6.950  18.274   5.209 -0.1568 -0.0046 -0.2911
18448W        W34582  15.754  14.824  12.032  0.1974  0.3504 -0.0211
18449W        W34583  10.697   0.718  15.379 -0.0716  0.0123  0.1569
18450W        W34584  11.199  13.885  13.558  0.3522 -0.0252 -0.1087
18451W        W34585   1.208   1.583   1.096 -0.0746 -0.2175 -0.1860
18452W        W34586   3.707  12.709  11.536 -0.0964  0.4791  0.1337
18453W        W34587   0.941   4.429   1.330  0.0450  0.1398 -0.1315
18454W        W34588  10.806  17.786  13.029 -0.1246 -0.5541 -0.2902
18455W        W34589   6.655   2.835   4.992 -0.0079 -0.1034 -0.0823
18456W        W34590   4.157  13.667   4.400 -0.2333 -0.0560  0.1367
18457W        W34591  11.877   8.848  12.276 -0.1343 -0.1277  0.0568
18458W        W34592   3.752  17.284   4.762 -0.1176 -0.0489  0.0245
18459W        W34593  18.388  18.142   0.811 -0.1521 -0.1915  0.0458
18460W        W34594  18.160   4.479  11.879  0.0556 -0.0549  0.1401
18461W        W34595   6.818  16.284   3.821  0.3216 -0.0551 -0.0315
18462W        W34596   1.777   9.810  12.141  0.2393 -0.1415  0.1261
18463W        W34597  10.938   7.893   1.315  0.0666  0.4236  0.4184
18464W        W34598   4.448  17.127   1.711  0.0193  0.1851  0.0401
18465W        W34599   9.521   0.563   2.882  0.1556 -0.1980  0.0904
18466W        W34600  12.339   3.800   5.090  0.1602 -0.2783 -0.0290
18467W        W34601   1.892   3.931  15.124 -0.2164 -0.0452 -0.1502
18468W        W34602  16.956  11.484  13.608  0.0497 -0.4047 -0.3002
18469W        W34603  16.706  12.972  13.825  0.0115  0.1663  0.3282
18470W        W34604  13.883   6.598   2.914 -0.0790 -0.0899  0.1227
18471W        W34605  14.177   3.562   2.862  0.1391  0.2880  0.4000
18472W        W34606  11.465   4.861   3.332  0.1801  0.0493 -0.0594
18473W        W34607  14.990  15.346  14.544 -0.5235 -0.1724  0.0612
18474W        W34608   0.938  13.657  10.314 -0.1681 -0.0232 -0.1377
18475W        W34609   4.558   9.803  10.686  0.0550  0.0426 -0.0740
18476W        W34610  11.168   4.059  13.126 -0.2397 -0.0397 -0.0046
18477W        W34611   8.411   7.785   3.106  0.0065  0.0908  0.0505
18478W        W34612   6.833   4.129  13.854  0.0618 -0.1975 -0.2772
18479W        W34613  18.473   7.617  14.728  0.1294 -0.0943  0.2765
18480W        W34614   9.179   1.020  14.350  0.0419  0.0483  0.2368
18481W        W34615  15.065   3.698   1.669  0.1284  0.2286  0.2731
18482W        W34616  12.689  11.187   4.273  0.0375  0.0875 -0.1486
18483W        W34617   1.001  16.266   1.939 -0.0542 -0.1661  0.2251
18484W        W34618   4.451  10.728  13.551 -0.0378 -0.0564 -0.1262
18485W        W34619  12.555  16.923  12.023  0.2487  0.2582 -0.0428
18486W        W34620  12.585  17.798  12.092  0.0567  0.2320  0.2620
18487W        W34621   2.865   3.414  14.169 -0.2380  0.2674 -0.0824
18488W        W34622  14.198  17.088  15.120 -0.0731 -0.0124 -0.2072
18489W        W34623  17.649   9.945   4.917  0.1058  0.0058 -0.0649
18490W        W34624   7.245   2.222   3.873  0.0992  0.0730 -0.1121
18491W        W34625  10.688   5.214   5.178  0.0261 -0.0824 -0.0371
18492W        W34626   2.032   2.365  13.273  0.1888  0.0176 -0.0241
18493W        W34627   6.736  10.887   3.873 -0.0466  0.2141 -0.0169
18494W        W34628  16.452  13.189   2.742  0.1123 -0.1928  0.2230
18495W        W34629   3.743   9.298   4.541  0.4381 -0.1940 -0.0701
18496W        W34630   6.142   1.040  10.528  0.1844  0.2002 -0.1893
18497W        W34631  17.939  15.599  14.993  0.2360  0.0509  0.2661
18498W        W34632  16.094   4.695   3.755 -0.3746  0.1002  0.0271
18499W        W34633   9.008   6.903  12.819  0.0581 -0.1021 -0.1229
18500W        W34634   3.483   0.523   3.893 -0.2056  0.1627 -0.1211
18501W        W34635   8.749  14.341  12.869 -0.6230  0.1333 -0.1827
18502W        W34636  18.127   3.166  11.086 -0.1544 -0.3913 -0.2587
18503W        W34637   4.518  11.482  14.992  0.2486  0.1472  0.3506
18504W        W34638  17.242  12.918  12.836 -0.0970 -0.1948 -0.2982
18505W        W34639   0.827  12.465   4.769  0.0965 -0.0548  0.1067
18506W        W34640   0.185   1.250  12.370  0.0934 -0.0991  0.3969
18507W        W34641  16.089  14.320   0.725  0.2861  0.2383 -0.1828
18508W        W34642  15.613  12.781   5.121 -0.0496  0.1541 -0.2701
18509W        W34643   8.008   3.056   4.723  0.0669  0.0197 -0.4930
18510W        W34644  17.882   8.198  11.088  0.0963  0.1649 -0.0659
18511W        W34645  13.823   6.189   3.389 -0.0259  0.1405 -0.1834
18512W        W34646   1.992   1.290  15.657  0.0222 -0.0640 -0.0654
18513W        W34647   7.558  11.776  10.732 -0.2289  0.1773  0.1234
18514W        W34648   3.227   0.953  15.604 -0.3598 -0.0455 -0.1465
18515W        W34649   2.288  12.159  11.401 -0.1313 -0.1521 -0.0849
18516W        W34650  13.987   0.758   1.376 -0.0462 -0.0105  0.2065
18517W        W34651  10.805   1.164   3.623  0.2960  0.1116 -0.2262
18518W        W34652  17.070  14.310   2.213  0.2008  0.1148 -0.0057
18519W        W34653  10.186  12.353   2.558  0.0382 -0.1268 -0.1030
18520W        W34654  12.747  11.670  14.877  0.1540  0.0089 -0.1975
18521W        W34655   1.133  15.648  11.866  0.0294 -0.1136 -0.0054
18522W        W34656   4.320  14.300  14.923 -0.0550  0.2386  0.2537
18523W        W34657  14.245  10.115   1.133 -0.1848  0.2471  0.0512
18524W        W34658   9.382   5.984  12.824 -0.0314  0.2086 -0.2257
18525W        W34659   0.613   7.018  10.372  0.0322 -0.0839 -0.1448
18526W        W34660   5.725  11.070   3.458  0.1370 -0.0325 -0.2891
18527W        W34661   1.204   4.966  13.658 -0.1266  0.1643  0.0502
18528W        W34662  10.085  16.869   4.517 -0.2044  0.1151 -0.2054
18529W        W34663   9.665   4.020   4.690  0.1232 -0.1331 -0.1284
18530W        W34664   6.039  16.442   3.744 -0.1310 -0.1205  0.1716
18531W        W34665   6.065  18.004  13.381  0.0438  0.0340  0.0918
18532W        W34666  11.170  14.325   2.727 -0.1775  0.1374  0.1318
18533W        W34667   1.550  13.236   4.688 -0.1338 -0.1700 -0.0443
18534W        W34668  14.095   4.068   1.820  0.3234 -0.2629 -0.0632
18535W        W34669   2.623   1.943   6.258 -0.1340  0.0317 -0.1463
18536W        W34670   9.944  16.464  15.787  0.1915 -0.0760 -0.1209
18537W        W34671  14.105   2.361  13.346 -0.1189  0.1631 -0.0896
18538W        W34672   3.605  11.598   4.395 -0.0852 -0.1410  0.0407
18539W        W34673  11.925  11.315  12.055  0.0052 -0.2685 -0.0517
18540W        W34674   2.927  13.990  14.121  0.0880 -0.1325  0.0202
18541W        W34675   8.056  16.746   0.377 -0.1651 -0.0934  0.0945
18542W        W34676  17.461   0.667  12.102  0.1290 -0.1333  0.1395
18543W        W34677   9.946   8.896   5.056 -0.0068  0.3178 -0.0597
18544W        W34678   1.637   9.374  14.272  0.0714  0.2727  0.0145
18545W        W34679  13.691  16.504  12.477 -0.2668 -0.3218 -0.2678
18546W        W34680   1.910   7.173   3.985 -0.0723 -0.2018  0.0202
18547W        W34681  18.231   8.841  15.630  0.0583  0.1561 -0.2962
18548W        W34682   4.339   3.378   1.339  0.0981  0.1452 -0.2481
18549W        W34683  12.840  10.176   1.356 -0.0074  0.4027 -0.1296
18550W        W34684   5.991   7.866   2.259 -0.0176  0.0187  0.0284
18551W        W34685   0.663  17.217   4.148 -0.1954  0.0746  0.1344
18552W        W34686   0.517  12.246  14.918 -0.0094 -0.1069 -0.1180
18553W        W34687  16.788  12.158   5.402  0.2401 -0.0590 -0.1570
18554W        W34688  11.890  13.576  12.988  0.2079  0.0292  0.1877
18555W        W34689  16.730  13.228   4.002 -0.2826 -0.1701  0.0995
18556W        W34690  10.267  12.595  11.866  0.0121 -0.0494  0.1672
18557W        W34691   2.052  14.278  15.633 -0.0947  0.3571  0.1628
18558W        W34692  12.234   9.730   5.134  0.0036  0.3145 -0.1028
18559W        W34693  14.621   6.511   0.895  0.0215  0.3455 -0.0393
18560W        W34694  12.125  15.597   0.922 -0.3286  0.1379 -0.2455
18561W        W34695  15.559   0.071   6.024 -0.2174 -0.3373 -0.1468
18562W        W34696   4.333  18.484  14.725 -0.0061  0.0640 -0.1825
18563W        W34697   7.850  10.350  15.366  0.4057  0.0573 -0.0089
18564W        W34698  16.308   5.741  11.852 -0.0395 -0.0062 -0.2788
18565W        W34699  12.665   5.405   0.587 -0.2819 -0.1203  0.3057
18566W        W34700   2.003   1.877   2.656 -0.2776 -0.1028 -0.2201
18567W        W34701   3.786   2.600   5.515  0.2199  0.0906  0.2776
18568W        W34702  16.164   6.707   5.352  0.1345  0.1688  0.1973
18569W        W34703  11.136  12.953   3.316 -0.2288 -0.3209 -0.0722
18570W        W34704  16.419  10.116  15.052 -0.0959 -0.2091  0.1818
18571W        W34705  16.791   8.536  16.032  0.0145  0.0564  0.1335
18572W        W34706  18.176   6.559  15.010  0.0394 -0.1726  0.0371
18573W        W34707   5.913  14.028   1.369 -0.1689 -0.1162 -0.0099
18574W        W34708   4.989   3.045  15.216  0.4193 -0.0518 -0.0947
18575W        W34709  13.732  16.960  13.743  0.4346 -0.0359  0.3195
18576W        W34710   2.408   3.521  11.548 -0.0622  0.0599  0.1323
18577W        W34711   3.384   4.353   3.674 -0.2748  0.0088 -0.0735
18578W        W34712   0.723   5.278  13.670 -0.2975  0.1338  0.1793
18579W        W34713   0.735  12.537  12.932  0.1173  0.0299 -0.1706
18580W        W34714  10.216  11.705  11.672 -0.0573  0.0443  0.1316
18581W        W34715  16.616  11.261  14.082  0.1021 -0.1598 -0.0765
18582W        W34716  10.771   6.855   1.417 -0.0997  0.0028 -0.0792
18583W        W34717  12.758   4.908   4.058  0.0721 -0.1146  0.0228
18584W        W34718  14.943   2.895  12.312  0.1509  0.0733 -0.1355
18585W        W34719  11.897  13.356  11.698  0.2247 -0.0449  0.2669
18586W        W34720   7.085  16.750   3.902 -0.0299  0.1752  0.0743
18587W        W34721  10.639  17.919   4.400  0.0606  0.1621  0.1765
18588W        W34722   8.156  11.973  13.283 -0.2535  0.2445 -0.1477
18589W        W34723   9.067   2.766  14.871 -0.1433  0.1350 -0.0159
18590W        W34724  13.499  15.656   5.285  0.1667  0.0335 -0.0552
18591W        W34725   8.481  15.653  14.198  0.4077  0.0145 -0.0916
18592W        W34726  17.600   3.109   2.654 -0.2598  0.3893 -0.3960
18593W        W34727  14.784   5.656   0.285  0.1712 -0.1170 -0.2282
18594W        W34728  17.624   3.901  11.024 -0.0661  0.0394 -0.0120
18595W        W34729  10.812   5.978  15.056 -0.3855  0.2964  0.0866
18596W        W34730   8.956  17.631  13.388  0.1562  0.1488 -0.1012
18597W        W34731  13.654   3.117   6.438  0.1417 -0.2376  0.1682
18598W        W34732   3.962   8.256   0.774  0.4711 -0.1357  0.0961
18599W        W34733   1.554  14.350  11.662  0.1043  0.0825  0.2525
18600W        W34734  16.109   7.185   3.217  0.0227 -0.0144 -0.1193
18601W        W34735   3.509   1.476  12.003  0.1067 -0.1103  0.0396
18602W        W34736  16.498  14.049  12.911  0.0322 -0.0505  0.0571
18603W        W34737   5.840   5.823   1.980  0.2112  0.2783 -0.3215
18604W        W34738  12.482   4.909   2.314 -0.2013 -0.0829  0.0256
18605W        W34739   2.886  12.750  15.551 -0.0720 -0.2166  0.1192
18606W        W34740   4.596  11.204  10.999 -0.1743  0.0728 -0.1040
18607W        W34741   9.721  17.344   4.752  0.0762 -0.1751  0.0371
18608W        W34742  14.634  11.791  12.524 -0.1373 -0.0772 -0.0155
18609W        W34743   9.096  16.928   6.002 -0.1548 -0.2470  0.1891
18610W        W34744  11.726   7.115  11.770  0.2497  0.1448  0.0802
18611W        W34745  16.791   5.638   0.569 -0.1186 -0.1989  0.1614
18612W        W34746   4.613   7.367  11.924 -0.0164  0.3677  0.3551
18613W        W34747  12.143  14.000   4.282 -0.1494  0.1738 -0.0754
18614W        W34748   1.311  11.087  14.315  0.0402 -0.0450  0.2530
18615W        W34749   7.875   3.249   5.680 -0.3069 -0.2511 -0.2341
18616W        W34750  15.644  10.770  13.686  0.2766 -0.1141 -0.2408
18617W        W34751  16.793   1.820   3.036  0.0932 -0.1071  0.1166
18618W        W34752  12.291   1.409   1.848  0.1892 -0.1049  0.0019
18619W        W34753  10.177   9.767   0.530 -0.0852  0.4204 -0.1620
18620W        W34754   1.247  14.227  10.709  0.0242 -0.2115 -0.1040
18621W        W34755   4.851   5.584  14.700  0.0430  0.0859 -0.1170
18622W        W34756  18.004   4.002   3.629  0.0217 -0.0036 -0.2617
18623W        W34757  12.624  13.110   2.049 -0.3296 -0.0537 -0.0074
18624W        W34758   8.712   4.271  12.386  0.1411 -0.0229  0.1629
18625W        W34759  10.162   2.797   2.628 -0.1367 -0.0868 -0.0361
18626W        W34760   2.526   5.899   2.066 -0.0768 -0.2450  0.1276
18627W        W34761   7.051   7.548  13.150  0.3134 -0.1857  0.1947
18628W        W34762  11.756   0.359   3.783  0.0823  0.2568  0.1030
18629W        W34763   8.703  11.799  11.318  0.2416 -0.0260 -0.2399
18630W        W34764   2.242  11.838   4.423 -0.1682  0.0787 -0.0883
18631W        W34765  12.479   7.508  14.137  0.2555 -0.0923  0.0931
18632W        W34766  11.244  18.290  15.981 -0.2687 -0.0817 -0.0880
18633W        W34767  12.218   4.497   0.868 -0.2637  0.1336  0.0456
18634W        W34768   5.341  12.160   4.639  0.3832  0.1165  0.2421
18635W        W34769  13.725  17.725   0.259  0.4001  0.2039  0.0067
18636W        W34770  12.961   6.910   5.554 -0.0226  0.0515  0.1427
18637W        W34771   1.147  16.102   3.448 -0.1610  0.2188 -0.2056
18638W        W34772  12.934   1.959   2.070 -0.0120 -0.1041 -0.0767
18639W        W34773   1.985   1.293  14.171  0.1580 -0.1801  0.0841
18640W        W34774  16.849   6.556   0.062 -0.1568  0.2484  0.0906
18641W        W34775  13.819  11.576  14.795  0.1510  0.2245  0.0350
18642W        W34776   4.098   8.802  13.920 -0.1666  0.3028 -0.1147
18643W        W34777  14.411   9.320   2.220 -0.1374  0.3698 -0.1358
18644W        W34778   8.430   1.820   0.899 -0.1669 -0.1936 -0.0361
18645W        W34779   8.318   5.440   5.293 -0.0713 -0.0558 -0.0220
18646W        W34780   5.529  15.640   4.239  0.0286 -0.2392  0.3481
18647W        W34781   2.783  10.042  12.357 -0.0831  0.0131  0.3397
18648W        W34782   2.859  18.471  14.523  0.1334 -0.0177 -0.1364
18649W        W34783   5.002  10.186   2.108 -0.0450 -0.2179  0.0871
18650W        W34784   4.502  14.001  14.498  0.3272 -0.1561  0.0835
18651W        W34785   2.989   8.364  11.416 -0.1118  0.2052  0.0736
18652W        W34786   8.424  10.219   2.973 -0.0359  0.1396  0.0289
18653W        W34787   4.097   7.500  14.770 -0.1347 -0.1147 -0.1213
18654W        W34788   8.816  15.717   4.128 -0.2618 -0.1267  0.2744
18655W        W34789  11.445  11.110  10.620 -0.2901 -0.0340  0.2770
18656W        W34790  12.736   3.705   1.162 -0.1639  0.1698  0.1845
18657W        W34791  18.010   9.663   2.493  0.2294 -0.0072 -0.4523
18658W        W34792  12.652   5.885  14.967 -0.0520 -0.2500 -0.0614
18659W        W34793   8.310   6.313  13.353  0.0013 -0.3115  0.1572
18660W        W34794   7.166   9.339  12.925  0.0057 -0.2441  0.2226
18661W        W34795   2.887   0.854  12.604  0.1653 -0.1801 -0.2980
18662W        W34796  14.543  14.584  13.575 -0.0796  0.1340 -0.0162
18663W        W34797   7.843  17.875  13.418 -0.2041 -0.4600  0.0256
18664W        W34798   0.887  16.825   0.167  0.0905 -0.0675  0.0321
18665W        W34799   8.942  11.864  11.927 -0.3137  0.1020  0.1017
18666W        W34800   0.961   7.956  13.237  0.0408 -0.0588 -0.0090
18667W        W34801  13.630  14.214  13.447  0.1680 -0.1728  0.1482
18668W        W34802  10.399  10.047   5.299  0.0204 -0.2088  0.2337
18669W        W34803   8.653  14.910  11.854  0.0705 -0.3457  0.2061
18670W        W34804   5.784  17.434   5.531 -0.1577  0.0121 -0.4790
18671W        W34805  14.919  12.410   5.123  0.0562 -0.0187  0.1882
18672W        W34806   2.566  10.112  14.739  0.2558 -0.0464  0.0248
18673W        W34807  13.438   5.789  12.936 -0.1379  0.1303  0.2435
18674W        W34808   9.269  13.009   1.432 -0.0213  0.1756  0.0879
18675W        W34809   7.964  14.976  13.870  0.1452 -0.1373 -0.0018
18676W        W34810  13.068  16.420   2.916 -0.1841  0.2981  0.4313
18677W        W34811   3.687   9.751  12.059  0.0007 -0.1280 -0.0633
18678W        W34812   7.292   8.200   1.867 -0.0209 -0.0224 -0.0917
18679W        W34813   2.613  15.963   6.110  0.2789 -0.0692 -0.1737
18680W        W34814   5.561  15.302  15.655 -0.0319 -0.1033 -0.1292
18681W        W34815  15.429  15.890   0.830  0.0174  0.0858 -0.1460
18682W        W34816   5.883   1.093   3.725  0.2001  0.0288 -0.1208
18683W        W34817  12.401  10.515   2.760 -0.1879 -0.0013  0.0475
18684W        W34818  16.771  15.076   4.962 -0.1535  0.1654  0.0723
18685W        W34819   6.598   5.534  13.422  0.2277  0.1375  0.2017
18686W        W34820   5.498  16.494   0.388 -0.1349  0.1309 -0.2070
18687W        W34821  13.352   4.817  12.887 -0.0779 -0.0850  0.2693
18688W        W34822   9.318   4.248   5.785  0.0331 -0.1489 -0.2434
18689W        W34823   7.813   6.736   0.478  0.0995 -0.3492 -0.2496
18690W        W34824   2.470  11.809  15.349  0.0762 -0.1049 -0.0961
18691W        W34825   6.021  17.870  12.895  0.2142 -0.0896  0.0274
18692W        W34826  16.933   9.271   1.736 -0.2970 -0.1763 -0.1271
18693W        W34827   3.861   5.166   0.873  0.3773 -0.2211 -0.0284
18694W        W34828   8.453   1.039   3.020 -0.0374  0.2717  0.2814
18695W        W34829  11.426  10.445   0.196  0.1167  0.0693  0.2497
18696W        W34830  15.441  10.219   1.692 -0.0919 -0.2349 -0.0024
18697W        W34831  13.455   1.180  12.584  0.0346  0.2822  0.0357
18698W        W34832   0.279  18.231   2.618 -0.1687  0.0545  0.1096
18699W        W34833   9.175   4.607   0.215 -0.3358 -0.2091 -0.2372
18700W        W34834   8.309  15.436  13.433  0.1247 -0.0845  0.0754
18701W        W34835   0.074   2.187  15.358 -0.0742 -0.0344  0.2666
18702W        W34836  10.765  18.126   2.814  0.0708 -0.0648  0.3235
18703W        W34837  15.645   7.497  11.273  0.1456  0.2381  0.5345
18704W        W34838   9.540  10.083  15.253  0.0056  0.0847 -0.1142
18705W        W34839  17.246  11.549   0.129 -0.0719 -0.2862 -0.3525
18706W        W34840   2.764   6.452   3.488  0.3256  0.0045  0.1436
18707W        W34841   0.149  10.856  11.807  0.0558 -0.1964  0.0958
18708W        W34842   3.630   6.876  15.431 -0.1067 -0.1051  0.1352
18709W        W34843  12.821   1.811  12.259  0.0972 -0.0914 -0.1038
18710W        W34844  15.418   4.109   0.369 -0.3301 -0.3030  0.1843
18711W        W34845   4.630   7.097  11.422 -0.0056 -0.0579  0.0678
18712W        W34846   9.191   6.081   2.830  0.0838 -0.1457  0.0961
18713W        W34847  12.015   7.211  15.216  0.0593 -0.2250  0.0550
18714W        W34848  16.607   8.751   1.181 -0.2457  0.0969 -0.0777
18715W        W34849   0.201  12.271  14.055  0.1499  0.2154  0.0887
18716W        W34850  17.064   5.325  15.017 -0.1026  0.0369 -0.1428
18717W        W34851  14.595  12.098   1.234 -0.0555 -0.1893  0.0679
18718W        W34852  11.423   3.127   4.413  0.0676 -0.0862  0.0723
18719W        W34853   1.743  17.653   2.824 -0.2247  0.0100 -0.2986
18720W        W34854   2.947  11.020   0.801 -0.2403  0.3264 -0.1045
18721W        W34855   2.110  12.180  12.360  0.0419  0.0746  0.0764
18722W        W34856   5.054   7.215  13.649  0.5061  0.0794 -0.1534
18723W        W34857  11.543  13.971  13.204 -0.0827 -0.1056 -0.0398
18724W        W34858  11.906   1.588   5.273  0.1958  0.0137 -0.0805
18725W        W34859  12.956   8.813   1.664 -0.0339 -0.2431  0.1383
18726W        W34860   3.756   7.837   1.925  0.2446 -0.0734 -0.0089
18727W        W34861   2.795  11.967  11.513  0.0631 -0.0355  0.0365
18728W        W34862   0.433  13.410   3.581  0.1513 -0.3399  0.2874
18729W        W34863   9.722   1.813  15.185 -0.2131  0.4170  0.0853
18730W        W34864  17.742   2.061  13.092  0.1812 -0.0087 -0.2319
18731W        W34865   8.147  10.496  11.629 -0.2945 -0.0192  0.1541
18732W        W34866  12.526  10.597  13.000  0.1796 -0.2263 -0.2681
18733W        W34867   8.296  16.744   1.539 -0.2504 -0.1169 -0.1030
18734W        W34868   1.279   4.631  15.414  0.0746 -0.2413 -0.1410
18735W        W34869  14.225  16.258  15.246  0.3993  0.2246 -0.1220
18736W        W34870  13.888  14.098   0.407 -0.0552  0.0186 -0.0735
18737W        W34871  16.780  15.496   5.207  0.2206 -0.0291  0.1650
18738W        W34872   1.296  14.704  12.485  0.0008  0.0555  0.0409
18739W        W34873  17.477  16.429   2.647 -0.2811  0.1903  0.1652
18740W        W34874   6.803   2.149   1.184 -0.0072  0.4549  0.1730
18741W        W34875   4.016   5.089  13.037  0.2299  0.1671 -0.0689
18742W        W34876  11.157   1.442   4.217 -0.2153  0.0630 -0.2047
18743W        W34877   5.320  16.047   0.742  0.0972  0.2266 -0.0375
18744W        W34878   9.949   7.931   2.564  0.0919 -0.1534 -0.2056
18745W        W34879  15.620  15.378   5.763 -0.0972 -0.1960 -0.0252
18746W        W34880   4.822   1.891   3.696  0.0973 -0.2456  0.2535
18747W        W34881  11.032  17.577  11.437 -0.0976  0.0327  0.1285
18748W        W34882  10.920   0.760  12.938  0.1284  0.0548 -0.2210
18749W        W34883   1.472  10.663   0.133  0.0948 -0.5244 -0.0009
18750W        W34884  11.660   5.602   4.918  0.0208 -0.1634  0.1547
18751W        W34885  10.606  11.977   0.600 -0.0441 -0.1915 -0.0059
18752W        W34886   3.622  14.879  11.342  0.0987 -0.0411 -0.0113
18753W        W34887   2.426   8.507  10.612  0.4242  0.0989 -0.1107
18754W        W34888  15.567   0.829   0.682  0.3113 -0.1583  0.1595
18755W        W34889   9.057  10.152   1.197  0.2548 -0.1465 -0.0146
18756W        W34890   0.212   8.998   2.249  0.0937 -0.0585 -0.0803
18757W        W34891   4.203  11.054   1.817 -0.2140 -0.2324  0.0781
18758W        W34892  10.129  17.815   0.810  0.2294  0.6150 -0.1589
18759W        W34893   7.316   3.847   4.310  0.2572  0.1504  0.3217
18760W        W34894   8.059   7.479   1.024 -0.1142 -0.1216 -0.3788
18761W        W34895   6.620  10.401  11.524  0.0949  0.1327  0.2647
18762W        W34896   4.974   2.597  11.321  0.2895  0.0946 -0.3060
18763W        W34897   3.279   5.638  13.501 -0.0196 -0.1659  0.1215
18764W        W34898  11.591   1.006   2.547  0.2251  0.0178 -0.1091
18765W        W34899  16.499   7.059   1.272  0.1045 -0.0740  0.1532
18766W        W34900  10.181  12.348   3.341 -0.0125  0.0861  0.0015
18767W        W34901  13.600  10.906   1.932 -0.1637  0.0710  0.0173
18768W        W34902  16.820   0.336  14.612  0.1580 -0.1345  0.0582
18769W        W34903  12.184   2.280  11.619 -0.1731  0.0029 -0.1075
18770W        W34904   5.228   9.572  12.507 -0.0951  0.0449  0.1652
18771W        W34905   9.096   5.180   4.464  0.0444 -0.2283 -0.0392
18772W        W34906   2.047  11.407  13.542  0.0698 -0.1791 -0.1703
18773W        W34907  11.167   7.934   0.766  0.0259  0.0032 -0.1886
18774W        W34908  14.687   0.775  16.030 -0.1479  0.0606 -0.0081
18775W        W34909  11.241  11.402   1.364  0.4265 -0.1158 -0.1395
18776W        W34910   7.460   2.603   1.646  0.1532 -0.0326  0.3400
18777W        W34911   1.613  16.120   4.566  0.2527 -0.3968  0.1634
18778W        W34912   5.223   3.880   2.202  0.3445 -0.2082  0.2756
18779W        W34913   7.426  15.700   5.259  0.1608 -0.3587  0.0728
18780W        W34914  14.912  15.567   2.527  0.1562 -0.2318 -0.1782
18781W        W34915   9.194   0.365   3.208  0.0508  0.0838  0.0596
18782W        W34916   3.333  18.347  14.725 -0.1037 -0.3305  0.1639
18783W        W34917  12.825  15.788  13.723  0.0528  0.1877  0.1958
18784W        W34918  11.743  12.124   1.588 -0.0266  0.0303  0.1047
18785W        W34919  15.388   7.968  12.787 -0.3539 -0.0043 -0.0222
18786W        W34920  12.906   6.230   1.413 -0.0917  0.0510 -0.1433
18787W        W34921   5.217  13.369  14.643  0.0951 -0.1613  0.3776
18788W        W34922   2.194  16.959   1.917 -0.3846  0.2947 -0.0756
18789W        W34923  17.765  17.982   3.164  0.0881  0.0733 -0.3769
18790W        W34924  17.208   3.502   0.510  0.2622  0.3350  0.0817
18791W        W34925   8.068   0.608  16.074 -0.1527 -0.1151  0.3039
18792W        W34926   9.101   3.860   3.020  0.1887 -0.0071 -0.0719
18793W        W34927   2.312   0.439  12.236  0.1495 -0.0319 -0.0759
18794W        W34928  11.687   0.844   3.400 -0.2042  0.2359  0.2141
18795W        W34929  17.714   6.510   3.010  0.2628  0.2226  0.5625
18796W        W34930  14.918  13.919  15.205 -0.1819  0.1593  0.1545
18797W        W34931  13.225   1.361   5.499  0.2311 -0.0422  0.0868
18798W        W34932  15.653   4.387  11.678 -0.0773  0.1372  0.0482
18799W        W34933  15.793  11.659   6.020 -0.1126 -0.0277 -0.0236
18800W        W34934   1.395   2.114   5.460 -0.3509  0.2558  0.1965
18801W        W34935   4.813  12.638   0.696  0.0976  0.0531 -0.4064
18802W        W34936   1.498  13.180   2.056  0.2103  0.0028  0.0306
18803W        W34937  11.463  16.355   0.587  0.0828  0.0759 -0.3084
18804W        W34938   5.003   1.621   0.696 -0.1988 -0.0941  0.0157
18805W        W34939   5.915  16.735   4.547 -0.2537  0.0357  0.2041
18806W        W34940   7.436   4.475  11.118 -0.0959  0.1482  0.2052
18807W        W34941   7.907  12.236  12.893  0.0942  0.2952  0.0156
18808W        W34942   4.877  11.446  14.641 -0.2384  0.0930  0.1238
18809W        W34943  10.087   5.088   3.876  0.1667 -0.1300 -0.3525
18810W        W34944   2.010   9.842   0.507 -0.3538  0.0479  0.0158
18811W        W34945  12.987   6.087   5.136 -0.2557  0.0451 -0.1424
18812W        W34946  13.417  18.293  13.958 -0.0606  0.0959  0.0288
18813W        W34947  15.840   4.513   1.777 -0.2348  0.2321 -0.0419
18814W        W34948  10.416  12.500   4.422 -0.2395  0.0866 -0.1900
18815W        W34949   0.916  10.856  13.111 -0.0925  0.1837  0.1833
18816W        W34950   6.794   6.782   4.267  0.0290  0.0883 -0.1588
18817W        W34951   0.231  12.393   4.176  0.0195 -0.1574  0.3410
18818W        W34952  17.741   7.304   0.759  0.2283  0.2113  0.1022
18819W        W34953  16.961  14.042   4.745  0.3007 -0.0473  0.1575
18820W        W34954  11.760  16.395   1.835  0.2445  0.3832 -0.0175
18821W        W34955  12.519   6.514  13.264  0.2242  0.0567  0.1212
18822W        W34956  17.689   1.056   1.851 -0.0327 -0.3075 -0.0280
18823W        W34957   4.644   6.578   0.332 -0.3500  0.1435 -0.2199
18824W        W34958  17.458  11.958   4.746  0.0910  0.2897  0.2149
18825W        W34959   2.456   3.791  15.949  0.0432  0.1208 -0.7292
18826W        W34960  16.864   1.757   4.010  0.4574  0.1395 -0.1212
18827W        W34961  12.129   4.623   4.032  0.1537 -0.1179  0.2346
18828W        W34962  18.201   9.707  14.000 -0.1035  0.1488 -0.1812
18829W        W34963   0.001   7.186  12.797 -0.1322 -0.0397  0.0596
18830W        W34964  15.319  16.499   0.101  0.2309  0.1617 -0.1275
18831W        W34965   9.996   4.098  12.676  0.1338  0.1552 -0.1522
18832W        W34966   0.880  14.151  13.993 -0.3182  0.3457  0.0884
18833W        W34967  12.486  16.906  15.644 -0.0567  0.3411  0.0048
18834W        W34968   1.345   7.714   2.615  0.1085 -0.3563  0.0571
18835W        W34969  11.829  16.068  14.311  0.0496 -0.0911 -0.1305
18836W        W34970   1.831  12.763  14.732  0.3767  0.1058 -0.1790
18837W        W34971  12.544  14.978   1.574 -0.2072 -0.3292  0.0670
18838W        W34972   7.078   1.176   2.918  0.0528 -0.2846  0.1337
18839W        W34973   5.851   5.799  14.607 -0.3568  0.1751 -0.1461
18840W        W34974   0.187  15.451  11.203  0.0356  0.0785 -0.1258
18841W        W34975   0.321  11.074   9.408 -0.2810  0.1073 -0.1014
18842W        W34976   6.392   1.616   1.914 -0.1157  0.2590  0.0507
18843W        W34977  11.006   4.090   5.831  0.0081 -0.1817  0.0835
18844W        W34978   5.188   9.783  14.860  0.0451 -0.0714  0.0329
18845W        W34979  10.066   3.133  16.091 -0.0517  0.0388 -0.2621
18846W        W34980  10.283   8.084   0.469  0.2205  0.1500  0.1539
18847W        W34981  16.891  18.113  12.816 -0.0604  0.0537  0.0060
18848W        W34982   4.543   8.591  10.906  0.4242  0.1849  0.0391
18849W        W34983  17.361   1.041  15.873  0.0796 -0.0081 -0.0955
18850W        W34984   6.712   5.495   1.527  0.1344  0.0077  0.0015
18851W        W34985  11.167   6.812  13.049 -0.0677  0.0499 -0.4070
18852W        W34986  10.783  17.542   2.927 -0.0154 -0.0685  0.0443
18853W        W34987  17.741   6.004   3.074 -0.2688 -0.0943 -0.1103
18854W        W34988   6.557   9.934   2.380  0.1886 -0.1445  0.1330
18855W        W34989  12.696   2.492  11.712  0.0491 -0.0448 -0.2510
18856W        W34990   7.438  13.134   1.502 -0.1737 -0.1377 -0.1061
18857W        W34991   1.225  18.010  14.794 -0.3005  0.1809 -0.0712
18858W        W34992  13.797  12.134   4.950  0.2256 -0.0592  0.1015
18859W        W34993  11.730  18.473  11.917 -0.0084  0.2971  0.0479
18860W        W34994   6.532  17.942  14.166  0.0490  0.0205 -0.0952
18861W        W34995   1.145  14.259  12.712  0.2148 -0.0664 -0.0637
18862W        W34996   2.669   6.202  13.139 -0.1047 -0.0652 -0.0131
18863W        W34997   8.548  10.422   1.336 -0.2043 -0.0672 -0.0092
18864W        W34998  15.533   2.764   2.409  0.0702 -0.0135  0.0276
18865W        W34999   3.919   0.517  15.115  0.2057 -0.0534 -0.1113
18866W        W35000   9.459   2.387  15.699 -0.1830  0.2587  0.0324
18867W        W35001   9.772  14.511   5.684  0.2614 -0.0800 -0.1693
18868W        W35002  14.407   8.393   4.113  0.0626 -0.2069  0.1440
18869W        W35003  11.532  13.137  12.898 -0.1730 -0.3328 -0.0184
18870W        W35004  12.424   4.855  11.638  0.2571  0.0021  0.2894
18871W        W35005   1.089   7.862  14.988  0.3163 -0.0472  0.3063
18872W        W35006   0.828   9.740   2.563  0.1424  0.0482  0.0897
18873W        W35007  16.517  13.860  14.869  0.0616 -0.0300  0.4001
18874W        W35008  15.586   2.701  15.911  0.0724 -0.0419 -0.0396
18875W        W35009  16.609  16.523  16.065  0.6617 -0.2554 -0.0014
18876W        W35010  12.168   7.205   5.722  0.0384 -0.0312  0.3104
18877W        W35011   3.568   3.570   3.309  0.0787  0.3194 -0.0518
18878W        W35012  13.033   5.041   5.028  0.2427  0.2459  0.0182
18879W        W35013   1.456   4.626  13.337 -0.1305 -0.0831 -0.0594
18880W        W35014   5.437   6.743   3.158 -0.0209 -0.0078  0.0116
18881W        W35015  13.227   0.990   5.129 -0.0173  0.0096  0.1683
18882W        W35016  16.380  14.910  14.042  0.2856 -0.1790 -0.0905
18883W        W35017   2.112   6.545   4.147 -0.0552 -0.1998  0.0889
18884W        W35018   7.680   6.355   1.310 -0.1725  0.1282  0.2055
18885W        W35019  12.473   9.102  15.703 -0.0349 -0.5263  0.2404
18886W        W35020  16.774   9.973  11.002  0.2449  0.0216  0.0252
18887W        W35021  16.859  18.019  15.538  0.0651 -0.0230  0.0886
18888W        W35022  15.181  13.174   2.445  0.1727  0.0810 -0.0916
18889W        W35023   8.093   0.124   0.269 -0.2887  0.0353 -0.1520
18890W        W35024  16.610   1.533  11.673  0.0482  0.2011 -0.1969
18891W        W35025   2.440  16.184  10.955  0.2170  0.0005  0.1770
18892W        W35026   3.570   2.067   5.240  0.0664  0.0890  0.2761
18893W        W35027  17.557  16.967   4.822  0.0635  0.1174 -0.1910
18894W        W35028   6.996   8.344   5.857 -0.0342  0.0010  0.1186
18895W        W35029  13.428  13.980  15.871  0.1171 -0.2565 -0.0816
18896W        W35030   3.604  15.494   4.860  0.0793 -0.0781 -0.2567
18897W        W35031  17.520  15.994   2.964  0.0677  0.0723  0.0270
18898W        W35032   8.190   9.380  12.852  0.2506 -0.2285 -0.1034
18899W        W35033   7.578   2.640   0.625 -0.0379  0.0990 -0.0907
18900W        W35034   8.239  11.872  14.849  0.2094  0.0493  0.0218
18901W        W35035   7.777  16.572  13.471  0.0956 -0.1252  0.2070
18902W        W35036  14.795   0.376   1.323 -0.0209  0.2504  0.0013
18903W        W35037  15.382   4.066  14.733  0.1646  0.1214 -0.2245
18904W        W35038  12.918   5.824  13.405  0.1812  0.0055 -0.0185
18905W        W35039  17.216   1.359   1.677  0.0477  0.1536  0.0287
18906W        W35040   0.046   6.605  11.182 -0.0482 -0.3164 -0.0744
18907W        W35041   5.719   9.088  15.408 -0.0593  0.0901 -0.2937
18908W        W35042  16.264   9.286  11.075  0.1795 -0.0055 -0.0174
18909W        W35043   8.905  12.257  11.618  0.2092  0.0830 -0.0685
18910W        W35044   8.683   8.570   4.535  0.1694 -0.1197  0.2892
18911W        W35045  13.211  15.187   1.033 -0.2193  0.4141 -0.0284
18912W        W35046  11.118  17.746  13.987  0.2700  0.1621  0.0278
18913W        W35047  11.443  14.230  11.809  0.2480 -0.2275  0.1683
18914W        W35048  14.505   9.533  14.739 -0.0120 -0.2502  0.0101
18915W        W35049   6.471   4.467  14.253 -0.3401  0.0517  0.1854
18916W        W35050  18.229   3.700   2.852  0.2113  0.4434  0.1714
18917W        W35051   1.355  10.092  16.027  0.2096 -0.0859  0.2684
18918W        W35052   8.927   2.367  12.088 -0.1192 -0.4337 -0.2702
18919W        W35053   5.029   5.227   0.228  0.0812 -0.1290  0.3724
18920W        W35054   4.369   6.799  14.164  0.0846  0.0412  0.1811
18921W        W35055  17.692   1.442   5.044 -0.2534 -0.2226 -0.3782
18922W        W35056   2.149  15.471  15.830  0.4854  0.1135  0.0338
18923W        W35057  13.910   4.625   0.205 -0.0534  0.2375  0.1582
18924W        W35058   5.903   6.959   5.476  0.0653 -0.3742  0.0843
18925W        W35059   7.134  10.881  11.245 -0.1078 -0.0199  0.0551
18926W        W35060  12.195  15.818   3.215  0.1740  0.0371  0.0305
18927W        W35061  14.382  13.379   1.383 -0.1637 -0.0788  0.1372
18928W        W35062  10.612   9.964   2.202  0.1625  0.1579  0.2347
18929W        W35063  11.471   3.301  15.169  0.0646  0.1388 -0.1827
18930W        W35064   9.708   5.331   1.785 -0.0892  0.1685  0.0501
18931W        W35065  16.358  15.493  12.444  0.0108  0.2441  0.0634
18932W        W35066   8.927   5.948   1.496  0.2760  0.1908 -0.0620
18933W        W35067  14.824  11.354  14.416  0.0324 -0.2133 -0.0884
18934W        W35068   6.609   6.120   2.668  0.0102 -0.1656 -0.3177
18935W        W35069   6.409  13.663  11.562  0.1009  0.1475 -0.0149
18936W        W35070  18.440   8.397  11.808 -0.0949 -0.2626  0.0856
18937W        W35071   4.487  14.118   2.434 -0.4714  0.0092  0.0084
18938W        W35072   3.491  17.869  14.782 -0.1211 -0.3443  0.0072
18939W        W35073  18.415  18.068   2.362 -0.1046  0.0474  0.0018
18940W        W35074   3.306   3.835  14.916 -0.0586  0.0831  0.2299
18941W        W35075  16.184  11.017  14.838 -0.0578  0.1354  0.1698
18942W        W35076  12.318   7.222   5.220 -0.1195  0.0887 -0.0422
18943W        W35077  16.862   6.925   0.423 -0.1278 -0.0711 -0.2580
18944W        W35078   6.937   8.829  13.220 -0.2876 -0.2873 -0.1605
18945W        W35079  15.748   9.785   1.884  0.1633 -0.1096 -0.0225
18946W        W35080   6.324   5.707  10.201  0.3650 -0.0584 -0.3264
18947W        W35081  15.636   6.212  13.733  0.1563 -0.1929  0.0096
18948W        W35082  14.488  16.773  15.917  0.0818 -0.2434 -0.0470
18949W        W35083   9.368   0.403   4.015  0.1840  0.3827 -0.0009
18950W        W35084   8.173   4.823  12.960  0.4742  0.2500  0.2324
18951W        W35085  10.274  17.460  14.331 -0.1215 -0.1201 -0.0555
18952W        W35086   0.862  13.486  11.806 -0.1115 -0.3343  0.1937
18953W        W35087  14.182   6.583  13.829  0.2549 -0.0181 -0.0959
18954W        W35088   0.635   8.309   5.227  0.4534  0.0357 -0.4124
18955W        W35089  14.021   5.096  15.889  0.2914  0.1904 -0.2489
18956W        W35090   8.299   3.470   3.379 -0.0631 -0.0205  0.1077
18957W        W35091  16.947   3.958  12.916  0.1081 -0.2672  0.0811
18958W        W35092   2.960  11.968  10.707  0.0391 -0.1505  0.0134
18959W        W35093  13.049   7.398  15.171  0.0393 -0.0868 -0.1329
18960W        W35094  10.438   4.095   1.743 -0.1013  0.1965  0.0804
18961W        W35095  11.212   3.238  14.712 -0.2548  0.0540 -0.0406
18962W        W35096   2.612  10.500   1.415  0.1733  0.1605 -0.0048
18963W        W35097  13.799   7.381  12.439  0.4973  0.1076 -0.3367
18964W        W35098   7.696   2.016  15.263  0.4151 -0.0657  0.2003
18965W        W35099   8.387  10.559  15.757 -0.1895  0.0622  0.2554
18966W        W35100   8.761  15.652   0.756  0.3187  0.1569  0.1805
18967W        W35101  15.414   8.677  13.683 -0.2336  0.0823 -0.0158
18968W        W35102  13.894   6.425  14.346 -0.2436  0.1534 -0.1074
18969W        W35103   7.591  14.660   5.186  0.1084  0.0202 -0.1642
18970W        W35104   7.336   2.555   0.168 -0.0431  0.0262  0.2844
18971W        W35105  10.486   2.876  15.323  0.1004  0.2675 -0.1231
18972W        W35106  11.437  17.562  12.807  0.1614  0.0694 -0.0825
18973W        W35107   2.494   5.085   1.790  0.0375  0.2752 -0.2452
18974W        W35108   3.531  14.384   1.342  0.1513  0.1135 -0.0384
18975W        W35109  11.480   1.981   1.789 -0.2811 -0.1346  0.1035
18976W        W35110   9.667  10.452   4.027  0.0483 -0.1336  0.1050
18977W        W35111  17.498  17.651   3.979 -0.1348 -0.0325 -0.0799
18978W        W35112   3.238   3.829   3.619 -0.2671  0.0087 -0.0109
18979W        W35113   4.675   3.284   0.889 -0.4583  0.0627  0.0158
18980W        W35114   8.220   8.308   4.355  0.3105 -0.2272 -0.3274
18981W        W35115  15.146  10.758  12.344 -0.1435  0.0109 -0.0079
18982W        W35116  15.528  14.360  11.172  0.1151  0.0141 -0.0706
18983W        W35117   7.700  17.057   3.260  0.3054 -0.1136  0.0835
18984W        W35118  10.028  13.475  10.818 -0.0205 -0.0183 -0.0720
18985W        W35119   1.660   1.728  12.081 -0.0403  0.1057  0.2968
18986W        W35120   4.604  14.746   3.658  0.2255 -0.1191  0.0909
18987W        W35121   7.492   2.641   6.037  0.1032  0.0552  0.0599
18988W        W35122   8.458   4.474   3.616  0.1966 -0.0380  0.3351
18989W        W35123   0.422   0.401  12.101  0.0569 -0.0389 -0.0123
18990W        W35124   1.856   4.230  14.320  0.0683  0.2446  0.0415
18991W        W35125  16.838   1.791  15.601  0.0752 -0.0018  0.1624
18992W        W35126  16.648  12.446  11.931  0.2544  0.0522  0.2133
18993W        W35127   8.899   5.984   6.347  0.1720 -0.0616 -0.1580
18994W        W35128  18.350   8.173  14.106  0.3687  0.0902 -0.0736
18995W        W35129   2.054   6.315  15.157  0.2477 -0.0585  0.1264
18996W        W35130   6.437   5.439   3.158  0.0817 -0.0431 -0.0698
18997W        W35131   8.484   6.086  12.937 -0.1914 -0.2719 -0.1339
18998W        W35132   3.553   8.282  13.545  0.0242 -0.4860  0.1657
18999W        W35133   0.910  17.270   5.889  0.1389 -0.0865  0.1375
19000W        W35134   6.483  16.728   5.296  0.2543  0.1078  0.1588
19001W        W35135   8.932  16.775   6.615 -0.0643  0.0763 -0.1080
19002W        W35136  17.001  12.539  13.181  0.3814  0.1412 -0.0440
19003W        W35137   9.817   0.379   3.855  0.1738  0.1469  0.3148
19004W        W35138  12.013   5.438  12.380  0.2764  0.0768  0.0990
19005W        W35139   6.370   8.183  11.298  0.0691  0.0569  0.2304
19006W        W35140   3.042  10.229   5.327 -0.1860  0.0133  0.3715
19007W        W35141   7.435   3.025  16.004 -0.2823  0.1276  0.0880
19008W        W35142   1.709   6.163  14.720  0.1909  0.2185 -0.2267
19009W        W35143   6.930   9.780   3.382 -0.0269  0.0958 -0.1741
19010W        W35144   7.286  14.963  14.579 -0.2046 -0.0818  0.2006
19011W        W35145  12.213   5.895   5.366  0.3947 -0.1505  0.2097
19012W        W35146   5.207  14.065  12.912 -0.0838 -0.0753  0.0546
19013W        W35147  11.082  11.986   4.650  0.0303 -0.1665 -0.0552
19014W        W35148   3.780  15.173   0.768 -0.0048  0.2132 -0.2539
19015W        W35149  16.613   9.518   3.488 -0.1514 -0.0552  0.1358
19016W        W35150   9.304   3.581   0.952  0.0573  0.0263  0.1248
19017W        W35151  10.156  13.701   2.793  0.1022 -0.0458 -0.2418
19018W        W35152   7.982   0.960   2.820 -0.3304  0.0748 -0.2937
19019W        W35153   3.825  14.609  13.790 -0.2242  0.0069  0.1379
19020W        W35154   3.317  11.809  11.768  0.3157  0.1431  0.3371
19021W        W35155   2.030   5.281   1.472  0.2713  0.3250 -0.3086
19022W        W35156   3.946   2.725  15.068 -0.0045 -0.3517  0.3143
19023W        W35157  14.533   2.277  13.675  0.6193 -0.1190  0.1122
19024W        W35158  13.891   0.633   3.084  0.0976  0.3914  0.2536
19025W        W35159  12.286   0.242   2.561  0.2765 -0.1490 -0.1575
19026W        W35160   5.928  11.518   1.135 -0.0895  0.1815 -0.1388
19027W        W35161  18.160   8.212   2.886  0.2130  0.2961  0.1155
19028W        W35162  11.032   9.183  15.043 -0.1080 -0.1113 -0.1662
19029W        W35163   4.552   1.475   1.960  0.0016  0.0739  0.1328
19030W        W35164  13.043   7.147   5.119  0.0281  0.1825  0.1087
19031W        W35165   7.664   3.414  15.439 -0.1776 -0.2279 -0.0372
19032W        W35166  15.013   5.105   0.125 -0.1177 -0.3003  0.0307
19033W        W35167   2.871   4.694  10.949  0.1228  0.3622 -0.2102
19034W        W35168  10.937  18.429   5.354  0.1997 -0.0477  0.0067
19035W        W35169   4.530   0.271  12.910 -0.1555  0.4055  0.1162
19036W        W35170  11.464   9.331   0.407 -0.2390  0.0085  0.2119
19037W        W35171  12.087  17.893  15.667 -0.0195 -0.0251 -0.4094
19038W        W35172   9.751   5.841   4.161 -0.2625 -0.2235  0.1527
19039W        W35173   9.373  10.787  15.924 -0.0071 -0.0778  0.0762
19040W        W35174  15.619  10.603   0.574 -0.0602 -0.0618  0.1873
19041W        W35175  15.966  11.875  12.851  0.1747  0.0426  0.0623
19042W        W35176   5.442   7.153   5.595 -0.1799  0.0545 -0.0759
19043W        W35177  17.194   2.984  15.742  0.0853 -0.3502 -0.1100
19044W        W35178   0.212   0.067   0.732  0.0464 -0.0659 -0.0237
19045W        W35179   3.277  14.540  11.393  0.0703  0.2120  0.0775
19046W        W35180   6.218  14.125   1.731 -0.0408  0.1341 -0.2341
19047W        W35181  13.681   5.290  12.218  0.4261  0.1558 -0.1039
19048W        W35182   6.853   5.381  12.954  0.2206 -0.1087  0.0030
19049W        W35183   2.112  17.623  13.492 -0.0988 -0.0656  0.2113
19050W        W35184   3.239  13.882  15.031  0.1236  0.2308  0.1207
19051W        W35185   7.448  18.315  11.760  0.3786 -0.0927 -0.2531
19052W        W35186  17.763  12.759  10.649  0.2185 -0.1218  0.0044
19053W        W35187   0.674  15.308  13.820 -0.2256 -0.1533 -0.1038
19054W        W35188   9.244  16.091   0.233  0.1220  0.3780  0.1949
19055W        W35189  10.697   5.662  14.432  0.0375  0.0571 -0.2007
19056W        W35190  17.096  10.901  14.395 -0.2408 -0.1483 -0.0395
19057W        W35191  11.309   8.244   2.565  0.1545  0.0239  0.1992
19058W        W35192   4.133  10.386   3.213  0.2710 -0.0081  0.2069
19059W        W35193  11.403   9.183   5.842 -0.0483 -0.0727  0.0554
19060W        W35194   5.246  14.499   2.578 -0.0591 -0.0131 -0.1884
19061W        W35195   9.136   0.281   0.234 -0.3726  0.2506  0.2585
19062W        W35196  12.944  17.438  14.465 -0.1311  0.0519  0.1551
19063W        W35197  14.502   8.155   1.280 -0.1639  0.2319  0.4673
19064W        W35198  18.237  10.788  13.371  0.0942 -0.1821 -0.0651
19065W        W35199  12.307  12.392   5.809 -0.1699  0.1307  0.1237
19066W        W35200   9.193   0.057  13.260 -0.2023  0.0550  0.2467
19067W        W35201   9.698   7.550  14.059  0.0016 -0.0992 -0.0277
19068W        W35202   6.774  17.833  15.207  0.1683  0.1571  0.5398
19069W        W35203   1.158   0.175   3.461  0.1633 -0.0068 -0.1594
19070W        W35204  11.448   7.733  13.262 -0.1845 -0.0881  0.0344
19071W        W35205  16.137  18.247  15.258 -0.2147 -0.1017 -0.0730
19072W        W35206   8.802   8.978   3.660  0.0209 -0.0580 -0.1173
19073W        W35207  12.952   3.002  13.997  0.0885  0.1907  0.1732
19074W        W35208  12.787   1.127  14.970  0.0468  0.1301 -0.2193
19075W        W35209   3.489  16.291   1.249  0.1097 -0.0520 -0.1100
19076W        W35210  15.304   9.017   0.818 -0.0060 -0.0239 -0.0276
19077W        W35211  12.505  17.714   0.982 -0.0612 -0.0609 -0.0345
19078W        W35212   8.268   9.176   3.016 -0.1536  0.0835 -0.3478
19079W        W35213  16.405   5.900   1.762  0.1371  0.0997 -0.1769
19080W        W35214  12.665   8.968   3.727  0.1964  0.2989 -0.2631
19081W        W35215  11.511   7.333   1.281  0.1216 -0.4231 -0.0260
19082W        W35216   8.000   8.189  15.578 -0.0456  0.0858  0.3357
19083W        W35217   6.037   0.103   4.764  0.0436 -0.2683  0.2885
19084W        W35218  14.255   2.731   3.028  0.0478 -0.1140  0.1182
19085W        W35219  11.306   7.748   5.292  0.2894 -0.1446 -0.0046
19086W        W35220  15.583   2.724  13.304 -0.2167  0.0127  0.1110
19087W        W35221  16.284   6.857   2.904  0.0224  0.1549 -0.2482
19088W        W35222  11.420   7.167  12.854  0.1920  0.1009 -0.3339
19089W        W35223  14.795   0.621  12.393  0.2585 -0.2299  0.0679
19090W        W35224   7.607   7.498   6.491  0.0656  0.0146 -0.0710
19091W        W35225   6.226   9.373  12.503  0.2866 -0.0049 -0.0485
19092W        W35226   7.999   3.905   4.149 -0.0915  0.1148  0.1225
19093W        W35227   3.417  12.588  15.831 -0.1204  0.0719  0.0686
19094W        W35228   9.283   7.096  13.214 -0.4572 -0.0310  0.1420
19095W        W35229  12.147   9.265   5.187  0.2715  0.0018 -0.0784
19096W        W35230  18.460   0.847   2.364 -0.1245 -0.0879 -0.2895
19097W        W35231   9.629  10.053  12.391  0.1037 -0.2200  0.1959
19098W        W35232   4.777   4.599   1.196 -0.0582  0.0168 -0.2375
19099W        W35233   0.067  16.017   0.233 -0.0416 -0.3751  0.2710
19100W        W35234   7.676   4.167   4.403 -0.2106 -0.1036  0.0345
19101W        W35235  12.617   1.430  12.653  0.0325  0.0083 -0.1102
19102W        W35236  10.062  15.529  11.929 -0.0768  0.1107  0.2691
19103W        W35237   2.091   8.790  13.756  0.0721  0.1624 -0.0303
19104W        W35238   8.440  13.003   0.709  0.1682  0.1805  0.1989
19105W        W35239  14.505   7.032   0.227  0.0337  0.3918  0.1955
19106W        W35240   5.435   3.938   5.348  0.2652  0.2038 -0.2356
19107W        W35241   8.176  15.828   5.839 -0.4024  0.0543  0.1518
19108W        W35242  17.780   5.020  11.121 -0.0295  0.1575  0.0268
19109W        W35243  15.095  12.879   1.540 -0.0368  0.0092 -0.0432
19110W        W35244   1.259  14.002  16.008 -0.0408 -0.3287 -0.2469
19111W        W35245   2.594   8.150   3.387  0.1407 -0.3109  0.0664
19112W        W35246   5.499   7.353  15.013  0.2314 -0.2079 -0.2000
19113W        W35247  16.301   8.227   5.169  0.2207 -0.1363 -0.0105
19114W        W35248  17.789  12.604  14.409  0.1737  0.3061 -0.1822
19115W        W35249  10.212   3.895   3.823  0.2797  0.1894  0.1405
19116W        W35250   2.464   4.795   2.315 -0.0393  0.3563  0.0056
19117W        W35251   2.656   9.244  12.000 -0.1741 -0.0572 -0.0388
19118W        W35252  12.491   4.062   0.870 -0.1212 -0.0528 -0.1035
19119W        W35253   2.523   9.986  10.768 -0.3108  0.0147 -0.4003
19120W        W35254  12.106   6.880  12.457 -0.2373 -0.0176  0.1772
19121W        W35255   4.726  13.821   3.161 -0.2998  0.3266  0.0377
19122W        W35256  12.489   4.444  15.523 -0.0290 -0.2798 -0.0119
19123W        W35257  18.017  16.096  11.210  0.3793  0.3664 -0.0845
19124W        W35258   7.018  12.448   0.470 -0.1405 -0.1690  0.0924
19125W        W35259  13.295   1.139   0.156 -0.2958 -0.0762 -0.2512
19126W        W35260  18.351  10.696  12.820 -0.1490  0.0524 -0.1675
19127W        W35261  17.199  17.480   0.566  0.1708  0.2908  0.0440
19128W        W35262   7.735   0.653  11.707 -0.5460 -0.1599 -0.4149
19129W        W35263   5.272   0.225  12.194 -0.0139 -0.2051  0.1063
19130W        W35264   7.957  14.150  14.519 -0.0408 -0.0021 -0.2269
19131W        W35265   3.900  16.963   9.950 -0.4106  0.3998 -0.1524
19132W        W35266   6.197   1.707   4.847  0.0148 -0.2177  0.1307
19133W        W35267  10.215  13.590  13.477 -0.5496 -0.1238 -0.2170
19134W        W35268   0.541  17.804   4.097 -0.2631  0.5275 -0.1167
19135W        W35269   4.011  18.125  12.552  0.2249 -0.6102 -0.0975
19136W        W35270  12.708  10.866  11.739 -0.0043  0.0865 -0.2421
19137W        W35271  18.346  16.573   9.756 -0.2219  0.0319 -0.1161
19138W        W35272  11.364   0.306  16.044 -0.2195 -0.1409 -0.0467
19139W        W35273  16.740  11.241   3.963 -0.2676  0.2013  0.0373
19140W        W35274   6.798  11.124   3.443  0.0668 -0.0123 -0.0704
19141W        W35275  11.740  14.693   1.982 -0.0446  0.1856 -0.1969
19142W        W35276   0.760  13.409  13.728  0.0500 -0.1752  0.0610
19143W        W35277   2.858  12.457   1.328  0.0589 -0.1142  0.2080
19144W        W35278   4.443   5.119   0.303 -0.1644  0.0408 -0.2209
19145W        W35279   1.602  11.231  12.042  0.0118  0.3981  0.0995
19146W        W35280  16.133  10.015  16.039 -0.2152 -0.1349  0.2264
19147W        W35281   0.884   3.406   2.709 -0.2389  0.4318 -0.2691
19148W        W35282   0.087   9.508  11.271  0.0373 -0.1786  0.0085
19149W        W35283   4.966  15.397   4.996 -0.1725  0.1366 -0.1045
19150W        W35284   5.332  12.687   4.508 -0.1336 -0.0589 -0.0374
19151W        W35285   2.120   4.558  12.107  0.1079  0.0836  0.1045
19152W        W35286   9.412  14.681  13.863  0.0468 -0.0450 -0.2402
19153W        W35287  11.175   7.193  12.044  0.1856  0.0940  0.0010
19154W        W35288   7.150   2.804  14.799 -0.2654 -0.0847  0.1127
19155W        W35289   1.155  12.671   1.030 -0.0917  0.1449  0.1349
19156W        W35290  17.848   7.761   1.584  0.1446  0.0740  0.1885
19157W        W35291  13.766  16.241  14.364  0.2945 -0.0889 -0.0326
19158W        W35292   0.581   3.756  14.070 -0.3841  0.1262 -0.0580
19159W        W35293  17.657  15.442   0.432  0.3654  0.0376  0.2114
19160W        W35294   7.173   4.112   0.591 -0.1531 -0.0745 -0.1731
19161W        W35295   6.267  15.352   4.847  0.0869  0.2719 -0.1749
19162W        W35296   5.141   4.799  13.552  0.0097 -0.0594  0.0955
19163W        W35297  12.184   0.366  15.120  0.0865  0.0535  0.3264
19164W        W35298   4.684   1.716   5.326  0.1334 -0.1741  0.1280
19165W        W35299   3.776   7.478  15.714 -0.1691  0.2205  0.0720
19166W        W35300  11.707  11.111  13.398  0.1969 -0.1457  0.2737
19167W        W35301  11.244  13.517  13.148  0.0029  0.0597 -0.4287
19168W        W35302   4.957  14.863   0.920  0.1577 -0.1623  0.1403
19169W        W35303   0.586  14.055   0.038  0.3623 -0.1324  0.1805
19170W        W35304   5.745   0.866  11.667  0.0681 -0.1707 -0.1154
19171W        W35305   9.648  15.087   4.220  0.0004 -0.1147  0.1350
19172W        W35306  12.714   1.493  11.323  0.2097 -0.3664  0.2127
19173W        W35307   2.152   2.635   1.352  0.2241 -0.2203 -0.1481
19174W        W35308   4.090  10.474   0.782  0.1770  0.2304 -0.2358
19175W        W35309  14.866   4.327   5.604 -0.2354  0.2005 -0.0568
19176W        W35310   4.142  15.824   0.311  0.1237  0.0111  0.4012
19177W        W35311   8.045   0.768  12.774 -0.2869 -0.0989 -0.0629
19178W        W35312   9.575   1.110   5.379 -0.0248  0.1551  0.0115
19179W        W35313  13.807  15.115   4.754 -0.4011 -0.0013 -0.4464
19180W        W35314  13.202   0.233   0.487  0.1998 -0.1536  0.0587
19181W        W35315   2.232  18.222   3.609  0.3297  0.4199  0.2449
19182W        W35316   5.893  10.735   5.391 -0.0351  0.2258  0.0231
19183W        W35317   3.400   6.359  12.174 -0.0400  0.2020  0.3460
19184W        W35318   8.405  11.248   0.165  0.0505 -0.0514 -0.0814
19185W        W35319  16.634   8.174  11.765  0.0480  0.0546 -0.2247
19186W        W35320  11.575  11.496   2.593 -0.0671  0.0477 -0.3335
19187W        W35321   6.335   6.664   5.341 -0.1837  0.1036 -0.2563
19188W        W35322   2.710  16.069   1.213  0.0312 -0.2106 -0.0203
19189W        W35323   8.722   4.046  14.159  0.1265 -0.2175 -0.3038
19190W        W35324  13.362  13.253  11.812 -0.3129  0.2740 -0.0760
19191W        W35325  13.657   7.126   2.033  0.0008 -0.0486  0.3322
19192W        W35326  11.093  17.226   3.934  0.0480  0.2032 -0.2120
19193W        W35327   0.596   2.657  11.302 -0.1502  0.2178 -0.0970
19194W        W35328  14.001   0.786   5.477  0.3608  0.1823  0.0912
19195W        W35329   9.160   1.086  15.675  0.3190  0.1996 -0.2287
19196W        W35330   7.385   8.004   3.087  0.3495  0.2036  0.1781
19197W        W35331   2.434   0.884  15.201 -0.0203 -0.0132 -0.0601
19198W        W35332   6.142  10.206  14.747  0.2660  0.1148  0.3628
19199W        W35333   1.293   1.916   0.651  0.2591 -0.2521 -0.1739
19200W        W35334   2.272  10.098   1.825 -0.0156  0.1725  0.0633
19201W        W35335  17.255   6.119   5.713  0.1480  0.0675  0.3126
19202W        W35336  11.037   3.164  14.275 -0.4062  0.0794  0.0034
19203W        W35337  17.805   1.869  15.658 -0.3202  0.1739  0.0420
19204W        W35338  14.710   8.191  13.762  0.1280  0.1309  0.0110
19205W        W35339  15.154   7.378  11.082 -0.0638 -0.4899  0.4044
19206W        W35340  12.263   9.569  13.752  0.0632  0.0051 -0.0932
19207W        W35341  10.846  17.532   5.853 -0.2033  0.0648 -0.0268
19208W        W35342   7.162   4.627   1.122  0.2299  0.0165  0.0973
19209W        W35343   3.047   3.132  12.784 -0.1116  0.0460  0.0363
19210W        W35344   6.246  10.782   2.447 -0.0518  0.0904  0.0942
19211W        W35345  17.880  15.559  12.975 -0.0138  0.0750  0.2640
19212W        W35346  12.623   4.011   1.853 -0.0386  0.1022  0.1524
19213W        W35347   4.749  15.603   3.827  0.2412  0.0054 -0.3308
19214W        W35348  13.730   1.803   2.097  0.0862 -0.2407 -0.1893
19215W        W35349   7.091   8.048  15.523 -0.0158  0.0189 -0.1057
19216W        W35350   0.088  14.729   1.980 -0.1996  0.1563 -0.0283
19217W        W35351   9.053  11.531  13.805  0.0586 -0.0830  0.1565
19218W        W35352   0.613   7.995  12.846  0.2509 -0.0346 -0.1933
19219W        W35353   7.097  12.748  13.358  0.2555 -0.0068  0.1028
19220W        W35354   3.921  14.683  10.890 -0.2127 -0.0199 -0.0619
19221W        W35355   3.997  10.575  15.198 -0.0096 -0.3645  0.2063
19222W        W35356   7.695  10.528  13.716  0.1380 -0.1626 -0.1934
19223W        W35357   1.515   2.367  15.628  0.2002 -0.0910  0.2862
19224W        W35358  13.458   5.795   3.235  0.1485 -0.1045  0.0875
19225W        W35359  12.936   9.029   5.440 -0.3197 -0.3537  0.0685
19226W        W35360   4.429   5.887  12.776  0.1006 -0.0469 -0.1037
19227W        W35361  12.929   5.396  14.469 -0.2035  0.0806 -0.0024
19228W        W35362   0.901   2.916   2.554  0.1225  0.1851  0.3329
19229W        W35363   5.094   9.303   0.966  0.0830 -0.1032 -0.0661
19230W        W35364   9.680  18.042  11.352  0.1613  0.3779 -0.1098
19231W        W35365   6.279   1.546   3.019  0.0452  0.3436  0.1186
19232W        W35366   7.566  16.015  16.015  0.1662 -0.1370  0.0594
19233W        W35367  15.326   9.541   2.222 -0.2142 -0.1931 -0.1599
19234W        W35368   0.335  17.023  11.494 -0.2667 -0.3484  0.1513
19235W        W35369   6.435   6.165  12.340  0.0135 -0.0165 -0.0591
19236W        W35370  14.446   0.175  12.902  0.1931  0.0660 -0.3906
19237W        W35371  11.269   8.725  13.511 -0.1778  0.0388  0.1581
19238W        W35372   1.561   5.367   4.680 -0.0844  0.4927  0.4899
19239W        W35373   9.645  18.090   5.317 -0.0153 -0.2256  0.0148
19240W        W35374   4.862   3.731  15.929  0.0937  0.3816  0.0854
19241W        W35375   2.903   1.432  14.634 -0.2301  0.2879  0.5604
19242W        W35376  18.299   5.190   4.720  0.1805  0.3056  0.1791
19243W        W35377  16.566   8.248  13.845 -0.3392 -0.0659 -0.0197
19244W        W35378   6.944  17.686  13.504  0.4696  0.2038  0.2364
19245W        W35379  15.990  18.391   3.656 -0.3211 -0.1511 -0.0542
19246W        W35380   3.682  13.404  12.227 -0.1176  0.0098 -0.1555
19247W        W35381  11.625   4.920   2.878  0.1078 -0.1074 -0.0282
19248W        W35382  15.263  17.483   3.701  0.0901  0.0923  0.2867
19249W        W35383  15.467   8.950  11.810 -0.0247  0.1093  0.1601
19250W        W35384  13.990  18.107   3.560  0.1091 -0.1025  0.2674
19251W        W35385  11.555  10.925   5.463  0.0470 -0.2042 -0.3043
19252W        W35386  13.352   5.405  12.685 -0.0565 -0.0635 -0.1168
19253W        W35387  12.485   9.059   5.491  0.0101 -0.3401  0.1571
19254W        W35388   1.967   0.530  15.253 -0.1385  0.3137  0.1833
19255W        W35389   8.814   0.873   6.545  0.0598 -0.1970  0.2956
19256W        W35390   9.453   8.106   1.596 -0.1286  0.2312  0.5251
19257W        W35391  17.190  18.084   3.857 -0.3039  0.1418 -0.1924
19258W        W35392   9.739  17.823  13.148 -0.1573 -0.0836 -0.0906
19259W        W35393  15.871  17.524   1.676  0.0577 -0.3437  0.1857
19260W        W35394  14.484  10.092  13.315  0.1155 -0.2444  0.1366
19261W        W35395  13.221  10.910  13.336  0.0910 -0.1257 -0.0662
19262W        W35396   6.964   2.782   6.028 -0.2418 -0.3010 -0.1003
19263W        W35397   3.217   4.592   0.522  0.1552  0.1160  0.1523
19264W        W35398   1.698   7.150   0.079 -0.1730 -0.1293 -0.1679
19265W        W35399   9.240   3.696   2.189  0.1878 -0.0058  0.0147
19266W        W35400   8.700  14.804   0.511 -0.1322 -0.3203 -0.2906
19267W        W35401   6.326   7.158   1.541  0.0018 -0.1764 -0.1069
19268W        W35402   4.879  16.079  12.924  0.2178  0.2128  0.1891
19269W        W35403   2.632  11.072   3.948 -0.0182 -0.3436  0.1966
19270W        W35404   2.872   1.643  10.709  0.0345  0.2088 -0.0822
19271W        W35405   2.327  17.201  15.767 -0.0053 -0.1495  0.0608
19272W        W35406   7.704   0.853   4.051 -0.0161 -0.2230 -0.0883
19273W        W35407   4.994   1.230   2.156 -0.4452 -0.0875  0.0415
19274W        W35408  16.744  12.401   1.643 -0.2719 -0.0408 -0.1612
19275W        W35409   7.338   7.694   1.280 -0.1774 -0.4153 -0.2269
19276W        W35410  10.678   1.632  11.786  0.0011 -0.3145 -0.0090
19277W        W35411  15.919   8.846  13.805 -0.1881 -0.0520 -0.2534
19278W        W35412   2.933   1.659   2.544 -0.2009 -0.0601 -0.2664
19279W        W35413   6.323   4.474  11.520  0.1429  0.4579  0.1819
19280W        W35414  10.253   2.070   0.919 -0.1310  0.2113  0.2169
19281W        W35415   2.990   0.367   0.401 -0.0698  0.1739  0.1248
19282W        W35416   8.529   6.881  11.834  0.2001 -0.1421  0.3522
19283W        W35417   5.902   6.080   0.957  0.1449 -0.0357 -0.3509
19284W        W35418  17.345  16.505  11.103 -0.2088  0.1636  0.1512
19285W        W35419  12.637  16.045   4.341 -0.1222 -0.2266 -0.3711
19286W        W35420   9.570   2.957  13.668  0.0222 -0.1263 -0.4393
19287W        W35421  12.123   5.107   3.035 -0.3677 -0.0661 -0.0448
19288W        W35422  10.428  13.263   0.667  0.0111 -0.0879  0.2342
19289W        W35423   6.523   2.812   0.683  0.0815 -0.0120 -0.1246
19290W        W35424  10.759  12.636   0.061  0.0508 -0.0836  0.0278
19291W        W35425   9.319   9.443   2.751 -0.0024 -0.2156 -0.0745
19292W        W35426   3.293  16.454  15.976 -0.1914  0.0025 -0.2933
19293W        W35427  16.153  10.489  12.436  0.0799  0.0670  0.2933
19294W        W35428   2.197   8.533   1.277  0.1751  0.1988  0.2044
19295W        W35429   3.923   0.685  11.688  0.1861 -0.0839  0.1145
19296W        W35430   9.160  17.965   5.236  0.0705  0.0508  0.1518
19297W        W35431  13.136  11.098   2.215  0.0757 -0.2426 -0.0895
19298W        W35432  17.763   3.217  14.682 -0.0758 -0.1069  0.0312
19299W        W35433  11.896   3.069   0.231  0.1282 -0.0261  0.1192
19300W        W35434   5.826   5.276   3.984  0.5146 -0.1790 -0.0948
19301W        W35435  12.694  14.304  11.381 -0.1718 -0.0700 -0.0070
19302W        W35436  14.438  14.772   2.200 -0.4044  0.0950  0.2101
19303W        W35437  13.112   2.883  13.491 -0.3974  0.4406  0.0155
19304W        W35438   1.226   6.183  12.880  0.3395 -0.1806  0.0455
19305W        W35439   2.128  10.410   1.378  0.0443 -0.0295 -0.1048
19306W        W35440   9.249  10.061  12.082  0.0455  0.2336  0.3030
19307W        W35441   1.495   2.963  14.226  0.0773 -0.2642  0.1754
19308W        W35442  11.438  16.102   5.829 -0.1610  0.1669 -0.1690
19309W        W35443  11.027   9.372   1.495  0.3105 -0.1171  0.2746
19310W        W35444  11.429   1.522   1.684 -0.0198 -0.0558 -0.0745
19311W        W35445   3.545  17.612   3.039  0.0680  0.0003 -0.4743
19312W        W35446   2.887  11.453  15.427  0.2034 -0.0634 -0.1876
19313W        W35447   3.026  17.292  14.726 -0.1777 -0.2164 -0.0324
19314W        W35448  17.863   5.369   4.499 -0.1823 -0.1183 -0.0413
19315W        W35449  16.890   4.863  12.345 -0.3920 -0.2676  0.0604
19316W        W35450  17.718  17.213  15.896 -0.1468  0.0730 -0.1154
19317W        W35451  11.872   7.870   3.737 -0.1020  0.1338  0.1608
19318W        W35452   7.623  14.593  14.519 -0.0216  0.1056 -0.0669
19319W        W35453  13.091   0.531   5.028  0.0224 -0.2526 -0.2381
19320W        W35454  13.350   4.001   4.848 -0.0358 -0.3343 -0.2447
19321W        W35455  13.200  17.233   1.765 -0.0698  0.0623  0.3485
19322W        W35456  14.357   9.758  12.912 -0.2387  0.0860  0.2450
19323W        W35457  17.149   6.835   3.606 -0.0049 -0.2062 -0.1070
19324W        W35458   5.979   1.270  15.656 -0.1655  0.1061  0.0938
19325W        W35459  15.656   3.514  15.665 -0.1465  0.0233  0.2545
19326W        W35460   7.498   3.053   4.448 -0.1014 -0.0526 -0.1734
19327W        W35461  15.751   5.422   3.675 -0.0060 -0.1476  0.0957
19328W        W35462  13.617   4.905   5.575 -0.0884  0.0014 -0.0634
19329W        W35463   6.656  17.523  14.835 -0.0532  0.1676 -0.0708
19330W        W35464  11.837   6.998   4.021 -0.0915  0.2598  0.0436
19331W        W35465   8.968  10.515  15.656  0.0855  0.0202 -0.1727
19332W        W35466   9.028   8.161  11.666 -0.2509  0.0858 -0.3284
19333W        W35467   3.286  10.243  15.152  0.1593  0.0885  0.3285
19334W        W35468   7.962   7.379   2.977  0.0401  0.3134 -0.0353
19335W        W35469  17.163  13.949   4.340 -0.0296 -0.2269  0.1872
19336W        W35470  18.503   7.561   2.029 -0.0064 -0.0948 -0.0296
19337W        W35471   1.020   4.082  12.362  0.0531  0.0446  0.1873
19338W        W35472  15.532  14.134   4.600 -0.2264 -0.2213  0.2479
19339W        W35473   8.978  17.926   0.420 -0.1648  0.1993 -0.1774
19340W        W35474   5.533  11.991  14.404  0.0151  0.0564  0.1561
19341W        W35475   4.691   7.476   0.039 -0.0185  0.1739  0.0932
19342W        W35476   0.317  14.313   2.230 -0.1064 -0.0328  0.1388
19343W        W35477  13.851   3.337   1.159 -0.3202 -0.1439  0.0027
19344W        W35478  17.395  14.869  11.081 -0.3083 -0.0755 -0.0140
19345W        W35479   3.792   9.181  10.355  0.0855  0.4047  0.4053
19346W        W35480  10.843  12.732  13.109  0.0617 -0.2752  0.2013
19347W        W35481  12.111   2.954  13.576  0.1608 -0.0588 -0.0129
19348W        W35482   8.430   3.240  13.340 -0.0115 -0.0899  0.3407
19349W        W35483   7.876  17.949  11.749 -0.0641  0.1388 -0.0090
19350W        W35484  15.593   0.044   3.026 -0.3841  0.0818  0.3107
19351W        W35485   5.895   0.245   3.373 -0.3578 -0.0937  0.0791
19352W        W35486  15.423  13.232   3.902  0.1971 -0.0285  0.1063
19353W        W35487   8.683   9.907   1.005  0.2657 -0.4236  0.0900
19354W        W35488  16.058   1.728  12.468 -0.5692 -0.2240 -0.2868
19355W        W35489   3.986  10.134  12.268 -0.1170  0.1813 -0.0476
19356W        W35490  10.490   2.398  14.394  0.3025 -0.2362  0.2580
19357W        W35491  15.459  10.348   1.149  0.1804  0.0022  0.0688
19358W        W35492   4.095  17.964  14.497 -0.3667 -0.0537 -0.0318
19359W        W35493  16.770   0.790   2.338  0.1627 -0.0315  0.1499
19360W        W35494  11.676  13.279   4.449  0.0442 -0.1731  0.0701
19361W        W35495   9.198   0.655   4.447  0.1067 -0.1988  0.1102
19362W        W35496  17.488   8.293   2.405 -0.1498  0.0288  0.1289
19363W        W35497   2.302  15.535   4.347  0.0007  0.0852  0.1758
19364W        W35498   1.904  14.061  12.888  0.1850  0.1858 -0.1701
19365W        W35499  13.600   6.276   2.632  0.0995 -0.1743  0.0601
19366W        W35500   7.789   0.101  15.573 -0.4838  0.2834  0.1347
19367W        W35501   1.334  18.484   2.659 -0.0804  0.1332  0.0735
19368W        W35502  12.908   7.782  11.347  0.0756 -0.1645  0.0992
19369W        W35503  18.195   9.200  11.213  0.0049  0.1817 -0.0440
19370W        W35504  12.335   3.182   3.150  0.0655 -0.1109 -0.1072
19371W        W35505   8.149  16.780   0.971 -0.0402 -0.1930 -0.0348
19372W        W35506   8.214  12.751   4.161 -0.0100  0.4084  0.1773
19373W        W35507   5.340  16.903  15.189  0.1753 -0.0394  0.0349
19374W        W35508  13.420   0.800   3.173 -0.0726 -0.0603  0.3222
19375W        W35509   3.253   4.603   5.225  0.0524  0.2455 -0.2153
19376W        W35510   9.509   5.050   0.409 -0.0121  0.1366 -0.1836
19377W        W35511   0.111  15.099  12.105 -0.2094 -0.0887  0.0090
19378W        W35512  17.313   2.559   3.473 -0.1319  0.0450  0.0600
19379W        W35513  11.348   6.507  14.939  0.1950  0.1815 -0.0450
19380W        W35514   5.387   8.525   1.375  0.1266  0.0550 -0.4814
19381W        W35515  11.706   4.925  14.270 -0.0606  0.0400 -0.2545
19382W        W35516  11.111   1.403  12.654 -0.2066  0.0052 -0.3739
19383W        W35517   3.718  14.954  11.840  0.0265  0.1409  0.2374
19384W        W35518   2.338   9.937  13.969 -0.0919 -0.1545  0.0789
19385W        W35519  12.666   1.889   1.354  0.2481  0.2369 -0.1596
19386W        W35520  13.160  11.803   5.498 -0.2218 -0.0232 -0.1380
19387W        W35521   8.850   5.398   4.914 -0.0024  0.0564  0.3126
19388W        W35522   1.391  10.152  13.792 -0.3197 -0.0188 -0.2171
19389W        W35523  16.509  13.741  14.356  0.0336  0.2262 -0.4530
19390W        W35524   3.835  16.683  16.005 -0.2054  0.0724  0.2571
19391W        W35525   6.733  14.471  13.618 -0.0084  0.0724 -0.1450
19392W        W35526   5.725   5.846   1.398 -0.1233 -0.1189  0.2546
19393W        W35527  14.135  16.467  10.927  0.3206 -0.0199 -0.2964
19394W        W35528   0.304  11.238   1.578  0.0758  0.1651 -0.0308
19395W        W35529   8.557   0.140   4.858  0.1439 -0.2452 -0.2203
19396W        W35530  15.596  17.225  14.849  0.3308 -0.2046 -0.0581
19397W        W35531  16.399   3.271  14.357  0.3046 -0.0412  0.0560
19398W        W35532  12.509  15.778   3.956  0.0907 -0.0560  0.3262
19399W        W35533   5.465  14.647   3.128  0.0036  0.0584 -0.0380
19400W        W35534  14.810  14.947   2.739 -0.0862  0.0158 -0.0766
19401W        W35535  14.875   0.156  13.207 -0.2050  0.1942  0.1569
19402W        W35536  11.420  11.880   0.302 -0.0235 -0.1961 -0.0870
19403W        W35537  10.027  10.996   5.293 -0.0216  0.0673 -0.0388
19404W        W35538   3.801   6.430   4.626  0.2318  0.2051  0.0520
19405W        W35539  13.270   0.270   4.590 -0.0102  0.2222  0.2528
19406W        W35540  17.657  11.059   4.201 -0.1185 -0.3337 -0.0756
19407W        W35541  10.108   9.449   1.660 -0.0458 -0.0473 -0.2150
19408W        W35542   3.810   7.549   0.303 -0.0194  0.1202 -0.0573
19409W        W35543   8.628   1.945   0.448  0.4753 -0.0185  0.0037
19410W        W35544   5.688   2.165   2.504  0.1577  0.2658 -0.0428
19411W        W35545  11.054   7.076  15.578 -0.0716 -0.0302  0.1035
19412W        W35546  18.237  14.601   1.543  0.2972  0.1048 -0.5735
19413W        W35547  11.526  11.231  11.640 -0.0124  0.0900  0.2675
19414W        W35548   3.703   4.209  11.660  0.0831 -0.1953  0.2253
19415W        W35549   5.261  12.017   1.464  0.4241 -0.1523 -0.0216
19416W        W35550   4.004   6.193  14.745 -0.1200  0.2994 -0.1813
19417W        W35551   3.414   3.545  13.595 -0.0669  0.1514  0.0672
19418W        W35552  12.784  15.082   0.454  0.2084  0.2619 -0.1392
19419W        W35553   1.784   4.946   5.342  0.2658  0.0762 -0.0040
19420W        W35554  11.361   2.355  14.730  0.0810 -0.2442  0.2292
19421W        W35555   9.345   0.835  12.310  0.2847 -0.1237  0.0234
19422W        W35556   1.513  14.553  12.948 -0.1308  0.2554  0.1605
19423W        W35557   1.918  11.167  14.349  0.0410  0.0460 -0.2089
19424W        W35558   4.435   5.076   9.880  0.0147 -0.0355  0.1878
19425W        W35559   4.023  15.728  10.791 -0.5436  0.0494 -0.1683
19426W        W35560   6.898   3.287   1.578  0.0874  0.0813 -0.1185
19427W        W35561  14.432   3.406  13.721 -0.0507  0.0845  0.3555
19428W        W35562   9.274   0.559  13.537 -0.1886  0.0047  0.0890
19429W        W35563  17.529  17.420  11.668 -0.2544  0.3072  0.0945
19430W        W35564  14.163   2.025  11.214  0.1759 -0.0777  0.2561
19431W        W35565   7.980   2.926  11.448  0.2690  0.1036 -0.1301
19432W        W35566   5.467  17.565   5.195 -0.0733 -0.1318 -0.2027
19433W        W35567   2.869  16.437  13.702 -0.1075  0.0387  0.2059
19434W        W35568   7.977  14.803  11.387  0.2354 -0.2228  0.1323
19435W        W35569   8.163  10.000  11.829 -0.2189  0.0969 -0.0116
19436W        W35570   5.282  11.372  11.323  0.3556 -0.1191  0.2515
19437W        W35571   8.226   5.553   3.423 -0.0093 -0.2046  0.0605
19438W        W35572   6.157  16.170  15.758 -0.1114 -0.0407 -0.0293
19439W        W35573  11.226   7.220   4.561 -0.2506  0.0945  0.3433
19440W        W35574  14.721  13.061   4.457 -0.1542  0.1155 -0.3334
19441W        W35575  14.221   6.703   0.686  0.1143 -0.2835  0.2254
19442W        W35576   3.477  12.852   3.916 -0.0395  0.2467 -0.4730
19443W        W35577   2.805  13.770  13.306 -0.3799  0.2392  0.2530
19444W        W35578   2.132   7.275   3.025 -0.0679 -0.0964  0.2273
19445W        W35579   5.957  14.318  11.555 -0.1147  0.1239  0.0813
19446W        W35580   7.579  12.588  14.723  0.1915 -0.0980  0.3420
19447W        W35581  16.423  17.340  14.894  0.0287  0.0610 -0.0454
19448W        W35582  10.222   9.167   2.818 -0.2247 -0.0834  0.2630
19449W        W35583   5.864  15.510  14.428  0.2306 -0.2058 -0.3473
19450W        W35584  11.044   9.922   6.638  0.0366 -0.1712 -0.1570
19451W        W35585  17.399   3.666   5.420  0.2258  0.1270 -0.0987
19452W        W35586   4.193  11.019   5.444  0.1495  0.0706  0.0831
19453W        W35587  18.228  12.305   1.770  0.1594 -0.1585  0.2307
19454W        W35588  17.106  11.085   3.013  0.0345  0.0190  0.0362
19455W        W35589  15.631  17.373  15.974 -0.1563 -0.0496 -0.1701
19456W        W35590   4.575  17.159   2.204  0.0551 -0.1942  0.1221
19457W        W35591   4.847  11.771  13.762  0.1532  0.2558  0.1016
19458W        W35592   3.494  12.977   1.698 -0.0662  0.0559  0.1245
19459W        W35593  13.388   9.120   0.836  0.3059 -0.1690  0.1189
19460W        W35594  12.358  11.804  12.354 -0.1356  0.0679  0.0979
19461W        W35595   2.636  16.759  14.044 -0.4388  0.0142  0.1025
19462W        W35596  15.521  15.928  12.310 -0.2344 -0.2290  0.0196
19463W        W35597   6.162   6.930   6.117 -0.1456  0.0943  0.2045
19464W        W35598  18.117   3.741   2.317  0.1555 -0.1846 -0.2618
19465W        W35599   9.157   0.129   1.431  0.1341  0.0710 -0.1135
19466W        W35600   8.863   6.203   5.816  0.1538  0.1206 -0.1401
19467W        W35601  11.358   1.573   3.234  0.0567  0.1747  0.1684
19468W        W35602   0.190  13.613  13.733 -0.1958 -0.0237 -0.3026
19469W        W35603   9.205  16.684  12.108  0.1476 -0.1729  0.2151
19470W        W35604  18.086   1.925  14.506 -0.0895  0.0044 -0.0301
19471W        W35605  16.190   1.016  13.819  0.3313 -0.0496 -0.1726
19472W        W35606  13.874  15.693  15.873  0.0740 -0.0753 -0.1391
19473W        W35607  12.791  15.896  14.907 -0.2476 -0.0533 -0.0367
19474W        W35608   6.407   2.465  12.707  0.0710  0.0830 -0.0672
19475W        W35609  13.816  11.493   4.896 -0.1569  0.3190 -0.0189
19476W        W35610   6.106   3.481  15.848 -0.1840 -0.1044 -0.0562
19477W        W35611  16.822   8.001   1.476 -0.3807  0.0647  0.0071
19478W        W35612  18.390  10.566   2.632  0.1214 -0.0544  0.2359
19479W        W35613   8.370  13.060   4.527  0.2380  0.1078  0.1290
19480W        W35614   7.301  17.261  12.705 -0.0054  0.0438  0.0585
19481W        W35615  10.496   4.176   3.066  0.0730  0.2205  0.1754
19482W        W35616   1.534  18.136  15.588  0.2748  0.1386  0.2972
19483W        W35617   6.938   4.106   3.305  0.1416  0.2662  0.3189
19484W        W35618  15.925  13.715  13.982  0.1155 -0.1092 -0.3727
19485W        W35619  11.887   7.817  12.174 -0.1318  0.0482  0.0879
19486W        W35620   2.098   8.202   4.278  0.1555 -0.0048 -0.0986
19487W        W35621  17.606   8.445   1.848 -0.0407 -0.3044  0.4093
19488W        W35622  12.609  12.549  12.103 -0.2637  0.0174 -0.3358
19489W        W35623  18.192   7.503  15.116  0.0697 -0.0299  0.1543
19490W        W35624   7.406   4.658  11.729 -0.1401 -0.0744  0.0766
19491W        W35625  15.379   6.335  12.170  0.0721  0.0983 -0.2723
19492W        W35626   1.317   4.860   3.015 -0.0972 -0.1224  0.1560
19493W        W35627   2.382  13.383  15.756 -0.2063  0.1018  0.3166
19494W        W35628  11.675   7.401   3.693  0.0949 -0.0213 -0.2979
19495W        W35629  11.896  14.792   3.204 -0.4196 -0.2424  0.1729
19496W        W35630  16.546   2.920   0.977 -0.1563  0.0018  0.1655
19497W        W35631  15.086  11.899   5.228  0.1135 -0.5275 -0.0241
19498W        W35632   5.221   5.220  15.835 -0.1894  0.0913 -0.0710
19499W        W35633   4.577  11.234  13.564 -0.0890  0.0084 -0.1011
19500W        W35634  10.756   9.755   3.341 -0.0195  0.3684 -0.1626
19501W        W35635   8.321   7.984  12.643 -0.0002  0.2427  0.1594
19502W        W35636  12.586  10.370   4.145 -0.0060  0.3931  0.2333
19503W        W35637  13.116   7.696   1.989 -0.1491  0.0889 -0.2504
19504W        W35638  17.832  12.045  15.777 -0.0176 -0.0341 -0.1301
19505W        W35639   2.034   4.813  14.802  0.1077 -0.0399  0.1213
19506W        W35640  13.686  13.900   3.536 -0.0473 -0.4250 -0.2550
19507W        W35641  15.149   6.073   5.980  0.1841  0.0213 -0.0675
19508W        W35642  16.411  17.300   2.831 -0.0757  0.0804 -0.0959
19509W        W35643   9.193   3.805  11.902 -0.5094 -0.3158  0.2877
19510W        W35644   4.465   6.334  10.486  0.2544  0.1674 -0.1372
19511W        W35645   1.162  15.405  12.623 -0.1215 -0.1046  0.0792
19512W        W35646  11.575  12.320  12.613 -0.3580  0.1822  0.1426
19513W        W35647   1.485  13.213  11.886 -0.1831  0.1234 -0.0739
19514W        W35648   8.504  16.895   5.339 -0.0176  0.2311  0.1503
19515W        W35649  15.476   1.782   3.315 -0.0859 -0.1620  0.0393
19516W        W35650  13.252  15.402   0.563 -0.0493 -0.0984  0.1661
19517W        W35651  16.561   9.207  12.913  0.1944 -0.0647 -0.2721
19518W        W35652  16.965   5.567   2.919  0.2807  0.4064  0.1099
19519W        W35653   2.567  11.942  12.367 -0.2662 -0.1999 -0.0771
19520W        W35654   3.981  11.904  10.549  0.1612 -0.0161 -0.2500
19521W        W35655   1.196  10.621  13.997 -0.0709  0.1506 -0.3510
19522W        W35656  17.588  15.291  14.794 -0.0368  0.1281 -0.1058
19523W        W35657   8.808   3.027  15.688  0.1856  0.0721 -0.0906
19524W        W35658   6.093  13.765   3.900  0.1736  0.0582 -0.1093
19525W        W35659   7.837   8.154  13.375  0.0884 -0.4336  0.1535
19526W        W35660  14.437   1.801  14.053  0.2707 -0.1041  0.0712
19527W        W35661   6.501   8.880   0.411 -0.0751  0.3667 -0.0605
19528W        W35662  17.266   2.820   4.377  0.1448 -0.1332 -0.1585
19529W        W35663   8.792   1.111  11.465 -0.1448 -0.2663 -0.1178
19530W        W35664  16.105  17.225  12.056 -0.1673 -0.3457  0.0111
19531W        W35665  17.419  12.795  16.027  0.3165  0.1478  0.2722
19532W        W35666  18.052   0.895  14.541  0.0386  0.2883 -0.0289
19533W        W35667   8.161  10.706  15.228  0.1849  0.0272 -0.2207
19534W        W35668  14.124  11.131   4.158 -0.0088  0.1450 -0.1050
19535W        W35669  16.428  14.286  10.653  0.1769  0.3365 -0.0170
19536W        W35670  13.077   6.708  15.985  0.2715  0.1238 -0.0839
19537W        W35671   3.288   3.611  11.185  0.2127  0.0614  0.0284
19538W        W35672   6.876   3.068   0.908  0.1237 -0.0374 -0.0775
19539W        W35673  12.296  13.366  14.466  0.1794 -0.0685  0.0820
19540W        W35674  13.723   4.713  14.848  0.1741 -0.1853 -0.2627
19541W        W35675   2.532  13.975  15.016  0.2469  0.2185  0.0313
19542W        W35676  16.961   6.387  12.264  0.2245  0.0906  0.0424
19543W        W35677   2.573  10.392  13.763 -0.0725  0.2414 -0.0002
19544W        W35678  15.615  11.642   3.936 -0.1341 -0.1269  0.1147
19545W        W35679   3.688   1.315   4.337 -0.0016 -0.0102  0.1170
19546W        W35680   0.587  10.993  11.474  0.1195 -0.1339 -0.1130
19547W        W35681   7.667  10.709  11.503  0.0358  0.0533  0.1793
19548W        W35682  18.009   1.826  14.966  0.1553  0.0632 -0.0885
19549W        W35683   2.382   9.212  14.664  0.0444  0.0929  0.1346
19550W        W35684  17.020   9.079   4.125 -0.0885 -0.0034 -0.1552
19551W        W35685  10.593   0.659  12.449 -0.0128 -0.1503 -0.2973
19552W        W35686   9.206   9.154  12.731  0.2731 -0.0773 -0.1409
19553W        W35687   1.027  15.201  11.711  0.0004 -0.0753  0.0062
19554W        W35688  10.167   8.970   1.498  0.3539  0.0726 -0.1332
19555W        W35689  13.054   8.982   4.185 -0.1561  0.4173 -0.3353
19556W        W35690   9.519  14.332   1.735  0.1405  0.2152  0.2108
19557W        W35691   6.516   1.527   3.529  0.0299 -0.3195 -0.2105
19558W        W35692  11.894   8.159  13.079  0.0442 -0.1264  0.1708
19559W        W35693   5.423  16.691   6.086 -0.4566 -0.1036 -0.2534
19560W        W35694   4.951   9.676  13.337 -0.2606  0.1249  0.2109
19561W        W35695   7.665  11.284  12.911  0.0217  0.0306 -0.1368
19562W        W35696  17.689   6.995  14.299  0.0327 -0.0752 -0.0461
19563W        W35697  17.989  16.967  15.440  0.1967 -0.4067 -0.1051
19564W        W35698   3.739  14.216   3.095 -0.1068 -0.0977 -0.0561
19565W        W35699  14.817   4.275   4.276 -0.0597 -0.2686 -0.2666
19566W        W35700   9.109   4.068   2.499 -0.0941 -0.1040  0.0267
19567W        W35701   2.191  16.703  12.249 -0.1911 -0.2017 -0.0128
19568W        W35702   9.493  17.639   3.585  0.0324  0.4180  0.2390
19569W        W35703  16.155  12.362  15.301  0.2624  0.3072 -0.2198
19570W        W35704   7.915  11.926  15.296 -0.1259  0.1150 -0.1890
19571W        W35705  12.514   6.467   1.722 -0.1983 -0.1283 -0.0706
19572W        W35706  14.663   7.977   3.769 -0.0713  0.1069 -0.1743
19573W        W35707  16.699   0.951   3.417  0.1051 -0.1245 -0.3712
19574W        W35708  13.015   7.856  14.866  0.0283  0.1988 -0.3046
19575W        W35709   1.286  13.538  16.080 -0.0603  0.2895 -0.0014
19576W        W35710   8.827  16.128   0.545  0.4379  0.2155  0.0534
19577W        W35711   0.820   5.926   9.398 -0.2361 -0.1741 -0.1184
19578W        W35712   6.943  17.393   2.750  0.2092 -0.3965  0.0521
19579W        W35713   1.869   4.170  11.694  0.0212 -0.1319 -0.0336
19580W        W35714   9.787  14.917  14.998  0.2513  0.0676 -0.0822
19581W        W35715  13.855   9.023   3.991  0.1405 -0.3232  0.0195
19582W        W35716  15.887   9.546  15.130 -0.0601 -0.0860  0.3511
19583W        W35717  10.747   4.772   2.516 -0.0023  0.0210  0.0560
19584W        W35718  12.440  16.841   1.561  0.1953 -0.0146 -0.1452
19585W        W35719  18.358  10.517  11.543 -0.2219  0.3342  0.3654
19586W        W35720  11.022   3.599  13.961  0.0537  0.0506  0.1979
19587W        W35721   0.661  12.064  13.872 -0.1065 -0.1253 -0.0855
19588W        W35722   4.714  16.472   3.859  0.0255 -0.3060  0.3635
19589W        W35723   3.981  12.026   3.489 -0.0287 -0.1043  0.2211
19590W        W35724  11.892   6.296   4.249 -0.0378  0.2112 -0.5831
19591W        W35725   9.725   5.329  12.146 -0.1184  0.0342 -0.0702
19592W        W35726   3.753  11.276  11.298 -0.1393  0.3227  0.2678
19593W        W35727   1.646   4.288   0.591  0.2239 -0.0898 -0.4091
19594W        W35728   1.093  10.010   1.313  0.1464 -0.2612  0.0492
19595W        W35729   8.860   3.853  14.726 -0.0864  0.0699  0.1124
19596W        W35730  10.366   7.150  14.895 -0.1587  0.2448 -0.2928
19597W        W35731   7.407   0.594  15.762 -0.0337  0.1626 -0.2099
19598W        W35732   8.006   6.790   3.216  0.3112  0.0016 -0.1581
19599W        W35733   3.816   6.744   3.845  0.1794 -0.0819  0.1675
19600W        W35734  13.350   1.940   0.902  0.3636  0.0543 -0.0343
19601W        W35735  11.983   1.034   2.845  0.0135  0.3013  0.0606
19602W        W35736   7.244   4.242   4.708 -0.0016 -0.0895  0.0302
19603W        W35737   8.492   5.265  12.546  0.2019  0.0065 -0.0667
19604W        W35738   9.686   7.323   1.826 -0.1059  0.1603  0.3120
19605W        W35739   9.056   3.289  11.864  0.2553 -0.2320 -0.0222
19606W        W35740  10.576  17.726   4.920 -0.1686 -0.0040 -0.1491
19607W        W35741   7.751   9.580  14.649  0.0078  0.1206  0.2388
19608W        W35742  10.088   7.683  12.927 -0.2088 -0.3533  0.1408
19609W        W35743  13.230   8.267  11.178 -0.3087 -0.2071  0.0258
19610W        W35744  18.020  12.020  11.246 -0.2611 -0.1194  0.0924
19611W        W35745  12.169   4.908  15.605  0.3328  0.0518  0.3169
19612W        W35746   2.089  17.340   0.146  0.0979  0.0589 -0.0092
19613W        W35747   2.979  16.758   4.632  0.1513 -0.0635 -0.2091
19614W        W35748   9.201  15.661  12.902 -0.2827 -0.2856 -0.0766
19615W        W35749   6.095   4.304  14.854  0.2606 -0.1100 -0.0287
19616W        W35750  14.294  13.931  14.768  0.3889  0.1350 -0.1939
19617W        W35751  13.892  14.423   0.881 -0.0414  0.0869 -0.1728
19618W        W35752  17.413  17.173  12.072  0.0915  0.3659 -0.0683
19619W        W35753  10.463  16.418  15.117  0.0475  0.0845 -0.4083
19620W        W35754   5.174   7.285  14.219 -0.2885  0.0465 -0.1308
19621W        W35755   7.443  16.604   3.316 -0.0009 -0.0431 -0.1242
19622W        W35756   1.684   1.338   0.853 -0.0711 -0.2629  0.0869
19623W        W35757   2.876  16.984   1.075  0.2299  0.0777  0.2721
19624W        W35758   8.452   4.621   0.360  0.0887 -0.0333  0.0621
19625W        W35759   9.891   5.665  11.659 -0.0655  0.0042  0.0940
19626W        W35760   8.645  17.244   5.776 -0.0031 -0.0521 -0.0049
19627W        W35761   7.504  15.017  12.640  0.0514 -0.0160 -0.2914
19628W        W35762  17.337  17.965  12.607  0.1031 -0.3457  0.2415
19629W        W35763  17.391  12.707  14.172  0.2871  0.1970  0.0743
19630W        W35764  10.407   4.236  10.699 -0.1930 -0.1657  0.1267
19631W        W35765  10.803  17.167   1.955 -0.0627 -0.0930 -0.3370
19632W        W35766   0.366  18.328  15.519  0.1481 -0.2314 -0.3812
19633W        W35767  10.187   6.939  14.165  0.1115  0.0337  0.0361
19634W        W35768   2.097  11.376   2.967  0.1116 -0.2344  0.1120
19635W        W35769   3.490   0.708  15.889 -0.3437  0.0367 -0.0359
19636W        W35770   4.797   2.667  14.870 -0.0009  0.0215  0.0077
19637W        W35771  16.115  17.946   1.931 -0.2229  0.1209 -0.1824
19638W        W35772   3.370  17.655  13.935  0.1060  0.2850 -0.0939
19639W        W35773   3.829   9.906  12.718 -0.0448  0.2881  0.0697
19640W        W35774  10.214  16.263   4.273 -0.3788 -0.2071 -0.1134
19641W        W35775   6.351  17.663   4.236  0.0095  0.1825  0.1835
19642W        W35776  11.045   3.488  11.624  0.2845  0.3348 -0.2269
19643W        W35777  14.942  11.951   4.332  0.0057  0.0303 -0.3786
19644W        W35778   1.453  11.944   2.741 -0.1690 -0.1900 -0.3376
19645W        W35779   4.291   2.865   2.423 -0.1368  0.3259  0.1463
19646W        W35780  16.329   6.631  13.143  0.1496  0.0912  0.1016
19647W        W35781  10.181   8.428   3.377  0.0019  0.0853  0.1137
19648W        W35782  15.842   1.140   0.270  0.0634  0.0627  0.1193
19649W        W35783   1.106  15.735   1.420 -0.1982 -0.1786  0.0794
19650W        W35784  12.403  13.272   4.998 -0.1887  0.0155  0.2117
19651W        W35785  16.598  12.430   3.526 -0.2225 -0.1576 -0.0484
19652W        W35786   9.507  16.455   1.099 -0.0642 -0.0089 -0.0744
19653W        W35787   6.696   4.036   0.821 -0.0123  0.0949  0.1341
19654W        W35788   0.936   0.551   2.170  0.0874 -0.1941  0.3393
19655W        W35789  16.470  15.676  11.098 -0.2045 -0.1896 -0.1503
19656W        W35790  14.239  12.730  15.486 -0.0005  0.2243  0.2669
19657W        W35791  16.357   5.057   3.550  0.1604  0.1552  0.1902
19658W        W35792  11.290   0.625   5.782  0.3025  0.0038 -0.2023
19659W        W35793  17.341   7.677  13.082 -0.3361 -0.0713 -0.0465
19660W        W35794  10.219   3.276  15.234 -0.1486  0.0391  0.1524
19661W        W35795  11.521   2.012  12.817 -0.1835 -0.0086 -0.0422
19662W        W35796  11.410  10.871  12.056 -0.2213 -0.0217 -0.0684
19663W        W35797  12.159  13.047   2.265  0.0183  0.0686 -0.0849
19664W        W35798   1.988  13.197  16.023 -0.2289  0.3466  0.1297
19665W        W35799   6.176  15.003   5.230 -0.1411  0.0813 -0.2100
19666W        W35800   9.124  11.234  14.184 -0.1581 -0.2733  0.2437
19667W        W35801   4.659  17.833   4.119 -0.0620 -0.0121 -0.0175
19668W        W35802   4.778   6.227   1.293 -0.6543  0.2289  0.0490
19669W        W35803   5.328  17.812  15.597  0.0414  0.0352 -0.0225
19670W        W35804  16.016   6.372   4.058  0.0984 -0.0219 -0.0325
19671W        W35805   7.115  15.833  14.708 -0.0585  0.2216 -0.1806
19672W        W35806  16.942   6.459  13.207 -0.1898  0.0136 -0.3847
19673W        W35807   0.964   3.063  13.441 -0.2393 -0.0258 -0.1094
19674W        W35808   8.476  10.259   5.054  0.3399 -0.0321 -0.0128
19675W        W35809  12.335  10.434   5.683 -0.0556 -0.1670 -0.0974
19676W        W35810   5.725   4.845   5.944  0.1051  0.1069 -0.0444
19677W        W35811   4.387   2.430  14.667  0.0236 -0.3829  0.0459
19678W        W35812   2.659   9.718  12.752 -0.1959  0.0602 -0.2608
19679W        W35813  17.009  15.269   0.242  0.2224  0.2382 -0.3995
19680W        W35814  11.233   4.684  12.860 -0.2174  0.1015  0.0799
19681W        W35815  10.875   0.266  13.061 -0.1624 -0.2080  0.1038
19682W        W35816   2.738   8.017  15.962  0.0511  0.3704  0.2101
19683W        W35817   7.651  10.227  11.594 -0.0624  0.0272  0.5459
19684W        W35818  14.316   1.196   4.812 -0.1956 -0.1057 -0.1047
19685W        W35819  18.270   8.985  12.057 -0.2122 -0.4662  0.1721
19686W        W35820   3.942  11.747  11.715 -0.0596 -0.0193 -0.1128
19687W        W35821  15.630  18.252  15.686  0.0861 -0.2149 -0.0061
19688W        W35822  15.337  18.209   5.043 -0.1066 -0.0602 -0.1571
19689W        W35823  13.726   0.385   2.213  0.0493  0.1168 -0.1619
19690W        W35824   6.363   9.016   4.668  0.0459 -0.1484  0.1118
19691W        W35825   2.907  12.940   3.250 -0.1043  0.1041 -0.0978
19692W        W35826  18.092   1.951  12.684 -0.1696 -0.1660  0.1315
19693W        W35827   2.025   5.192  15.618  0.0521  0.2231 -0.1284
19694W        W35828  11.257  13.359   0.533  0.3703  0.1807 -0.1621
19695W        W35829  12.304   8.425   4.374  0.0548  0.0017 -0.1767
19696W        W35830  11.119  17.034  15.504  0.0991 -0.0432  0.0754
19697W        W35831   2.652  15.453   0.739 -0.0145 -0.3800 -0.1330
19698W        W35832   4.378   1.064   4.884  0.0394 -0.0078 -0.2090
19699W        W35833   2.938  12.731  12.073  0.1907  0.0725  0.0377
19700W        W35834   6.631   2.741   0.120  0.0154  0.1706 -0.3984
19701W        W35835   5.117   7.275   3.707  0.0701 -0.1716 -0.1487
19702W        W35836  12.060  13.121  12.787  0.0506  0.2117  0.2602
19703W        W35837   6.797   6.337   3.769 -0.0861  0.2158  0.0037
19704W        W35838  13.118  13.555   4.397 -0.1970 -0.2256  0.0830
19705W        W35839   8.296  11.362   2.321 -0.0765 -0.0960  0.0173
19706W        W35840  10.938   9.332   0.281 -0.0058  0.0568 -0.1483
19707W        W35841   1.142   7.334  14.918  0.1015 -0.0793  0.1657
19708W        W35842   8.706   3.499  15.523  0.0770 -0.1744  0.1295
19709W        W35843   0.251  17.112  12.887  0.0676  0.1914  0.1378
19710W        W35844  17.079   1.174   3.653 -0.0899  0.0395  0.1785
19711W        W35845   2.274  16.148   2.022  0.1109  0.3564  0.2592
19712W        W35846   4.648  10.707   3.842 -0.3418  0.2558 -0.1465
19713W        W35847  10.206   6.841   1.117  0.0208  0.4864  0.1125
19714W        W35848  14.935  15.707   4.673 -0.0215 -0.1941  0.0430
19715W        W35849   7.935  15.070   5.213 -0.2723 -0.0404  0.0458
19716W        W35850  16.153   8.690   3.755 -0.3459  0.2198  0.0321
19717W        W35851  12.930  17.350   0.316 -0.1290  0.0836 -0.3516
19718W        W35852  10.093   5.909   5.078  0.1434 -0.0523 -0.2502
19719W        W35853  17.983   5.138   0.722 -0.2287 -0.1447  0.1266
19720W        W35854   6.082   3.461   4.526  0.4508 -0.1299 -0.3075
19721W        W35855  16.522   2.188   4.926  0.1376 -0.1417 -0.2378
19722W        W35856  15.610   9.448  11.676  0.1093 -0.1313  0.0858
19723W        W35857  17.292   6.838   3.056 -0.3231 -0.2114 -0.1751
19724W        W35858  17.397   7.669  14.404  0.0534 -0.2284  0.3746
19725W        W35859   1.672   2.613   4.715  0.2942  0.2828 -0.3498
19726W        W35860  10.746   7.154   4.836 -0.1783  0.1450  0.2795
19727W        W35861  14.438   9.640  14.227  0.0490  0.2717  0.0746
19728W        W35862  14.010  13.402  13.609 -0.2591  0.1965 -0.0303
19729W        W35863  15.393  16.643   5.418 -0.2649  0.2055  0.0884
19730W        W35864  18.480  13.365  10.353  0.2543  0.4325 -0.3881
19731W        W35865  16.498   8.958  11.467  0.0419  0.0651 -0.0719
19732W        W35866  11.855  13.916  15.322 -0.0787  0.1360 -0.5833
19733W        W35867  16.945   5.134  10.466 -0.0448 -0.1221 -0.0871
19734W        W35868   2.696   9.618  15.425 -0.1198  0.1777  0.1157
19735W        W35869   7.822  18.197   5.493  0.3126 -0.2895 -0.2260
19736W        W35870   6.465   4.307  12.141 -0.1539 -0.0195  0.2940
19737W        W35871  17.402  18.042  13.950 -0.1590 -0.1276  0.0899
19738W        W35872  14.899  13.676  13.567 -0.0064 -0.1795 -0.1333
19739W        W35873  15.830  15.508  12.366  0.0675  0.1656 -0.0296
19740W        W35874   2.084  16.791   5.186 -0.3816  0.1270  0.2316
19741W        W35875  16.426  14.453  14.352  0.0040 -0.0980 -0.6334
19742W        W35876   2.838  14.752  11.439  0.1858 -0.1846 -0.0586
19743W        W35877  14.096   3.409  14.600 -0.0193 -0.1665  0.0473
19744W        W35878  11.436  18.145   5.959  0.0989 -0.0084 -0.0075
19745W        W35879  17.734   9.041   3.676 -0.2738  0.2279  0.2738
19746W        W35880   0.978   2.033  11.790  0.1005  0.0683  0.1170
19747W        W35881   9.524  15.906   1.816 -0.3067  0.0463 -0.0965
19748W        W35882   3.601   7.666  14.860 -0.1099  0.1579 -0.1265
19749W        W35883   2.647   7.108   2.400  0.0533  0.1883 -0.1344
19750W        W35884   7.246   0.531   4.179 -0.0793  0.0186 -0.0364
19751W        W35885  15.867   4.944  10.648  0.1231  0.1322  0.1845
19752W        W35886   9.863  11.792   4.109 -0.0450 -0.3125  0.0221
19753W        W35887  18.205  11.738   3.644 -0.1163  0.5176  0.0375
19754W        W35888  12.575  18.325   3.968  0.1290  0.0445  0.0424
19755W        W35889  12.989   1.316  14.517  0.0129  0.0038 -0.1153
19756W        W35890  11.908   9.326   3.155 -0.0281 -0.2761 -0.0421
19757W        W35891   5.863   9.979  15.435  0.0849 -0.4063 -0.2067
19758W        W35892   2.176   3.744   1.763  0.3569  0.0036  0.2355
19759W        W35893   5.052  16.428  13.443  0.1904  0.2383 -0.0747
19760W        W35894   2.035   7.549   0.793 -0.4659  0.0160 -0.2220
19761W        W35895  17.646   8.507  11.914 -0.2369  0.0413  0.1618
19762W        W35896   6.273  11.906   1.542  0.2466 -0.1340  0.2940
19763W        W35897  11.139   7.167   2.098 -0.1014  0.1501  0.0313
19764W        W35898   2.695   7.859   1.759  0.0478  0.3686 -0.1346
19765W        W35899  12.490   5.797  13.001  0.0340  0.4741 -0.0425
19766W        W35900  10.118  14.119   3.108 -0.3462  0.0436  0.0184
19767W        W35901   9.551  16.580   3.073 -0.2473  0.1041 -0.3051
19768W        W35902   6.242   1.778   0.380  0.2092  0.3742 -0.0950
19769W        W35903   0.273   9.464   2.070  0.1495 -0.3761  0.0730
19770W        W35904   2.213  13.880  16.023 -0.0903  0.0193  0.0927
19771W        W35905  13.330   8.270  14.716  0.1691 -0.0870  0.0893
19772W        W35906   2.173  18.049   5.665 -0.1973 -0.0419 -0.1001
19773W        W35907  17.029   9.413   3.288 -0.0255  0.1336 -0.0645
19774W        W35908   6.990   3.855   2.156  0.4020 -0.2471  0.0655
19775W        W35909   3.489   3.911   1.190  0.0804 -0.1137  0.2298
19776W        W35910   9.380   3.408   5.864  0.0949  0.1658  0.2437
19777W        W35911   1.532  16.907   5.548 -0.0302  0.0321 -0.1577
19778W        W35912  10.174  17.935   2.240  0.1528 -0.1851 -0.1760
19779W        W35913  11.376  12.906   3.731 -0.0680  0.0056  0.0634
19780W        W35914   0.244  17.886   4.833  0.0924  0.0423  0.0842
19781W        W35915  12.020   4.486   5.027 -0.1999 -0.1000 -0.4947
19782W        W35916  17.523  17.467  15.458  0.1834  0.0813  0.1042
19783W        W35917  12.360  16.889  14.125 -0.0280  0.1872 -0.2966
19784W        W35918  16.186  17.897   5.352 -0.2852 -0.0734  0.0996
19785W        W35919  13.239   1.844  12.606  0.2929 -0.0834  0.0277
19786W        W35920   1.356   0.249  11.766  0.1524 -0.1105  0.0353
19787W        W35921  10.493   1.707   0.622 -0.0283 -0.0594  0.2722
19788W        W35922  15.106   4.573   2.407 -0.1727  0.2182  0.2133
19789W        W35923  13.256   7.867  13.696  0.0596  0.2121  0.0151
19790W        W35924   9.693  10.688   1.109 -0.1413  0.0146  0.0357
19791W        W35925  10.963   2.329   1.681 -0.1849 -0.2628  0.0326
19792W        W35926  12.996   4.017   5.776  0.1086 -0.3990 -0.1782
19793W        W35927  11.979   8.798   2.659 -0.2200 -0.3582  0.1039
19794W        W35928   5.401  16.174  15.142 -0.0679  0.3522  0.0919
19795W        W35929   5.495   2.780   5.053 -0.1144 -0.3094  0.1493
19796W        W35930   9.267   0.671   0.499  0.1938 -0.0280  0.2350
19797W        W35931  10.856   9.978   6.158 -0.1646 -0.0644 -0.2371
19798W        W35932   8.500   3.845   0.377 -0.0342 -0.0684 -0.0990
19799W        W35933   6.703   3.810   0.293 -0.0878  0.0923 -0.1178
19800W        W35934   0.461   3.711   4.122  0.1114 -0.2303  0.0741
19801W        W35935   7.588  16.896   0.114  0.1793 -0.0232 -0.1260
19802W        W35936   2.809  12.418   4.385  0.0136  0.0348  0.3017
19803W        W35937  11.701   2.310  15.166 -0.2494  0.0600  0.2024
19804W        W35938   8.215  13.595   1.855  0.0087 -0.2266  0.1554
19805W        W35939  10.728  11.244   4.260  0.0744 -0.0580 -0.0744
19806W        W35940  17.939   4.819   5.434 -0.1640  0.0059  0.0699
19807W        W35941  10.617   2.118   3.904 -0.1160  0.1190  0.2927
19808W        W35942  15.177  17.601   5.034  0.0830 -0.0708  0.0155
19809W        W35943  13.718  17.445  11.136 -0.0225  0.1018 -0.0359
19810W        W35944   8.234  10.081  15.665  0.0730 -0.0930  0.2354
19811W        W35945  14.138  10.553   1.394  0.1463  0.2902  0.0443
19812W        W35946   8.349   0.726   1.841  0.2291 -0.2282 -0.0148
19813W        W35947   0.710   8.021  15.294  0.0524  0.3840 -0.0528
19814W        W35948   7.265  15.316  11.088 -0.0644 -0.1186  0.3693
19815W        W35949   7.468   3.004   2.665 -0.1076 -0.0100 -0.3241
19816W        W35950  14.585  17.558   3.139  0.0299 -0.2420 -0.2375
19817W        W35951  13.712   8.098  13.179  0.0022  0.2520  0.1598
19818W        W35952   4.936  15.435   0.689  0.3276  0.1675  0.0410
19819W        W35953   1.157   9.634  14.838  0.0203  0.0406 -0.2126
19820W        W35954   8.937  12.942   3.296 -0.2440 -0.0012 -0.1202
19821W        W35955   3.981   3.594   1.101  0.2428  0.2084  0.0524
19822W        W35956   1.252  18.150   3.512 -0.1976  0.1207 -0.0999
19823W        W35957   7.855   3.257  14.080  0.0878 -0.1846  0.0731
19824W        W35958   7.600   5.097  15.434 -0.4127 -0.2710  0.0815
19825W        W35959  16.409  17.348   1.066 -0.4364 -0.0101 -0.1425
19826W        W35960   6.858   1.599   4.806  0.1191  0.0944  0.4626
19827W        W35961  17.921   1.102  13.013  0.0169 -0.1695  0.0846
19828W        W35962   4.441   5.939  14.851  0.2394  0.4132 -0.1970
19829W        W35963   1.925  12.356   2.486  0.3973  0.2857 -0.2439
19830W        W35964  16.471   8.343  14.351  0.1685  0.2060  0.1187
19831W        W35965  13.178   1.775   1.411  0.0233  0.2193  0.1013
19832W        W35966   5.146  16.864   1.796  0.0572  0.0524  0.0090
19833W        W35967  10.568  13.585   4.801  0.1956  0.0789  0.1024
19834W        W35968   3.196  10.120  11.948 -0.3158 -0.1656 -0.0530
19835W        W35969   1.621   1.810   0.937 -0.2008 -0.2486  0.2849
19836W        W35970  15.484  14.421  15.559  0.4262  0.0302  0.0398
19837W        W35971  15.571  14.607   4.393  0.0691 -0.0592  0.0673
19838W        W35972   8.149  18.234  16.050  0.0696  0.2773 -0.4304
19839W        W35973  18.304   5.264  10.756  0.0786 -0.2739  0.1349
19840W        W35974   4.980  11.809  15.769 -0.2308  0.0859  0.0546
19841W        W35975   6.385  13.552  15.480 -0.0174  0.3917  0.2961
19842W        W35976  18.349   4.546   5.631 -0.0208 -0.3453 -0.1142
19843W        W35977   0.239   3.787   5.236 -0.0892 -0.2634 -0.1729
19844W        W35978  15.824   6.990   0.471  0.1147  0.0190 -0.1500
19845W        W35979  14.563   9.627   3.864  0.1527  0.2449  0.0248
19846W        W35980   2.086   1.673  12.390  0.1921 -0.0282 -0.1225
19847W        W35981   9.257   7.692  14.614 -0.0773  0.0829  0.1007
19848W        W35982   4.419  18.433   0.347  0.3471  0.0398  0.0604
19849W        W35983   5.699  14.443  10.251  0.1673  0.1002  0.0575
19850W        W35984   0.986  17.965   4.392 -0.0022 -0.2798 -0.0661
19851W        W35985  11.722   8.585  11.575  0.0705  0.0006 -0.0082
19852W        W35986  16.751   6.670   2.930  0.2701 -0.0028 -0.3662
19853W        W35987   7.328  11.383  13.319  0.1397  0.1218 -0.1120
19854W        W35988   1.855  17.424  15.769  0.0343  0.4035  0.1494
19855W        W35989   3.451   5.073  11.379  0.0617 -0.0592  0.1059
19856W        W35990   2.772  16.671  15.827  0.1102  0.2570  0.0079
19857W        W35991  12.957   4.449   2.733 -0.1267 -0.0019  0.0861
19858W        W35992   4.622   2.575  12.757 -0.1517 -0.1014  0.2149
19859W        W35993  11.769   6.287   3.330 -0.0738 -0.6487 -0.2122
19860W        W35994   3.818   6.031   4.993  0.2435  0.0842 -0.0663
19861W        W35995   6.243  18.043  12.430  0.1369 -0.3930 -0.0656
19862W        W35996   8.588  10.545   4.138  0.3695  0.1139  0.2067
19863W        W35997   2.525   7.652   1.160 -0.2707  0.2250  0.0110
19864W        W35998   1.895   2.156   4.609 -0.2079  0.2016 -0.5170
19865W        W35999   3.667  10.904   0.428  0.1894  0.2657 -0.0925
19866W        W36000  10.620   2.943   6.048  0.1348  0.1062  0.1790
19867W        W36001  15.381  11.221  11.279 -0.0559  0.1000  0.1130
19868W        W36002   0.123   1.768   2.546  0.0144 -0.1582 -0.1135
19869W        W36003   7.181   4.419   2.877 -0.1113 -0.0187  0.0330
19870W        W36004  17.122  14.163  10.007 -0.1390 -0.0577  0.0405
19871W        W36005  15.514   3.913  11.672 -0.0840  0.1753  0.3254
19872W        W36006  13.271  10.543   4.984  0.0010 -0.1281  0.0814
19873W        W36007   6.370   6.697   3.291 -0.0566 -0.0927  0.2322
19874W        W36008   7.817  15.891   3.704 -0.0922 -0.3423  0.0193
19875W        W36009  15.882  15.796   0.095  0.3254 -0.3259  0.3869
19876W        W36010  13.351   1.609  15.375  0.1602 -0.1966  0.0829
19877W        W36011  10.567  18.255   1.325 -0.2193 -0.1780 -0.0596
19878W        W36012   3.670  18.422  13.172 -0.0998 -0.2738  0.0791
19879W        W36013   9.724   6.934  12.894 -0.1898 -0.2125  0.0989
19880W        W36014  14.276   6.955   3.073  0.1145  0.0467  0.0671
19881W        W36015  10.811   0.083  15.916  0.0245 -0.1574  0.2934
19882W        W36016   7.520   1.976  16.082 -0.0082 -0.5675  0.0766
19883W        W36017   4.161   4.617  14.431 -0.2045  0.1004  0.0665
19884W        W36018   2.343   1.470  13.750 -0.0832 -0.5598 -0.0308
19885W        W36019  10.594   6.323   0.527 -0.0927  0.0417  0.2720
19886W        W36020   1.180  12.714   3.968 -0.1473  0.0827  0.1775
19887W        W36021  10.382  15.588  14.545 -0.2516 -0.1473  0.3189
19888W        W36022   6.486   1.366  15.740  0.2573 -0.2395  0.2665
19889W        W36023  15.719  15.649   0.528 -0.3863 -0.0945 -0.0921
19890W        W36024   1.925   8.390  10.833 -0.3350 -0.2530 -0.0250
19891W        W36025   8.946   4.887   4.929  0.1557 -0.1015  0.1424
19892W        W36026   6.439  15.398  14.560  0.0574  0.0065 -0.0168
19893W        W36027   2.216   3.609  12.041  0.3034  0.1556 -0.1207
19894W        W36028  11.267  13.787  12.206  0.2523 -0.1021  0.2326
19895W        W36029  17.829   8.229  10.604 -0.0739  0.0205 -0.0915
19896W        W36030   6.172   5.036   4.552  0.3080  0.0407 -0.0214
19897W        W36031   7.787   7.964   3.973 -0.1697 -0.0516 -0.0210
19898W        W36032  17.289  15.732   0.869 -0.1453  0.1109  0.1245
19899W        W36033   8.898   6.420   2.604  0.1786 -0.2370 -0.3654
19900W        W36034  12.087   0.363   3.423 -0.1493 -0.1624  0.1446
19901W        W36035  16.781   2.644  11.527 -0.1214  0.0557  0.2870
19902W        W36036   9.484   5.502   4.456 -0.0063 -0.3315  0.3964
19903W        W36037   8.828   6.713   5.759  0.0279  0.2887 -0.0822
19904W        W36038   4.075   3.900   0.301  0.0009  0.4389 -0.1596
19905W        W36039  13.453   5.007   1.066 -0.0894 -0.0922 -0.0876
19906W        W36040   9.521   7.584   0.361 -0.0602 -0.0351 -0.1313
19907W        W36041   2.116   2.153  12.751 -0.1457 -0.1533 -0.2518
19908W        W36042   7.580   1.317   2.913 -0.3048  0.0431 -0.1032
19909W        W36043   0.301   8.277  10.393  0.4383  0.0410 -0.2566
19910W        W36044   0.638  13.211  14.201 -0.1078 -0.0456  0.0874
19911W        W36045  16.624  15.058   2.163  0.1564 -0.1089 -0.1784
19912W        W36046   8.654   1.885  12.199  0.0381 -0.3907 -0.2734
19913W        W36047   8.183  17.015   5.743  0.0054 -0.0988  0.0682
19914W        W36048   3.739   8.712  11.147 -0.4816  0.0224  0.2828
19915W        W36049   1.692   5.385  13.499 -0.1588  0.0858 -0.0616
19916W        W36050   0.208  16.130   1.472  0.1387 -0.1560 -0.0152
19917W        W36051  10.728   9.730   2.655 -0.2219  0.1627 -0.1263
19918W        W36052  11.092  16.471   4.033 -0.0115  0.0403 -0.0736
19919W        W36053  18.062  13.449   0.910 -0.3183  0.4637 -0.1055
19920W        W36054   3.022  15.341  12.926  0.0979 -0.0353  0.2067
19921W        W36055   0.837  10.396  10.722 -0.1934  0.2789  0.1236
19922W        W36056  17.061  13.505  13.166  0.1546  0.1638 -0.1584
19923W        W36057   5.924   3.961   4.467  0.0811  0.0841 -0.3795
19924W        W36058   3.518   0.131  10.757  0.0386  0.0608  0.1043
19925W        W36059  17.227   8.700  15.851 -0.1241  0.0248  0.0593
19926W        W36060  16.149   0.314   1.043 -0.1396 -0.2447 -0.3867
19927W        W36061  14.253  18.174   1.676 -0.1168  0.2585  0.1910
19928W        W36062   6.366  11.348   3.981 -0.1414 -0.0535 -0.1250
19929W        W36063  14.963   2.561  10.872 -0.1083  0.0811 -0.2725
19930W        W36064   3.588   2.903  14.194 -0.0783 -0.0404 -0.1877
19931W        W36065   4.137   9.265   0.757 -0.1109 -0.3552  0.0464
19932W        W36066  10.951   7.570   5.775 -0.0566 -0.0473 -0.0781
19933W        W36067  17.813   8.671   4.885 -0.0954  0.3016  0.0923
19934W        W36068  16.039  13.872  10.916  0.0462  0.0916  0.0191
19935W        W36069   6.368  13.620   4.362  0.2421 -0.0509 -0.1043
19936W        W36070   7.956   5.907   1.473 -0.3104 -0.0780  0.5345
19937W        W36071  12.446   9.439   4.784  0.1630 -0.0685  0.0363
19938W        W36072   1.692  17.052  13.528 -0.1399  0.2652  0.1404
19939W        W36073   2.370  16.879   0.125  0.0693 -0.2232  0.0395
19940W        W36074   6.203  14.141   0.119  0.1037 -0.1120  0.0686
19941W        W36075   6.334  17.190   1.993  0.3038 -0.0852  0.0936
19942W        W36076  11.765   2.731   2.042 -0.0476 -0.2557  0.3397
19943W        W36077   0.596  16.576  15.866 -0.1485  0.0562  0.1128
19944W        W36078  11.973   7.451   2.624 -0.3458 -0.2687 -0.0427
19945W        W36079  15.500  16.183   2.841 -0.1385  0.0996  0.2616
19946W        W36080  11.470  11.578   0.840 -0.0878 -0.0442  0.1150
19947W        W36081  15.479   9.305  15.085  0.4303 -0.2329  0.2020
19948W        W36082   9.474  17.350   6.029 -0.0556  0.0498 -0.2836
19949W        W36083  14.497   1.070  15.702  0.0710  0.1374  0.1688
19950W        W36084   0.125  17.430   1.421  0.1055  0.1140  0.2225
19951W        W36085  12.424   1.352  15.981 -0.0703  0.2407  0.0056
19952W        W36086   1.646   4.317  15.886  0.0291  0.0910 -0.2369
19953W        W36087  17.335  14.809   4.232  0.0129  0.1067 -0.2135
19954W        W36088   9.860   5.133   2.319  0.0635  0.1466 -0.0564
19955W        W36089  16.468   2.352   4.328 -0.0366 -0.1679  0.3889
19956W        W36090   8.264   8.443   1.979  0.1612  0.4459  0.3032
19957W        W36091  10.970  17.314  12.801 -0.1857 -0.3787 -0.0643
19958W        W36092  11.117  17.715   4.327  0.1753  0.1193 -0.0560
19959W        W36093  10.244  14.828  15.245  0.0532  0.1173  0.0871
19960W        W36094   1.783   6.229  13.284 -0.3917  0.1570  0.1756
19961W        W36095  10.829   4.889  11.298 -0.4723  0.1865  0.2685
19962W        W36096  15.936  13.454  12.626  0.0180  0.1454  0.0305
19963W        W36097  14.981   9.843   0.646  0.0834  0.0305  0.1877
19964W        W36098   4.544  16.452  11.212  0.1021 -0.0328 -0.1208
19965W        W36099   9.766   5.351   0.146  0.1541 -0.2456 -0.1292
19966W        W36100  11.938   3.494   1.692 -0.1802 -0.1801  0.1810
19967W        W36101  16.450   5.224  10.617  0.1300 -0.3298  0.2319
19968W        W36102   6.138   2.502  13.199  0.0810  0.3030  0.2286
19969W        W36103   2.354  17.072   1.127 -0.1954  0.0196  0.3324
19970W        W36104   1.159  10.861  13.562 -0.1353 -0.0203 -0.2448
19971W        W36105   7.903  12.410   4.617  0.0807  0.0104  0.2755
19972W        W36106  14.662  17.707  13.132 -0.4322  0.0544  0.1728
19973W        W36107   9.291   0.077  12.752 -0.3043  0.1580 -0.0079
19974W        W36108   7.220   6.663  15.181  0.1749  0.0782 -0.2217
19975W        W36109   3.611  10.578   0.834 -0.1157  0.0208  0.0909
19976W        W36110  17.463   9.198  10.580 -0.0448  0.1221  0.2979
19977W        W36111  12.525  15.960   0.881  0.1141  0.3244  0.0478
19978W        W36112  12.994  13.690   3.332  0.0541  0.1380  0.3897
19979W        W36113   3.477  15.173   3.099 -0.1098  0.0077 -0.2047
19980W        W36114   1.298  11.955  14.658  0.1396  0.1476 -0.0783
19981W        W36115  16.421  15.717  13.814 -0.0171  0.0401 -0.2734
19982W        W36116   7.926   6.908   5.618  0.0376 -0.1745 -0.1177
19983W        W36117  15.835  11.755   3.193  0.4997 -0.2238  0.0775
19984W        W36118  14.387  11.306  11.779 -0.2573 -0.1902 -0.0201
19985W        W36119   9.305  17.536   4.433 -0.1133 -0.2440 -0.1259
19986W        W36120   6.915   5.757  12.200  0.0546  0.0491  0.1128
19987W        W36121   2.389  11.920  14.814 -0.0742  0.0318  0.0831
19988W        W36122   2.416   4.698  14.370  0.1550 -0.1139 -0.3223
19989W        W36123   1.260  17.241  13.384 -0.1170  0.6279  0.3101
19990W        W36124   6.983   0.724   3.228 -0.1768 -0.0284  0.0041
19991W        W36125  13.452   9.318   4.176 -0.1174 -0.0316  0.4128
19992W        W36126  14.574   4.977  12.379  0.1236  0.0781 -0.2219
19993W        W36127  10.119  15.947   0.765 -0.0942 -0.1125  0.1273
19994W        W36128  13.778  16.722   1.293  0.1302 -0.0637 -0.0094
19995W        W36129   4.632  11.247  15.551 -0.0056  0.0364 -0.1874
19996W        W36130   8.848   1.593   5.659  0.1895  0.3290 -0.1170
19997W        W36131   2.344  12.365  13.468 -0.2735 -0.1146  0.3207
19998W        W36132  18.108  13.996  13.510 -0.5054 -0.2342 -0.3055
19999W        W36133   3.993   4.553   4.530  0.0482  0.1083 -0.0932
20000W        W36134  15.539  13.312   9.966  0.1670 -0.0846  0.2318
20001W        W36135  18.025   5.704   4.128 -0.1946 -0.4280  0.2089
20002W        W36136   5.830   8.181   3.800 -0.0024 -0.3859  0.0427
20003W        W36137  13.979  14.813   1.940  0.2822 -0.2929  0.4733
20004W        W36138  15.050   5.043   3.036 -0.2630  0.0606  0.0898
20005W        W36139   0.039   0.932  13.730 -0.1591  0.3028  0.0897
20006W        W36140  13.376   5.344   2.492 -0.1730 -0.1774  0.3957
20007W        W36141  17.392  13.400   1.382 -0.0989 -0.2045 -0.0777
20008W        W36142  10.455   5.315   5.683 -0.1743  0.0382  0.0150
20009W        W36143  12.736  14.595  13.748 -0.0788  0.1247 -0.3410
20010W        W36144  12.296   1.438   5.584 -0.0883  0.1728  0.0220
20011W        W36145   2.820   9.919   3.161  0.2659 -0.1309 -0.0365
20012W        W36146   5.007   4.229  14.121  0.0631  0.1513 -0.3459
20013W        W36147  11.356  14.724   2.940 -0.2078 -0.0231 -0.1078
20014W        W36148  17.950  12.857   0.120 -0.1402 -0.0931 -0.1538
20015W        W36149   4.363   5.034   4.251  0.1056 -0.0746 -0.0685
20016W        W36150   6.744  12.478  14.790 -0.1392  0.0765 -0.1217
20017W        W36151  10.855  18.036  15.807 -0.0227 -0.1228  0.0975
20018W        W36152  16.873   5.121  15.486  0.1912  0.0533 -0.0392
20019W        W36153   0.700   2.589   2.125 -0.3051 -0.0080 -0.0996
20020W        W36154   3.209   8.187   4.580 -0.1167 -0.2956  0.0419
20021W        W36155  13.588  18.425   2.792 -0.1140 -0.0274 -0.0003
20022W        W36156  14.517  13.154  13.777 -0.1400  0.4116 -0.4296
20023W        W36157  11.407   7.063  15.133 -0.0583  0.0409  0.2994
20024W        W36158   7.782  12.235   5.553 -0.1309 -0.3059  0.1090
20025W        W36159   3.856   4.148  12.896 -0.0597  0.1779  0.1811
20026W        W36160  11.812   0.383  13.776  0.1431 -0.4357 -0.1181
20027W        W36161  13.087   1.527  13.439 -0.0698  0.1756  0.0313
20028W        W36162  17.964   9.625   4.564 -0.0409  0.1203  0.0925
20029W        W36163   6.238   2.903  11.495  0.3521  0.2607  0.0146
20030W        W36164  18.270  17.006  13.752 -0.1781  0.1555  0.2748
20031W        W36165   9.350   0.916   4.020  0.1457 -0.0611 -0.0051
20032W        W36166  10.752  15.033  15.057  0.1375  0.4006 -0.2984
20033W        W36167  18.461  17.550  13.746 -0.1240 -0.1085  0.5049
20034W        W36168  15.077  12.149  15.249  0.5242  0.1787 -0.3549
20035W        W36169  13.797  13.021   1.306 -0.2389  0.1454 -0.0197
20036W        W36170   2.461  18.219   1.430  0.0283  0.0715  0.1433
20037W        W36171   2.481  16.453  13.013  0.0324 -0.3560 -0.2894
20038W        W36172  10.766   6.708   2.466  0.1077 -0.2321  0.0276
20039W        W36173  14.872   4.591   2.896  0.1270  0.0852 -0.1023
20040W        W36174  13.696   1.210  14.160 -0.1401 -0.0647 -0.1089
20041W        W36175   6.626   9.597  15.019  0.0540 -0.1617 -0.1860
20042W        W36176  13.846   4.121  15.409  0.1414  0.1367  0.1476
20043W        W36177   6.605  18.449   0.810 -0.5152  0.0743 -0.0842
20044W        W36178  10.628   6.362   3.285 -0.0132  0.1227  0.2958
20045W        W36179   2.537  17.676  14.793 -0.1803  0.0821 -0.1736
20046W        W36180  17.358  12.220  14.234 -0.0193  0.5192  0.0592
20047W        W36181  14.765  15.147   1.142 -0.0326 -0.2285 -0.1003
20048W        W36182   5.559  11.167  16.074 -0.1269  0.1564  0.0219
20049W        W36183   5.155   9.277   2.638 -0.0937 -0.0766  0.3546
20050W        W36184  11.178  13.847   0.418 -0.0705 -0.1108 -0.2024
20051W        W36185   4.311  13.161  14.526  0.1845 -0.1856  0.0343
20052W        W36186   2.105   8.711  13.225 -0.1626 -0.1871 -0.0006
20053W        W36187   8.537   9.363  11.889  0.0156  0.1213  0.2343
20054W        W36188   8.916   6.831   2.332  0.2954 -0.0486 -0.2449
20055W        W36189   5.484  12.333  13.397 -0.1875  0.0784  0.2804
20056W        W36190  11.719   4.560  12.050  0.2657 -0.1030  0.0627
20057W        W36191  10.834   6.347   4.911  0.0660  0.0448  0.5318
20058W        W36192   7.898   7.287  15.760  0.2166  0.2133  0.1497
20059W        W36193   9.915   4.105   0.321  0.0918 -0.1695  0.2055
20060W        W36194   1.071  12.748   2.081 -0.2104 -0.2160  0.2809
20061W        W36195  17.224   9.190   3.658 -0.0690 -0.2384 -0.0558
20062W        W36196   2.858   8.870  12.674  0.1159  0.2192 -0.0291
20063W        W36197   3.212  14.117  10.732 -0.2006 -0.0858  0.1079
20064W        W36198   8.713   6.929  12.413 -0.0781 -0.1776  0.0603
20065W        W36199   9.083  17.912   4.137  0.1223  0.2647  0.1066
20066W        W36200  18.491  12.261   0.625 -0.2727 -0.1660  0.1260
20067W        W36201   7.248   9.099  11.668 -0.0512 -0.0238 -0.0575
20068W        W36202  18.163  13.777   2.128  0.4655  0.2011  0.2312
20069W        W36203   7.556  17.870   5.096  0.5091 -0.0952  0.0141
20070W        W36204  10.791  16.282  16.054 -0.2912  0.0483 -0.2655
20071W        W36205  12.988  14.415   1.045  0.1136 -0.0920  0.0934
20072W        W36206   7.679   4.620  14.728 -0.0556 -0.0165 -0.1094
20073W        W36207  12.388   0.067  12.604  0.1161 -0.0160 -0.0470
20074W        W36208  12.487   3.115  15.482 -0.3752  0.0085 -0.0004
20075W        W36209  11.273   6.096   3.316 -0.0941 -0.3658  0.2237
20076W        W36210  17.033   5.100   0.291  0.1760 -0.2315  0.4385
20077W        W36211   0.673   3.467  13.205 -0.0291 -0.0657  0.3247
20078W        W36212   2.223   0.613  14.836  0.0456  0.2795 -0.3679
20079W        W36213  10.579   9.701  12.556  0.0416  0.2191  0.1183
20080W        W36214   0.964   9.294  15.834 -0.0187  0.1057  0.1447
20081W        W36215  10.972   7.257   2.586  0.1582  0.5014 -0.1444
20082W        W36216   2.820   4.821   3.717 -0.3413  0.0035 -0.1105
20083W        W36217  10.029  10.552  12.406  0.2608  0.0869 -0.0468
20084W        W36218  12.198   7.658  15.530 -0.1636 -0.1154 -0.0570
20085W        W36219   0.077  15.364  14.935  0.0973 -0.0858  0.2247
20086W        W36220  11.737  16.903  12.084  0.0965 -0.0953  0.1337
20087W        W36221  13.056  10.918  15.351 -0.0400 -0.2576 -0.0528
20088W        W36222  14.424  14.366  14.614  0.0355  0.1105 -0.1022
20089W        W36223   1.433  17.370   5.776  0.1311  0.0578  0.0879
20090W        W36224   3.550   2.433  14.505  0.0761 -0.0353  0.0282
20091W        W36225  18.439   6.171   1.590  0.0352  0.2903  0.3228
20092W        W36226  13.416   0.709  14.229  0.0740  0.3426 -0.2670
20093W        W36227  12.654   7.181  14.444 -0.0797  0.3735  0.4933
20094W        W36228  12.893   6.750   1.242 -0.0791  0.0966  0.0076
20095W        W36229  12.643   8.468  11.972  0.0818 -0.0801 -0.1637
20096W        W36230  12.551  17.578   3.224 -0.1479 -0.0068 -0.4000
20097W        W36231   2.088   3.150  11.757 -0.0987  0.3876 -0.0968
20098W        W36232  15.300   1.648   1.001  0.0022  0.1629  0.1315
20099W        W36233   3.857  13.681  13.873 -0.1250  0.3530  0.0446
20100W        W36234   4.675  15.155  12.370  0.1109  0.0032  0.4382
20101W        W36235   0.768   7.032   1.651 -0.1198 -0.3081  0.1864
20102W        W36236  15.431  15.326  12.155  0.2957 -0.2834  0.0118
20103W        W36237   2.493   2.415  13.420 -0.1313 -0.2722  0.0365
20104W        W36238   2.747  17.379  15.261  0.1653  0.3985 -0.1605
20105W        W36239   8.458   4.804  16.000 -0.4546  0.0344  0.2011
20106W        W36240   5.276   4.434   1.323  0.0617  0.0312 -0.2329
20107W        W36241   2.063   3.601   5.101 -0.1194 -0.1740 -0.1245
20108W        W36242  13.564   4.926   0.032 -0.0866  0.1604  0.1272
20109W        W36243  15.641  10.095   2.292  0.2883 -0.0151  0.0218
20110W        W36244   4.668  12.730   2.554 -0.1666 -0.0527 -0.2128
20111W        W36245   8.455  14.103  14.551  0.0433 -0.2556 -0.1909
20112W        W36246  14.866  18.442   2.437 -0.0844  0.3333  0.0489
20113W        W36247  15.280  17.488   2.392 -0.0826 -0.1410  0.1232
20114W        W36248  11.355   9.700   4.802  0.0651  0.1134  0.3233
20115W        W36249   7.729   8.303  11.633  0.1310 -0.0838  0.0188
20116W        W36250   4.439   9.035  13.559  0.2061  0.0238  0.1457
20117W        W36251   1.242   4.837   0.586 -0.1233 -0.1914 -0.0732
20118W        W36252  13.495   0.019  11.123  0.1628  0.2150 -0.2481
20119W        W36253   8.803  15.570  13.237  0.0068  0.0067 -0.1280
20120W        W36254   1.526   5.779   2.378 -0.2661  0.1397  0.0259
20121W        W36255   4.086   2.288   5.246  0.0686  0.1070 -0.0809
20122W        W36256   5.210   0.600  15.678  0.1806  0.1397  0.0899
20123W        W36257  17.859  13.251   4.246 -0.1093 -0.0799 -0.1664
20124W        W36258  14.747  16.146   5.780  0.0248  0.2034  0.2146
20125W        W36259  11.273  15.931   4.147 -0.2854 -0.0721  0.1882
20126W        W36260   5.222   1.737   1.227  0.0444  0.1009  0.0218
20127W        W36261   8.870   8.398   5.526 -0.2552 -0.2405  0.1214
20128W        W36262   2.812   3.184  14.714 -0.4389  0.0305  0.0995
20129W        W36263  15.666   9.891  15.891  0.1668  0.0611  0.0312
20130W        W36264   1.257   2.771   2.182  0.1254  0.2793 -0.1830
20131W        W36265   6.310   3.031  16.015  0.0634 -0.1441  0.4769
20132W        W36266   1.121   5.022   4.346 -0.1513 -0.0055 -0.3963
20133W        W36267   0.481  18.302   4.410  0.0472 -0.0244 -0.0339
20134W        W36268   1.188  17.296  11.241 -0.0993 -0.0381 -0.2750
20135W        W36269   2.213  11.502   4.920 -0.0252  0.2645 -0.2383
20136W        W36270   7.388   3.062  12.765  0.0577  0.1083 -0.0947
20137W        W36271   6.421   6.048   2.182 -0.1452  0.1412 -0.1160
20138W        W36272  17.032  16.240  11.774  0.1155 -0.3221  0.0976
20139W        W36273  10.583   9.420   3.760 -0.2575 -0.0056  0.2130
20140W        W36274   4.293  14.156   3.881  0.2397  0.2534  0.0226
20141W        W36275   1.906   4.754  14.346 -0.2367  0.0506 -0.0530
20142W        W36276   7.211   0.075  16.080 -0.0779  0.1091 -0.2098
20143W        W36277  12.555  18.433   6.283  0.0325  0.1714  0.0280
20144W        W36278   5.498   1.298   1.990  0.0903  0.0591 -0.1713
20145W        W36279  12.910  12.665   4.591  0.0490 -0.0309 -0.2018
20146W        W36280   9.394   4.639  14.237  0.1651 -0.0419 -0.3757
20147W        W36281  16.675  15.897   4.425 -0.3620  0.1752 -0.1150
20148W        W36282  17.087   6.608   4.407 -0.0541  0.1195  0.1220
20149W        W36283   4.060  11.099  14.808 -0.1416 -0.3685 -0.2591
20150W        W36284   9.475   9.812   3.116 -0.1793  0.1389 -0.1068
20151W        W36285  11.460   2.085   3.086  0.1385 -0.1192 -0.3667
20152W        W36286   1.676  13.265  14.601 -0.2035  0.0123  0.1826
20153W        W36287   1.536  10.235  12.852 -0.0961 -0.0746 -0.3501
20154W        W36288  11.285   7.295  11.374 -0.2330  0.2246 -0.4026
20155W        W36289   7.593  16.110  13.463 -0.1736  0.0997  0.2102
20156W        W36290  17.377   5.807  12.753  0.1748  0.2161 -0.2450
20157W        W36291  14.392  13.579   1.821 -0.4402 -0.2093 -0.1267
20158W        W36292   4.552  18.144   2.093 -0.2782  0.1519 -0.2266
20159W        W36293   3.223   3.204   5.331 -0.1514 -0.2504  0.2478
20160W        W36294   7.432   8.274  15.834 -0.0184  0.0400  0.0143
20161W        W36295   5.647   2.925   0.880  0.3018 -0.2114  0.1104
20162W        W36296  16.761   2.351  14.074 -0.1906 -0.2010 -0.4713
20163W        W36297  18.296   1.937  13.145  0.0158 -0.0124 -0.1102
20164W        W36298  18.139   1.725   4.144  0.0489 -0.0432  0.1810
20165W        W36299  10.120  17.946   1.351  0.4773  0.1105 -0.3980
20166W        W36300   1.173  17.681   2.942 -0.1355 -0.0533  0.5145
20167W        W36301   3.654  12.378   3.656 -0.1893 -0.1515 -0.0400
20168W        W36302  11.519   1.913   2.333  0.2938 -0.3441 -0.2094
20169W        W36303  13.556  11.211   1.078 -0.1238 -0.0743  0.3585
20170W        W36304  17.486  16.393  14.859 -0.2405 -0.1716 -0.1024
20171W        W36305   9.681   5.400  14.431 -0.1054  0.2952 -0.2199
20172W        W36306  10.340  16.922  15.011 -0.1972  0.2603 -0.0614
20173W        W36307  12.793  12.096  13.091  0.1827 -0.0522 -0.2039
20174W        W36308  12.098  12.068   1.941 -0.0706  0.0605 -0.0136
20175W        W36309  11.922  11.206  15.363  0.0120 -0.0531  0.3090
20176W        W36310  13.421  12.790   4.310 -0.2590  0.0538 -0.2636
20177W        W36311   0.670  17.956   2.931  0.2065  0.1229  0.1238
20178W        W36312   2.026   9.333   0.177 -0.1735  0.0490 -0.1401
20179W        W36313   0.736  17.731  14.041 -0.2938  0.1182  0.0429
20180W        W36314  14.894   4.305  15.127 -0.1323 -0.2576  0.2072
20181W        W36315   0.981  15.670   2.364 -0.0081  0.0048 -0.0051
20182W        W36316  16.587   4.344   3.744  0.3789  0.0200 -0.1977
20183W        W36317   2.250  15.109  14.105 -0.3971 -0.0174 -0.1431
20184W        W36318   2.389  12.354   1.073 -0.3964  0.2753 -0.1866
20185W        W36319  13.528  13.274   4.463 -0.0652  0.1234 -0.2124
20186W        W36320  16.866   2.950   5.830  0.0920 -0.2326 -0.0374
20187W        W36321   2.660   8.738  11.040 -0.5287  0.3118 -0.1133
20188W        W36322  10.519   5.612  13.880  0.0395  0.1940  0.0124
20189W        W36323   4.987   9.240  14.002 -0.2409  0.1426 -0.3120
20190W        W36324   2.850  16.120  15.046  0.1242  0.0010  0.2262
20191W        W36325  10.747  13.349   4.006  0.2255 -0.1578  0.0785
20192W        W36326  11.299   6.161  11.462  0.2786 -0.0779  0.2836
20193W        W36327  10.171  12.553  15.494 -0.1695  0.1547  0.0100
20194W        W36328  16.873  10.472   0.316 -0.0910  0.2225  0.2090
20195W        W36329  10.241   2.059   2.307 -0.0157  0.1628 -0.4293
20196W        W36330   5.686  12.869  14.037  0.1212 -0.1974 -0.0745
20197W        W36331  15.089   4.090   2.731  0.2476 -0.2630 -0.0005
20198W        W36332   2.022   6.279   0.235 -0.0382  0.0901  0.0486
20199W        W36333  12.548  12.706   0.047 -0.0903  0.0770  0.0240
20200W        W36334   3.841  11.493   9.631  0.2428 -0.2041 -0.1915
20201W        W36335  16.960  13.550   4.898 -0.1177 -0.0961  0.0822
20202W        W36336  13.654   8.586  11.044 -0.1862 -0.1889  0.0148
20203W        W36337   2.050   5.824  13.494 -0.2631  0.1554 -0.3376
20204W        W36338   9.244   0.433  14.409  0.0339 -0.0053 -0.0138
20205W        W36339   7.409  13.082   2.018  0.3148  0.0042 -0.1588
20206W        W36340   4.850  12.478  12.957 -0.1536  0.0520 -0.2418
20207W        W36341   5.470   2.566  12.220  0.2405 -0.0467  0.1553
20208W        W36342   6.579  16.498   2.980 -0.1498  0.1486  0.1637
20209W        W36343   3.573   4.327   4.778  0.0844 -0.2154 -0.1452
20210W        W36344   8.426  17.668  16.020  0.1728  0.2646  0.1913
20211W        W36345  15.393   8.151   1.153  0.0474  0.0458  0.1885
20212W        W36346  16.121  12.121   2.787  0.2257 -0.1167 -0.1210
20213W        W36347  10.983   2.473   3.347 -0.1562  0.0882 -0.0988
20214W        W36348   9.845   9.793   1.377 -0.1254  0.0085 -0.1026
20215W        W36349   4.520  15.821  14.078 -0.1575 -0.1063 -0.1539
20216W        W36350   9.155   8.661   4.965 -0.0931  0.1098  0.3168
20217W        W36351   3.687   6.715  13.419 -0.0224  0.0008  0.0137
20218W        W36352   5.699   1.581  15.155  0.0530 -0.0651 -0.1864
20219W        W36353   6.548  10.971   2.034 -0.1179 -0.0295 -0.2135
20220W        W36354   3.843  13.104   2.577  0.0804 -0.1814 -0.1891
20221W        W36355  13.573  17.555  12.346 -0.0766  0.1810  0.1874
20222W        W36356  15.286  10.214  15.891  0.0423 -0.0499  0.2199
20223W        W36357  14.439  16.100  10.856  0.0160 -0.0305 -0.3805
20224W        W36358  10.332   4.273  14.787 -0.0417 -0.2389  0.1248
20225W        W36359  11.630   7.454   2.242 -0.0126 -0.0356 -0.2580
20226W        W36360  10.203  12.742   0.762 -0.0242 -0.2785  0.1891
20227W        W36361  15.298  14.779   1.754  0.0985  0.0785 -0.0991
20228W        W36362   4.660   9.996   4.586 -0.0534 -0.0209  0.0141
20229W        W36363   2.318  14.537  13.945 -0.1395  0.0805 -0.0465
20230W        W36364   4.093   5.285  13.630 -0.2115 -0.1921 -0.2058
20231W        W36365  13.073   0.773   1.527  0.1142  0.1652  0.1729
20232W        W36366  10.646  17.081  14.575 -0.1576  0.3063 -0.1239
20233W        W36367  15.190   5.379   0.554 -0.2574 -0.0032 -0.2102
20234W        W36368  17.809  14.408   5.105 -0.1408  0.2241  0.1182
20235W        W36369  10.861  16.687  13.141 -0.1691  0.1177 -0.0011
20236W        W36370  10.778  15.273   2.404  0.0967 -0.0573 -0.2279
20237W        W36371   6.221  14.544  13.634  0.3488 -0.3227 -0.0125
20238W        W36372   8.710  10.368  13.989 -0.2712 -0.2222  0.0601
20239W        W36373   3.944  10.972   3.726  0.0495  0.2512 -0.4182
20240W        W36374   6.873   0.177  14.773  0.0223  0.2000  0.1080
20241W        W36375  17.027   2.399   2.148 -0.1047  0.1084  0.1004
20242W        W36376   4.370  13.852   1.492  0.0708  0.0515 -0.1429
20243W        W36377  10.121  16.598  13.699  0.3649 -0.3777 -0.0414
20244W        W36378  16.489  10.294   3.809  0.0445 -0.2809 -0.0484
20245W        W36379   9.739  17.680  13.606  0.0374  0.1606  0.3311
20246W        W36380  12.304  15.812   2.645 -0.1175  0.1377  0.1741
20247W        W36381   1.430  10.174  11.350 -0.1731 -0.1996 -0.1640
20248W        W36382  14.827  17.459  12.226  0.0044 -0.2781  0.0276
20249W        W36383   0.962   3.207   0.255 -0.3689 -0.0453 -0.0600
20250W        W36384   9.609  10.126   2.253 -0.2992 -0.2564 -0.0080
20251W        W36385  14.938  15.880   3.648  0.1245 -0.0025 -0.0654
20252W        W36386  12.139  10.401   3.166  0.3478  0.1906  0.0600
20253W        W36387   9.894   1.655  12.261  0.1157 -0.0172  0.2217
20254W        W36388  15.735   7.984  10.272 -0.1091  0.2708  0.0541
20255W        W36389   2.066   6.325  10.887 -0.3144 -0.1142  0.1388
20256W        W36390  13.663   4.943  14.355 -0.1019  0.1444 -0.0713
20257W        W36391   5.022  15.408  10.005  0.3861 -0.2577 -0.0620
20258W        W36392   9.926  11.985   5.783  0.1395  0.2514 -0.1817
20259W        W36393   1.227   9.016   0.553  0.0259  0.0689  0.1750
20260W        W36394   1.094  10.862   0.931 -0.1265 -0.1380 -0.0861
20261W        W36395  17.436  18.236  14.897 -0.1404  0.0002  0.3127
20262W        W36396   7.154   4.477   5.795 -0.0514 -0.0171 -0.0309
20263W        W36397  10.727   8.953  13.521 -0.1774 -0.0278 -0.0213
20264W        W36398  13.438  10.651  15.081 -0.3765  0.0316 -0.0163
20265W        W36399  17.686  10.005   0.262 -0.2594 -0.1058 -0.1100
20266W        W36400   1.451   2.023   2.713  0.1477  0.1627  0.2243
20267W        W36401   1.808  11.700   0.589  0.1816 -0.1387 -0.2386
20268W        W36402   5.652   9.279  13.100 -0.2223  0.4059 -0.1016
20269W        W36403  15.590   6.738  13.628  0.2298  0.0379 -0.0811
20270W        W36404   0.576  10.880   5.865  0.0005 -0.1673  0.0109
20271W        W36405   5.841   4.830  12.181  0.3184 -0.2453 -0.0381
20272W        W36406   4.466   2.869   1.429 -0.1456  0.1017  0.3614
20273W        W36407  13.346  17.540   1.303 -0.3781 -0.0405 -0.1180
20274W        W36408  13.084  18.445   1.865 -0.1873  0.1328 -0.2740
20275W        W36409  11.535   2.597   5.964  0.0385  0.4456  0.0667
20276W        W36410  18.141  14.550   4.353  0.1483  0.2116 -0.5030
20277W        W36411   1.109  11.406  11.429  0.0945 -0.0358  0.3353
20278W        W36412   9.449   7.249  12.592 -0.0691  0.0174 -0.0566
20279W        W36413   6.818  10.087  15.786 -0.0460  0.1324  0.0207
20280W        W36414  17.268  12.900   1.885 -0.1193 -0.2603  0.0422
20281W        W36415   3.651   3.639  14.067  0.1130  0.2190 -0.2476
20282W        W36416   0.709   9.991   0.858  0.0357 -0.1417  0.1513
20283W        W36417   6.822   9.162  14.676 -0.1031 -0.1398 -0.1805
20284W        W36418  13.941  12.660   2.059  0.2817  0.1959 -0.1052
20285W        W36419   7.069   8.059  11.720  0.1239  0.3020  0.0007
20286W        W36420  11.524   5.558  15.798 -0.1070  0.3317 -0.1236
20287W        W36421  11.304  15.488   2.030 -0.0600  0.1482  0.2339
20288W        W36422  15.007   1.074   0.432 -0.0487 -0.1959 -0.0490
20289W        W36423   3.323  10.027  14.263  0.0244 -0.0643 -0.0417
20290W        W36424  17.760  10.210  15.675  0.0438 -0.0335  0.1994
20291W        W36425   6.496  15.093  11.744  0.2577 -0.3977  0.2210
20292W        W36426   0.830   1.970  15.897  0.1209 -0.1545  0.3427
20293W        W36427   2.790  10.918   4.431 -0.0616 -0.0794 -0.1928
20294W        W36428   3.604   7.220  13.978  0.3022 -0.2603 -0.0011
20295W        W36429  13.956   6.161  15.900  0.3147  0.1572  0.0235
20296W        W36430   5.828   6.980  11.765  0.0001  0.2488  0.0147
20297W        W36431   4.752  17.532   5.304 -0.1545  0.0137  0.1978
20298W        W36432  12.847   8.775  14.972  0.1063 -0.1789  0.0056
20299W        W36433  13.672   5.786   0.872  0.1613 -0.2672 -0.0016
20300W        W36434   1.980  10.463  12.741  0.0541 -0.2327 -0.0507
20301W        W36435  16.787  10.241   4.286  0.2637 -0.3832 -0.2524
20302W        W36436  17.001  16.395  15.727  0.3274 -0.0979  0.0107
20303W        W36437   9.281  16.610  12.919  0.0797  0.0049  0.1262
20304W        W36438  14.736   4.490   0.760 -0.0134  0.1975 -0.2313
20305W        W36439  14.149   6.779  14.755 -0.0384 -0.0243  0.1725
20306W        W36440   7.787   5.188   5.911  0.0125  0.0005  0.0569
20307W        W36441  17.644  18.224   2.696  0.0802  0.0574  0.4718
20308W        W36442   0.198   9.889  12.323  0.0917 -0.1815 -0.0815
20309W        W36443   6.454  16.710   0.720 -0.0888 -0.1707 -0.0608
20310W        W36444   7.009   4.695  11.355 -0.1656  0.3349  0.3646
20311W        W36445   2.633  17.420  14.409 -0.3586 -0.2733 -0.0428
20312W        W36446   2.423   9.193  11.143 -0.0451 -0.0659 -0.0464
20313W        W36447   0.932   9.273  15.255  0.1501 -0.1119 -0.1573
20314W        W36448   6.349   6.236   1.168  0.3485  0.1583 -0.1979
20315W        W36449  10.292  16.722  12.295 -0.1103 -0.4581  0.1051
20316W        W36450   9.395  12.216   4.310  0.2421  0.1309  0.0869
20317W        W36451  12.987  12.670   3.384  0.2390  0.2894  0.5769
20318W        W36452   2.347  13.692   3.096  0.0216 -0.1077  0.1702
20319W        W36453   1.719   0.859   3.723  0.0598 -0.1078  0.0605
20320W        W36454  12.147   6.164  12.002  0.0951  0.1727  0.1027
20321W        W36455  13.874  12.404  11.037 -0.2088  0.2698 -0.1419
20322W        W36456  18.042  15.523   3.617 -0.0225 -0.1081  0.0665
20323W        W36457  17.967   5.067   0.133  0.0174 -0.0301  0.1209
20324W        W36458   2.250   0.639   1.154 -0.0192  0.1539  0.0570
20325W        W36459  13.104  15.677  14.607 -0.2131  0.0179  0.0561
20326W        W36460   4.866  17.061  15.168  0.2308 -0.4133 -0.1217
20327W        W36461  15.187   1.462   3.878 -0.0598  0.0543  0.2015
20328W        W36462  12.369   0.470  11.527 -0.0740  0.3024 -0.0593
20329W        W36463  16.750  11.423  14.957  0.0512  0.1129  0.3386
20330W        W36464  15.531  12.682   0.097 -0.0084 -0.0263 -0.0130
20331W        W36465   0.300  12.087   3.509 -0.1244  0.0492 -0.0580
20332W        W36466  10.477  13.794   1.509  0.1989  0.4341  0.0029
20333W        W36467   6.041   1.687  12.174  0.1066 -0.1201 -0.1838
20334W        W36468   3.661  12.092   4.484  0.1706 -0.2697 -0.0192
20335W        W36469  14.896   3.262   0.078 -0.0943  0.1115  0.0977
20336W        W36470  17.002   9.597  10.770  0.1661 -0.0423 -0.2001
20337W        W36471  12.357  17.940   5.042  0.1428  0.2812 -0.2174
20338W        W36472   5.749  14.240   3.984  0.1498  0.1350  0.1901
20339W        W36473   1.201  10.973   1.607  0.0037  0.1673 -0.3668
20340W        W36474   8.710  13.167   4.199 -0.2480  0.0505 -0.1204
20341W        W36475  14.177  16.020  11.672 -0.0362 -0.1369 -0.1813
20342W        W36476   9.341   8.951  13.230 -0.0523 -0.1752  0.2611
20343W        W36477  17.922   2.823  11.499 -0.3221 -0.1431 -0.0920
20344W        W36478  12.328   2.171  13.087 -0.0250 -0.1252  0.1800
20345W        W36479   3.349  17.119  15.024  0.1731  0.2235  0.0407
20346W        W36480   2.871  14.830  10.961 -0.1955 -0.2061 -0.0150
20347W        W36481   9.333   7.251   2.171  0.2245 -0.0129 -0.1162
20348W        W36482  16.755  16.818   0.331 -0.0506  0.0086 -0.2255
20349W        W36483  18.115  12.448   5.157 -0.0663 -0.1948  0.1995
20350W        W36484   0.510   9.667   3.068 -0.4793  0.0050  0.0966
20351W        W36485   1.313   1.834  13.968 -0.1243 -0.4643 -0.0103
20352W        W36486   7.895   3.876   1.059 -0.0508 -0.0261  0.1637
20353W        W36487  10.649   1.137  12.661 -0.3201  0.2234  0.0388
20354W        W36488   6.489  12.310   4.972 -0.1368  0.0781 -0.4035
20355W        W36489   9.466   9.649  13.532  0.2286 -0.3408  0.0919
20356W        W36490  17.172   4.626  13.821 -0.1880 -0.2439  0.2006
20357W        W36491   4.473   3.032  15.166  0.1689  0.1550  0.2206
20358W        W36492   3.603   1.757  13.772  0.1549  0.2846  0.3615
20359W        W36493   0.875   2.041   1.851 -0.0061  0.2532  0.0479
20360W        W36494   8.542  11.511  12.611  0.1414 -0.2298  0.0734
20361W        W36495  18.202   2.741  12.308 -0.1387  0.3206 -0.5484
20362W        W36496  15.209  11.846  11.585  0.2150 -0.1077  0.0985
20363W        W36497   6.154  10.942  11.337  0.2099 -0.2015 -0.1306
20364W        W36498   8.770   3.690   1.331  0.0458 -0.0291 -0.3294
20365W        W36499   6.198  16.241   2.118  0.0349  0.1121  0.1627
20366W        W36500   4.750   4.375  11.774  0.0479 -0.0300 -0.0201
20367W        W36501   6.344  15.563   0.338  0.2787  0.2873 -0.2255
20368W        W36502  15.720  11.004  14.515  0.1588 -0.0340 -0.3377
20369W        W36503   5.391  13.227  15.584 -0.0889 -0.0622  0.2364
20370W        W36504  10.848  17.162  13.270  0.0153 -0.1590 -0.1371
20371W        W36505  13.761   9.843  13.624  0.1033  0.0032 -0.0021
20372W        W36506   4.932  15.472   2.368 -0.0070 -0.2092  0.0315
20373W        W36507   9.641  18.415   4.013 -0.0237  0.0411  0.1173
20374W        W36508   5.052  11.862  12.517  0.1623 -0.0620  0.0381
20375W        W36509  16.027   2.056   3.883 -0.0300 -0.0601 -0.2375
20376W        W36510   3.454   6.028  13.854  0.1625  0.0488 -0.3263
20377W        W36511   9.626   2.249   3.647 -0.0974 -0.1721 -0.0013
20378W        W36512   6.919  17.771  14.482  0.0793  0.0331 -0.1662
20379W        W36513  16.859  12.263  10.428  0.1067  0.1925 -0.2189
20380W        W36514  13.835  11.967   2.588 -0.4509  0.0700 -0.1508
20381W        W36515   3.293  13.047   2.660 -0.2673  0.0141  0.0076
20382W        W36516   2.750   2.690  14.687 -0.1810 -0.0650 -0.1397
20383W        W36517   3.410   2.205   1.279  0.0411 -0.1532  0.1966
20384W        W36518  16.368   9.022  12.025 -0.0422 -0.3772 -0.2080
20385W        W36519   4.974  18.252   4.051 -0.0141 -0.0202 -0.0989
20386W        W36520  18.188  17.718   1.583  0.0810  0.0824  0.2329
20387W        W36521  10.599   2.294  10.500  0.0344  0.2175 -0.3183
20388W        W36522  14.590  15.204  13.266 -0.0732 -0.0247 -0.0462
20389W        W36523  16.103   6.160  14.493  0.0469  0.0887 -0.0390
20390W        W36524   0.083   4.518   3.365  0.0938  0.0511 -0.0814
20391W        W36525   9.817   9.252   1.283  0.2679  0.0749  0.2348
20392W        W36526   4.552   0.975   1.047  0.2464  0.1355  0.1048
20393W        W36527   5.366  13.930   0.506  0.0076 -0.0539 -0.1222
20394W        W36528   7.425   1.958  14.818  0.0940 -0.1965 -0.2152
20395W        W36529  16.912   8.544  14.168  0.0572  0.0673 -0.0886
20396W        W36530  14.197  17.131   4.521 -0.2211  0.0634  0.0718
20397W        W36531   4.834   6.569   5.908  0.2028 -0.1544 -0.0159
20398W        W36532   0.554   1.345  11.354  0.0664  0.3003 -0.1763
20399W        W36533   6.684   5.495   2.494  0.0670 -0.1530  0.0659
20400W        W36534   8.394  10.169   3.927  0.1966  0.4528 -0.3221
20401W        W36535   4.325   4.282   2.405 -0.0996 -0.0570  0.2734
20402W        W36536  15.811   8.202   2.850 -0.2038 -0.1126 -0.1092
20403W        W36537  14.541   0.565  15.163  0.0061  0.0778  0.0021
20404W        W36538   1.054   5.958  15.961 -0.1162 -0.0295  0.0335
20405W        W36539   4.161   4.853  16.077 -0.0680  0.1516 -0.2793
20406W        W36540  16.500   8.445  12.259  0.3497 -0.1890 -0.0954
20407W        W36541   4.085  16.492   4.861 -0.1301 -0.0192  0.2366
20408W        W36542   7.681  14.728  15.499 -0.0441 -0.0241 -0.0772
20409W        W36543  16.149   9.147   1.224 -0.0091 -0.0562  0.1774
20410W        W36544   4.185  13.537  12.131 -0.0441 -0.1995 -0.0791
20411W        W36545   5.751  10.836   2.392  0.0954 -0.2776  0.2540
20412W        W36546  17.827  15.443  11.929  0.0754 -0.1366  0.3590
20413W        W36547  10.835   8.245  13.470 -0.2622 -0.2267 -0.0341
20414W        W36548  14.093   0.432   2.689 -0.3364 -0.0957 -0.0252
20415W        W36549  12.373   3.737   0.036 -0.4732  0.0657  0.3600
20416W        W36550   3.933  14.089   0.184  0.1202  0.2992 -0.2597
20417W        W36551   9.563  11.818   3.712 -0.0762  0.1239  0.2060
20418W        W36552  16.756  14.947  14.356  0.0533 -0.3262  0.0891
20419W        W36553  16.264   1.347  12.031 -0.0076 -0.2854  0.1279
20420W        W36554  14.425   7.227   0.738 -0.0085 -0.3838  0.0088
20421W        W36555  10.792   5.412  11.397 -0.0966 -0.1431 -0.0012
20422W        W36556   0.999  10.486   1.608 -0.0635  0.0467 -0.1412
20423W        W36557  16.425   8.758  13.936  0.4323 -0.3061  0.0009
20424W        W36558  15.139   7.451   1.829 -0.1864 -0.2301  0.1008
20425W        W36559  15.326   2.871   0.778 -0.2000  0.0384  0.2039
20426W        W36560   8.932   6.608  11.947 -0.1278 -0.1970  0.0690
20427W        W36561   6.498  10.315  12.540  0.1585 -0.1907  0.0528
20428W        W36562   6.761  11.939  13.258 -0.0288 -0.0882  0.3418
20429W        W36563  11.938   4.717   0.434  0.1894  0.0989  0.0594
20430W        W36564   7.037   7.759  11.346  0.1725 -0.1548  0.1257
20431W        W36565   0.877   2.167   3.394  0.0060  0.0173  0.1715
20432W        W36566   9.670  15.965  15.220  0.1562  0.0030 -0.2196
20433W        W36567   7.448  16.456  15.676  0.0429  0.1392 -0.0450
20434W        W36568  12.656  12.534   3.685  0.2968  0.1177 -0.3231
20435W        W36569   3.748  18.135   4.420 -0.2182  0.0251  0.1603
20436W        W36570  15.567   1.692   5.418  0.0698 -0.0591 -0.0600
20437W        W36571   5.537   2.129   2.986 -0.0499 -0.1865 -0.1514
20438W        W36572   5.645   7.442   3.770 -0.1780  0.2353  0.0939
20439W        W36573  17.682   0.970  14.164  0.0532 -0.4024 -0.0293
20440W        W36574   7.267  11.031   2.587  0.0908  0.3018  0.2468
20441W        W36575  12.023   5.198  14.045 -0.2119 -0.0046  0.3231
20442W        W36576  15.788  10.425  10.830 -0.0847  0.2931  0.3428
20443W        W36577   2.562   6.864  11.343  0.1269  0.1497  0.0474
20444W        W36578  15.639  14.263  15.045 -0.2940 -0.3291 -0.1633
20445W        W36579  15.599   2.588   2.962 -0.0808 -0.2373 -0.0628
20446W        W36580  15.572   3.485  13.834 -0.0467 -0.0800 -0.3694
20447W        W36581   5.573   6.342   1.786  0.0355  0.0563 -0.3932
20448W        W36582   6.798   6.903   2.918  0.2646  0.0665 -0.1407
20449W        W36583   6.265  15.998  12.492  0.2213  0.0153 -0.2731
20450W        W36584   9.486  17.066   4.433  0.1397  0.0836 -0.0737
20451W        W36585   2.350   8.075  10.063 -0.1449  0.0259 -0.0842
20452W        W36586  15.744  11.072  12.420 -0.1012 -0.0703 -0.1859
20453W        W36587  13.963  10.476  12.872  0.2666  0.1483 -0.0236
20454W        W36588  10.037   0.132   2.835  0.0066 -0.1345  0.0751
20455W        W36589   1.517   2.512  11.986 -0.2098  0.0798  0.0847
20456W        W36590   7.968  13.114  13.503  0.2489  0.2080  0.1001
20457W        W36591  10.744   8.981   1.570  0.3065 -0.1127 -0.2858
20458W        W36592  14.720   4.323  13.021  0.1690 -0.2167  0.0491
20459W        W36593  17.556  15.153   1.236  0.3563  0.2978  0.0658
20460W        W36594   0.425   1.929   3.152  0.1018 -0.0921 -0.0484
20461W        W36595  10.113  11.975   0.455 -0.0637  0.1414  0.1131
20462W        W36596  15.482  11.595   0.532  0.3572  0.0909  0.0508
20463W        W36597  11.742   0.961   1.191 -0.1281  0.1293 -0.2319
20464W        W36598  10.898   1.412   5.794 -0.5005 -0.0538  0.0616
20465W        W36599  16.912   2.249   3.313 -0.2450  0.0264 -0.1074
20466W        W36600  14.399  17.714  15.703  0.0561  0.2434 -0.3713
20467W        W36601  13.804  16.104  15.591 -0.1371 -0.1128 -0.0229
20468W        W36602  11.986  14.867   0.302  0.1419 -0.0665 -0.2018
20469W        W36603  10.370  15.648  15.701  0.1778  0.0602  0.0527
20470W        W36604   1.000   1.354  13.141  0.0195 -0.0195 -0.1369
20471W        W36605  10.799   9.557  14.746  0.0149 -0.1675  0.2097
20472W        W36606   0.832  11.793   0.844 -0.0354 -0.4252  0.0325
20473W        W36607  15.558   6.287   1.973 -0.2204  0.2122  0.1510
20474W        W36608  14.551   1.606   4.499 -0.0719  0.5866  0.1339
20475W        W36609   1.256   6.862  11.502 -0.2540 -0.1726  0.2469
20476W        W36610  12.977   5.801   0.730  0.1030 -0.1461 -0.1777
20477W        W36611   2.695   9.421   2.641 -0.2139 -0.0459 -0.0910
20478W        W36612  14.891   8.628  11.074  0.0233 -0.2654  0.2864
20479W        W36613  12.384   6.825  15.093 -0.3065  0.3178  0.2740
20480W        W36614  12.738   6.956   1.920 -0.1909  0.3036 -0.0003
20481W        W36615  14.486   6.957   2.581  0.0168  0.0977 -0.0305
20482W        W36616   2.435  15.801   3.872  0.1135  0.1245  0.1087
20483W        W36617  13.071   6.069  14.824  0.0070  0.0769 -0.3215
20484W        W36618   9.312   0.597  11.570  0.0582 -0.1347 -0.2239
20485W        W36619  12.324  12.599   2.040  0.2588 -0.0063  0.0074
20486W        W36620  16.907   8.324   5.061  0.1881  0.0949 -0.1007
20487W        W36621  14.488   2.976  12.134 -0.0981 -0.2591 -0.2600
20488W        W36622  16.966  10.111  13.479  0.0628 -0.2336  0.2033
20489W        W36623   4.451  14.208   1.078  0.2432 -0.4346 -0.0680
20490W        W36624  11.387   9.351   3.860 -0.2173  0.0440 -0.1658
20491W        W36625  10.177   1.940   3.584  0.1864  0.0498 -0.2663
20492W        W36626  15.303  17.106  12.112 -0.0853 -0.3231  0.1960
20493W        W36627  11.902   5.441   1.229  0.0438  0.0099 -0.1975
20494W        W36628   3.103   6.932  14.058  0.0605  0.1701 -0.2539
20495W        W36629   4.160   0.537  12.635 -0.1280 -0.1078 -0.2949
20496W        W36630  16.722  12.882  13.035  0.0771  0.0154  0.2105
20497W        W36631  11.063   2.445   3.850 -0.0285  0.2618 -0.0046
20498W        W36632  13.382  14.597   3.742  0.0408  0.0764  0.2418
20499W        W36633   7.796   1.265   0.512  0.3201 -0.0386 -0.2615
20500W        W36634  15.937   6.042  14.947 -0.0671  0.2584  0.4308
20501W        W36635   5.855  12.562  11.697  0.1722  0.1327 -0.0310
20502W        W36636   2.182   0.968   5.139 -0.0561  0.1921 -0.2108
20503W        W36637   7.729   5.057   2.627 -0.1355  0.0045 -0.4836
20504W        W36638  14.975   5.913   3.914 -0.2358 -0.1079  0.2662
20505W        W36639  16.044   7.704  15.230 -0.0762 -0.0184  0.2982
20506W        W36640  17.524   3.661   4.895  0.2979 -0.0225 -0.1497
20507W        W36641  10.674  17.799   3.327 -0.0118 -0.2052  0.0930
20508W        W36642   4.779   1.907   0.316  0.0550 -0.3533  0.1397
20509W        W36643   7.084  13.232  15.014  0.2418 -0.2740  0.0164
20510W        W36644  11.850   4.317   5.996 -0.1848 -0.0981 -0.1063
20511W        W36645  15.726   2.137  10.995  0.2150  0.0193 -0.0588
20512W        W36646  12.567   1.008  11.010 -0.0274 -0.0888  0.0719
20513W        W36647  10.360   1.437   0.219 -0.0802 -0.1010 -0.3252
20514W        W36648  16.879  10.015   0.458  0.2092 -0.0221 -0.1264
20515W        W36649   0.733  18.132  13.705 -0.0825 -0.3292  0.4968
20516W        W36650  16.224   6.221   0.279  0.3653  0.0833  0.0177
20517W        W36651   9.007   2.431   3.506 -0.3326  0.1369 -0.2252
20518W        W36652   3.264  13.703  13.862 -0.2315 -0.0557  0.1390
20519W        W36653  12.704   0.199  14.253  0.1203  0.0533 -0.1978
20520W        W36654   7.953   8.855   1.225  0.0602 -0.5489  0.1694
20521W        W36655   0.790   8.534   4.208  0.0945  0.0105 -0.1479
20522W        W36656   1.176   0.627  14.299 -0.1400  0.0911 -0.3265
20523W        W36657   3.628   5.212   4.843  0.0690  0.1199 -0.0718
20524W        W36658  17.083   1.647   2.461 -0.0354  0.3337 -0.3673
20525W        W36659   7.778   9.036   5.497  0.1513  0.0727 -0.0226
20526W        W36660   9.332   2.546   6.760 -0.0327 -0.0975  0.3561
20527W        W36661  10.808   1.465  12.231  0.4187  0.2097 -0.0416
20528W        W36662   4.088   3.842  14.192 -0.2826  0.0575 -0.0815
20529W        W36663   5.824   2.277   3.655  0.0342  0.0582 -0.2170
20530W        W36664   1.129   5.150  12.079  0.2363 -0.0729 -0.1861
20531W        W36665  16.490  15.492  15.626 -0.2389 -0.2785 -0.0422
20532W        W36666  12.199   1.403   4.431  0.1313 -0.0173  0.0624
20533W        W36667  11.619  10.743   5.998  0.0192  0.0958 -0.2083
20534W        W36668   2.652   6.064   3.080  0.0822 -0.0963  0.0827
20535W        W36669   9.250   4.530   0.791  0.0294  0.0907  0.1355
20536W        W36670   6.962   8.816   0.725  0.1023 -0.0259  0.0138
20537W        W36671  15.631   3.797  15.197  0.0325 -0.2581  0.2824
20538W        W36672  17.782   0.174   2.195  0.0125  0.2036  0.2541
20539W        W36673   0.601  15.821   1.222  0.1012 -0.3207  0.1719
20540W        W36674   1.541   4.202  10.786 -0.0639 -0.2278 -0.0970
20541W        W36675   5.758   0.608   3.857 -0.1620  0.0253  0.1038
20542W        W36676   0.355   3.834  11.590  0.0131  0.0362  0.2521
20543W        W36677  11.968   5.156   2.213 -0.0805  0.2804 -0.2068
20544W        W36678   2.564  13.908  11.289 -0.3008 -0.1546  0.0157
20545W        W36679   2.330  14.477   1.731  0.0864 -0.0737  0.0321
20546W        W36680  11.940   8.081  11.293 -0.1659  0.1988  0.2338
20547W        W36681  13.316   1.425  13.878 -0.1668  0.0231  0.1054
20548W        W36682   6.590   1.129   3.162 -0.2239 -0.0172 -0.2964
20549W        W36683   1.022   2.395  12.169 -0.4178  0.0808 -0.3043
20550W        W36684   2.363  15.282   2.461  0.1876 -0.0920  0.4397
20551W        W36685   3.705  10.004  15.206 -0.0845 -0.1579 -0.0724
20552W        W36686  15.149   0.797  11.413 -0.3321  0.0910  0.0770
20553W        W36687  15.794  17.331   3.629 -0.0233  0.0897 -0.2601
20554W        W36688   1.482  11.810  10.022 -0.1648 -0.3785  0.0585
20555W        W36689   5.558  14.015  11.704 -0.1265 -0.1910 -0.0942
20556W        W36690   1.063  14.047   1.646 -0.0436 -0.0735 -0.0361
20557W        W36691  16.868  15.409  12.483 -0.0691 -0.0676  0.1575
20558W        W36692   0.009   4.850  14.516  0.1198  0.0258 -0.1761
20559W        W36693   8.158  17.846  13.882 -0.1093 -0.2616 -0.0119
20560W        W36694   2.027   4.512   2.454 -0.0669 -0.4256 -0.2095
20561W        W36695  16.827  17.281   3.679 -0.1944 -0.1120  0.2151
20562W        W36696   1.232   9.203  10.528  0.4310 -0.0423 -0.0514
20563W        W36697   1.465   7.952  13.246  0.0409 -0.0112  0.0646
20564W        W36698   4.192   3.619  11.446  0.0835 -0.3822  0.0990
20565W        W36699  10.740   9.801   1.298 -0.0540 -0.0166  0.1947
20566W        W36700  14.704  14.803   1.815 -0.0321  0.0081  0.0654
20567W        W36701  15.033  18.031  15.791 -0.0767 -0.1392  0.2006
20568W        W36702   1.201  12.625  10.710 -0.0006  0.0839 -0.0076
20569W        W36703   0.757  10.548   2.624  0.2263 -0.1076 -0.0898
20570W        W36704  12.232   5.391   6.279 -0.3702  0.0617 -0.1333
20571W        W36705  14.511   8.581  11.349 -0.1645  0.0527 -0.0421
20572W        W36706  17.786  14.910  15.288  0.3913 -0.0786 -0.0756
20573W        W36707   4.267   6.823  11.273  0.1824 -0.3046  0.0596
20574W        W36708   9.600   4.397  11.862  0.0872 -0.0493  0.3542
20575W        W36709   5.428   7.756   2.854 -0.2665  0.0838  0.1570
20576W        W36710  17.463   4.010  12.799 -0.2189  0.0690 -0.0157
20577W        W36711  11.008   9.185  13.130 -0.0814 -0.0333 -0.1650
20578W        W36712   6.536   4.446  14.766 -0.2534  0.1916 -0.2972
20579W        W36713   7.516   4.991   4.005 -0.1819  0.1072  0.0888
20580W        W36714  13.523  15.937   1.462 -0.2018 -0.3340 -0.3297
20581W        W36715   3.164   5.688  14.199  0.2620 -0.2157 -0.1048
20582W        W36716  15.977   8.640  13.326 -0.0506 -0.3108  0.1655
20583W        W36717  14.307  13.786  15.240 -0.1534 -0.0626  0.0069
20584W        W36718   6.344   4.464   3.613  0.1130  0.2173 -0.1405
20585W        W36719   1.140   3.258  12.012  0.1670 -0.4823  0.1001
20586W        W36720  10.979   6.383   6.098 -0.0605 -0.0306 -0.0424
20587W        W36721  16.399   0.346   0.542 -0.4871 -0.3237  0.0751
20588W        W36722   6.521  10.793   4.469 -0.1449 -0.0064  0.5327
20589W        W36723   1.414   2.112   4.938  0.2433  0.2670  0.1858
20590W        W36724   0.642  13.067   1.652 -0.0482  0.0115  0.0400
20591W        W36725  10.748   8.507   5.403 -0.3347 -0.0492  0.1889
20592W        W36726  10.663   3.256  14.759 -0.1639 -0.0511  0.0513
20593W        W36727  14.764   9.920   4.160 -0.1982 -0.3140  0.1254
20594W        W36728  11.080  15.082   3.172  0.1081  0.1270  0.0464
20595W        W36729   6.539  13.165   1.958  0.1257 -0.1539  0.1548
20596W        W36730  12.374   5.659   0.304 -0.0254 -0.0048  0.1333
20597W        W36731  11.624  12.955   5.781  0.2509  0.3567  0.0404
20598W        W36732  11.257   6.693  13.510 -0.1800  0.2240  0.0322
20599W        W36733   4.097  12.989   1.483  0.0019 -0.2688  0.0070
20600W        W36734   1.539  12.820  12.201 -0.1710  0.1762  0.0216
20601W        W36735   9.150  17.197  14.193 -0.3023 -0.5099  0.2299
20602W        W36736   1.522   4.006   0.978 -0.1460  0.0370  0.1017
20603W        W36737   0.183   4.382  12.818  0.1652 -0.0832  0.0007
20604W        W36738   7.189  15.563   4.821  0.0316 -0.0303  0.2386
20605W        W36739   0.583  14.184  15.198  0.1315 -0.0486 -0.2744
20606W        W36740  15.252  12.968  14.239 -0.1550  0.1972 -0.0056
20607W        W36741   1.725  12.147   3.432 -0.2855 -0.0023  0.1448
20608W        W36742   2.778  15.893  15.497 -0.3558 -0.0079  0.1669
20609W        W36743  14.017  13.374  12.615 -0.2112 -0.2499  0.1068
20610W        W36744   5.051   7.713   1.819  0.4317  0.0001  0.0796
20611W        W36745   8.325   9.641   1.375 -0.0787 -0.0714  0.2129
20612W        W36746  13.409  11.438   4.640 -0.0636 -0.0100 -0.0677
20613W        W36747  17.938  13.514  14.928  0.1758  0.2510 -0.0412
20614W        W36748   6.914  14.039   4.981  0.0669  0.1205 -0.0448
20615W        W36749   2.475   0.250  11.279 -0.0943  0.1173  0.0827
20616W        W36750  15.683   8.895   4.490 -0.1799  0.0759  0.0471
20617W        W36751   6.481  12.384   1.654 -0.0154  0.0254  0.2342
20618W        W36752  16.293  12.804   4.385  0.0274  0.3792  0.0081
20619W        W36753   0.981   4.287  11.669 -0.1317 -0.2276 -0.1176
20620W        W36754   1.543  14.757   1.148  0.1494 -0.2510  0.2333
20621W        W36755   8.127  15.975  15.987 -0.5108 -0.0788 -0.1494
20622W        W36756  11.661   3.993   0.286 -0.1996  0.0426 -0.0054
20623W        W36757  13.338  12.337   0.295  0.2800  0.1059 -0.0373
20624W        W36758   7.115   5.068   3.712  0.1509 -0.0664 -0.1986
20625W        W36759  11.380   0.732   5.353 -0.1924  0.0814  0.1897
20626W        W36760  12.225   6.526  13.704  0.2386 -0.0049  0.3231
20627W        W36761  11.420   2.487  13.024  0.0472 -0.0185  0.0078
20628W        W36762   4.780  10.540  15.263  0.2250  0.2628  0.2585
20629W        W36763   1.297   8.862  12.243 -0.4058 -0.1777 -0.0612
20630W        W36764   9.981  15.340   5.898 -0.1176 -0.0001  0.1952
20631W        W36765   7.331  15.675   1.382 -0.0336 -0.1976 -0.2912
20632W        W36766  15.945  14.337   1.492 -0.2410 -0.3758 -0.0558
20633W        W36767   2.236  18.300   2.151  0.1889  0.0629  0.1969
20634W        W36768   4.850   1.406   1.082 -0.3532 -0.0239  0.3818
20635W        W36769   7.220  14.692  12.926 -0.0708 -0.0958 -0.0005
20636W        W36770   7.462  11.456  13.860  0.1210  0.0798 -0.2401
20637W        W36771  16.082   4.525   2.493  0.2084 -0.0438 -0.1323
20638W        W36772   8.351   3.179   5.929 -0.1473  0.1424 -0.3619
20639W        W36773  17.553   7.108  11.132 -0.2049 -0.1067  0.1371
20640W        W36774   5.691  14.441   0.925 -0.0369 -0.0046 -0.0595
20641W        W36775  11.923  12.424  12.139 -0.1721 -0.0894 -0.3016
20642W        W36776  11.481   4.969  10.628  0.1170  0.2017 -0.0101
20643W        W36777   8.036   0.019  14.534  0.0466  0.1759  0.3748
20644W        W36778   3.919   9.552   2.866  0.2287  0.0629 -0.2036
20645W        W36779  12.455  17.531  12.494 -0.0676  0.0138 -0.2775
20646W        W36780   2.816  10.102  16.011  0.1772  0.0895  0.0374
20647W        W36781  12.834  11.865  13.500 -0.0372  0.1551  0.1612
20648W        W36782   8.783  12.496   2.952 -0.0959 -0.1497  0.1127
20649W        W36783  13.176  10.692   4.019 -0.1888 -0.3143  0.0092
20650W        W36784  12.178   4.568   3.017  0.2626 -0.4005  0.0752
20651W        W36785   7.417  12.183   4.644  0.1939 -0.0078  0.1774
20652W        W36786  16.172   5.992  11.484 -0.0551 -0.1324 -0.0561
20653W        W36787  10.346   3.113   2.254  0.0362  0.0735  0.1752
20654W        W36788  10.905   2.865   5.132  0.2263 -0.0431 -0.1600
20655W        W36789  14.614   3.852  12.232 -0.0267  0.1943 -0.0643
20656W        W36790  12.546   0.186   2.991  0.1766  0.2889 -0.0182
20657W        W36791  14.831   0.511   4.548  0.0879 -0.3965 -0.1608
20658W        W36792  17.153  12.920   2.354  0.3765  0.0380  0.0080
20659W        W36793  12.554   4.225   1.314  0.2269 -0.0854  0.0517
20660W        W36794  14.552  14.692   0.379  0.2579  0.1079  0.1225
20661W        W36795  16.206   0.694   3.510  0.1077 -0.1725  0.1311
20662W        W36796   8.760  12.201   1.037 -0.1170  0.2030 -0.1340
20663W        W36797  11.658   5.758  13.272  0.1384  0.0481  0.1169
20664W        W36798  16.134  12.787   2.852  0.2253  0.0206 -0.4694
20665W        W36799   6.212  18.468  13.502 -0.0067  0.0012  0.0959
20666W        W36800  14.105   5.643   1.194 -0.2712 -0.1345 -0.4498
20667W        W36801  16.111   4.063   4.785  0.0302  0.4005  0.1368
20668W        W36802  18.423   8.634   0.276  0.1661 -0.1140  0.0283
20669W        W36803   2.297   8.026   0.072  0.0139 -0.0582 -0.1541
20670W        W36804   4.402   7.567   3.564  0.0022 -0.1524  0.0876
20671W        W36805   2.881   2.309   2.555  0.0107  0.3004  0.3230
20672W        W36806   5.788   1.879   6.127  0.2336 -0.5886  0.0697
20673W        W36807  12.121   8.748   3.920  0.1533  0.1634  0.2510
20674W        W36808   4.003   9.674   0.518 -0.1446 -0.3524 -0.0059
20675W        W36809  12.979   4.006  11.573 -0.0103 -0.0973 -0.3200
20676W        W36810  16.051  10.956   0.166 -0.0137 -0.1042  0.1582
20677W        W36811   6.248   7.810  15.076 -0.0150 -0.2121  0.1123
20678W        W36812   5.336   8.577   9.837  0.0296  0.0256  0.0377
20679W        W36813  15.704   4.827   5.009  0.0604 -0.2105 -0.0030
20680W        W36814  14.134  12.591  13.024 -0.2712 -0.2769 -0.0762
20681W        W36815   0.138  10.532  12.373 -0.2711  0.2305  0.2700
20682W        W36816   9.849   3.727   5.263  0.0127  0.0807 -0.2732
20683W        W36817   1.675   0.546  14.148  0.0446  0.0874 -0.1179
20684W        W36818   0.886  16.616   2.376 -0.0621 -0.0769  0.1106
20685W        W36819  10.624   7.567  13.662  0.0327 -0.0440 -0.0599
20686W        W36820   6.605   7.046   5.451 -0.0511  0.1128  0.0796
20687W        W36821  16.915  12.146   2.091 -0.1163  0.1920  0.2823
20688W        W36822   1.972   5.047  12.003  0.0473  0.3027  0.3460
20689W        W36823   9.847   4.422  13.744 -0.0262 -0.2557 -0.2150
20690W        W36824  17.492   3.220   3.599  0.0576 -0.0738 -0.2107
20691W        W36825  10.117   8.052   1.033  0.0387  0.1413 -0.2907
20692W        W36826  18.499  14.241   1.218 -0.0389 -0.0965  0.0720
20693W        W36827   7.316   2.791   3.200  0.0854  0.0848  0.0371
20694W        W36828  12.070   2.670   4.354 -0.2344  0.2816  0.1551
20695W        W36829   2.267   4.640   0.147  0.2878  0.1484 -0.1523
20696W        W36830   8.569   6.445   3.573 -0.0586 -0.0800 -0.0818
20697W        W36831  18.329   8.154   0.722  0.0966 -0.1129 -0.0520
20698W        W36832   1.160  12.383   1.763  0.1383 -0.1019 -0.1150
20699W        W36833   9.856  10.849  15.406  0.1466  0.0910  0.2135
20700W        W36834  16.447  15.933   0.821  0.2430  0.3218 -0.0515
20701W        W36835   8.705   3.627   5.172  0.0362 -0.0036  0.2820
20702W        W36836   8.034   5.982   6.024 -0.1372  0.1172 -0.3564
20703W        W36837  16.554  17.462  12.129 -0.2028  0.2561  0.0074
20704W        W36838  16.488   5.317  11.167 -0.1932 -0.2072  0.0658
20705W        W36839   6.651  15.859  13.422 -0.1437 -0.1424 -0.1065
20706W        W36840   0.916  16.777   2.904 -0.0982  0.1185  0.0775
20707W        W36841  17.771  15.519   0.982  0.2614 -0.0156 -0.3983
20708W        W36842   4.669   7.225  14.210  0.0283 -0.1509  0.0554
20709W        W36843   4.829   6.015   1.770  0.2195  0.1114 -0.1494
20710W        W36844  15.708  17.945  15.165  0.0478 -0.1844 -0.0931
20711W        W36845   1.805  12.096  10.970  0.0774  0.1098 -0.1882
20712W        W36846   0.845   5.534   0.067 -0.0188 -0.0633  0.0021
20713W        W36847  10.897  15.631   4.495  0.2885  0.2220 -0.2960
20714W        W36848  10.820  13.222   0.292  0.1802 -0.2107  0.1112
20715W        W36849   6.658  16.160  15.585 -0.2619  0.0314 -0.2541
20716W        W36850   9.936  14.186   4.093  0.2108 -0.1419 -0.0549
20717W        W36851   7.276  11.910  13.124 -0.0633  0.2751  0.1153
20718W        W36852   1.571   9.992  10.785 -0.2855  0.1539  0.1089
20719W        W36853  13.669  11.825  12.783  0.0434  0.0797  0.0412
20720W        W36854   5.957   2.446   4.208 -0.2529  0.0467  0.1546
20721W        W36855   5.006   5.746   2.768 -0.1312  0.1468 -0.1107
20722W        W36856  10.503  10.485  12.204  0.3046 -0.0440  0.0584
20723W        W36857   9.531  12.692   4.107 -0.1127 -0.1011  0.1105
20724W        W36858  10.598  18.357   1.838 -0.1115  0.0754 -0.1155
20725W        W36859  10.321  11.552   4.421 -0.1831 -0.0033  0.1311
20726W        W36860  10.806   2.571   4.775 -0.0083  0.0168  0.0349
20727W        W36861   9.600  17.468  15.607 -0.1677  0.3165 -0.0676
20728W        W36862   2.584   3.035  15.115 -0.4794 -0.0933  0.0092
20729W        W36863  10.584  17.571  12.377 -0.2057 -0.1593  0.3280
20730W        W36864   8.305   7.042   2.840  0.2501  0.0649 -0.0964
20731W        W36865   2.660  16.384   4.919  0.2528  0.0467  0.3121
20732W        W36866   7.574   0.041  12.558  0.1933 -0.1125  0.0608
20733W        W36867   2.972   1.517   0.691  0.1848 -0.4254  0.0175
20734W        W36868   4.115  14.441  15.394  0.1866  0.0860 -0.2727
20735W        W36869   1.498  15.570   3.805  0.0257  0.2934  0.1828
20736W        W36870   8.461   5.924   1.790  0.1726  0.2237  0.0113
20737W        W36871  14.441  17.530   0.622 -0.3478 -0.0646  0.0822
20738W        W36872   3.616   7.964  16.005  0.4038  0.2248 -0.3074
20739W        W36873   3.924   3.311   4.728  0.0041  0.0209  0.6732
20740W        W36874   5.644  10.003  14.603  0.0117 -0.0599  0.1763
20741W        W36875   1.219  15.017  15.182 -0.1046 -0.1908  0.1452
20742W        W36876  14.216   7.166   3.645  0.0579 -0.1279  0.1757
20743W        W36877   2.387  12.760  15.622  0.1140 -0.1368  0.2256
20744W        W36878   6.970   5.722  11.585 -0.0291 -0.0516 -0.3277
20745W        W36879   4.374  11.138   0.803 -0.3000 -0.0674 -0.3590
20746W        W36880   1.962  16.717   0.342 -0.0463 -0.2115  0.0152
20747W        W36881   8.927   4.097   0.046 -0.0806  0.1589  0.4254
20748W        W36882   4.441   5.691  12.282  0.2060  0.0602 -0.0182
20749W        W36883   0.758   1.071   2.596 -0.2030 -0.0485 -0.0869
20750W        W36884  12.310   4.418  11.895  0.1535 -0.1584 -0.1366
20751W        W36885   6.095   1.140   4.810  0.5015 -0.0471  0.0869
20752W        W36886   5.055  15.765   0.318 -0.2481 -0.4836 -0.1248
20753W        W36887  17.636   5.814  14.964 -0.0424 -0.1276 -0.1415
20754W        W36888  16.373  16.663   3.938 -0.0102  0.1105 -0.0007
20755W        W36889   5.164  16.875   1.019  0.3790 -0.0120  0.1442
20756W        W36890   4.874  11.403   4.938 -0.0815  0.0043  0.0177
20757W        W36891   3.624  14.270  11.057  0.0189  0.1700 -0.1312
20758W        W36892   5.052   9.207  14.610  0.1549 -0.2906  0.0191
20759W        W36893   1.337   6.525  10.719  0.2073 -0.2625 -0.1418
20760W        W36894  15.296   3.539   4.962 -0.0020 -0.2458 -0.1319
20761W        W36895   9.385  17.034   6.487 -0.0875  0.3280  0.0898
20762W        W36896  11.175   9.609  11.403 -0.2308  0.1580 -0.0153
20763W        W36897   3.781   6.500   0.459 -0.1224  0.5626 -0.1521
20764W        W36898   0.143  13.220  14.107 -0.0599 -0.0804 -0.2492
20765W        W36899   6.066  12.550  16.059  0.2177  0.1950  0.1900
20766W        W36900   9.956  10.711   3.011 -0.3342 -0.0350  0.1355
20767W        W36901  12.783   6.814   4.075 -0.1588  0.2852 -0.1177
20768W        W36902   1.816   8.516   3.535  0.1745  0.0596  0.1824
20769W        W36903  17.571   0.614  15.624 -0.0235  0.1024  0.2398
20770W        W36904  15.576   4.476   2.320 -0.0658  0.0699  0.1554
20771W        W36905  11.007   6.210   3.679 -0.2719 -0.0999 -0.0606
20772W        W36906   7.334   0.756   5.037 -0.1534  0.2104 -0.1201
20773W        W36907  13.126   3.284   3.679  0.1008 -0.1270  0.0386
20774W        W36908  12.836  12.271   0.332  0.0432  0.1272 -0.2730
20775W        W36909   2.039  11.245  15.840 -0.0165 -0.1491  0.2033
20776W        W36910  10.273  10.707  14.548  0.2918 -0.3764 -0.3439
20777W        W36911  16.145  11.921   0.387  0.2032 -0.2364 -0.2183
20778W        W36912  13.011  14.892  14.099 -0.0397 -0.0791  0.2637
20779W        W36913   7.933  13.001   3.819  0.0379  0.1590 -0.1851
20780W        W36914   4.324   5.384  15.820  0.3896  0.1329  0.4310
20781W        W36915  11.441  12.031   2.494  0.2387  0.2651 -0.0445
20782W        W36916  10.206  16.311   0.415 -0.0356  0.0271 -0.0673
20783W        W36917  12.033   9.743   2.412  0.1988 -0.0971  0.0038
20784W        W36918  11.894   7.358  10.761 -0.2102  0.0269 -0.4344
20785W        W36919   8.314  12.601   4.830 -0.0578 -0.2320  0.0542
20786W        W36920   6.665  15.643  11.747  0.1954  0.0696 -0.0312
20787W        W36921  17.335   8.124   3.250  0.3412  0.0514 -0.1266
20788W        W36922   9.058  16.372   4.882 -0.0688 -0.2597  0.1316
20789W        W36923   4.372  10.074   3.994 -0.1887  0.2319  0.4540
20790W        W36924   9.628   9.566  12.665  0.2063  0.0071 -0.1540
20791W        W36925   6.572  18.173  13.618 -0.0573  0.0849 -0.0651
20792W        W36926   8.330   2.572  13.344 -0.0899  0.1220 -0.1369
20793W        W36927  13.087  15.606  15.834 -0.0669 -0.2114 -0.1924
20794W        W36928   8.119   0.140  12.240 -0.0456  0.3003 -0.0564
20795W        W36929  17.351   9.257  13.146  0.2575 -0.4539 -0.1522
20796W        W36930   2.705   7.342   1.817 -0.2545 -0.0049  0.0525
20797W        W36931   5.922  16.870  12.726  0.2663  0.4439 -0.0193
20798W        W36932  17.575  13.555   0.172 -0.5199  0.0113  0.1003
20799W        W36933  11.801   3.723  15.026 -0.0000  0.0132  0.0356
20800W        W36934  16.899   2.570  15.706  0.2088  0.1137 -0.0535
20801W        W36935   0.906  15.904  16.007 -0.1984  0.0387 -0.2383
20802W        W36936  13.674  16.185  12.906 -0.2765 -0.1600  0.0584
20803W        W36937   7.710   4.880   3.122 -0.0642  0.1982 -0.3224
20804W        W36938   7.107   8.470  12.314  0.1076 -0.1048 -0.0720
20805W        W36939  13.388   1.404   0.967  0.0664 -0.1113  0.1674
20806W        W36940  16.661   5.125  12.743  0.2068  0.0317  0.2100
20807W        W36941   8.433  17.293   1.282 -0.1385 -0.2171  0.1570
20808W        W36942  17.788  16.771   0.865 -0.1318 -0.3084  0.0979
20809W        W36943  13.303  10.246  11.609 -0.0662  0.0472  0.4366
20810W        W36944  10.216   3.473   3.561 -0.0727  0.1443 -0.0781
20811W        W36945   2.295   4.043   4.909 -0.3575  0.1294 -0.0803
20812W        W36946   6.668   2.067   5.532  0.1038 -0.1850 -0.1534
20813W        W36947   9.478   6.811   4.843 -0.2880 -0.2575  0.0773
20814W        W36948   8.555   3.819  13.659 -0.1614 -0.3950  0.0949
20815W        W36949   6.516  17.834   0.105  0.2573 -0.0979  0.0233
20816W        W36950  13.955  11.509   2.388 -0.1193 -0.2128 -0.0279
20817W        W36951  11.674   2.519   2.945 -0.0096 -0.0237 -0.2035
20818W        W36952   4.034  12.759  13.291 -0.1335  0.1790  0.0625
20819W        W36953   1.318   7.270   3.637  0.2290 -0.0921  0.0807
20820W        W36954   9.943   5.800   2.773  0.0049 -0.3485  0.0671
20821W        W36955   5.816  12.724  10.570 -0.0829 -0.2620  0.0278
20822W        W36956   6.947   6.243   0.198  0.3069 -0.1755  0.0465
20823W        W36957  15.819   0.270   5.576 -0.1071 -0.1034 -0.1996
20824W        W36958   8.586   7.908   2.636 -0.1984  0.4154  0.1319
20825W        W36959   9.392  14.777   0.583  0.1439  0.0938 -0.1549
20826W        W36960   9.640  15.016   3.154  0.1698 -0.0323  0.1192
20827W        W36961   6.623   0.193  13.092 -0.0509  0.0036 -0.3147
20828W        W36962   0.666   3.467   4.496  0.2171 -0.3678 -0.1010
20829W        W36963  16.703   3.119   0.373  0.1876 -0.2551  0.0187
20830W        W36964  11.239   8.339   3.865  0.1555  0.2018  0.1820
20831W        W36965   4.131   9.485   4.991 -0.1122  0.1495 -0.2362
20832W        W36966   6.018   9.439   4.759  0.1097 -0.1860  0.3913
20833W        W36967   9.613  17.088  12.887  0.0251 -0.2583  0.3075
20834W        W36968   8.673   2.444   0.349  0.3585 -0.3523  0.2261
20835W        W36969   3.776  10.185  10.508  0.2117  0.0536 -0.0518
20836W        W36970   4.302   7.989   1.100  0.0391  0.1416 -0.2492
20837W        W36971   7.778   2.654   4.399  0.1174  0.0268 -0.2715
20838W        W36972   7.237  18.082   4.615 -0.1525 -0.1097  0.1014
20839W        W36973   9.163  13.678  15.249  0.1927 -0.0128 -0.0399
20840W        W36974   6.645   4.130   1.329 -0.1905 -0.0217  0.0660
20841W        W36975  15.886  16.758   1.987  0.0233 -0.0214  0.0890
20842W        W36976   1.948   2.607  14.118 -0.0021  0.2704 -0.1209
20843W        W36977   3.321  11.837  12.268 -0.0307 -0.2693 -0.0182
20844W        W36978  17.853   4.227   0.095 -0.0300 -0.2594  0.0145
20845W        W36979   0.842   9.462   2.102  0.1710 -0.0543 -0.3264
20846W        W36980   2.339   7.476  14.434  0.2171 -0.0936  0.0149
20847W        W36981   0.487   2.225  10.778 -0.5256 -0.2126  0.0179
20848W        W36982   5.764  12.862  15.052 -0.0463 -0.0252 -0.0490
20849W        W36983   6.528   4.646   1.787  0.1694  0.1558 -0.0657
20850W        W36984   8.388  11.583   4.905 -0.0309  0.2161  0.1231
20851W        W36985   1.533   6.858   3.741 -0.4663 -0.0221  0.2800
20852W        W36986  11.681  12.862  13.429 -0.1541  0.0346  0.0786
20853W        W36987  13.904   5.851  14.286 -0.1023  0.2694  0.1928
20854W        W36988   2.863  12.795  10.649 -0.1218  0.0103  0.0133
20855W        W36989  16.319  10.369   4.461 -0.1142  0.0034 -0.0796
20856W        W36990   0.699   8.505   2.888  0.0605 -0.0262  0.0629
20857W        W36991   1.054  11.332  15.735  0.2553  0.1116 -0.0643
20858W        W36992   6.995  13.903   3.788 -0.2906 -0.0464  0.2047
20859W        W36993  12.182   8.575  12.569 -0.0514  0.0730 -0.1059
20860W        W36994   7.524   6.560   5.558 -0.3355  0.0020 -0.1588
20861W        W36995  17.769  13.889  10.606  0.1258  0.2700 -0.0212
20862W        W36996   7.958  11.881   3.146 -0.0915  0.2818  0.0761
20863W        W36997   3.402   9.300  11.300 -0.2630  0.0069 -0.1534
20864W        W36998  17.983  17.444  11.358 -0.1451 -0.1168 -0.2513
20865W        W36999  17.173   6.059   3.837  0.1873 -0.2946  0.0296
20866W        W37000   9.401   6.722   0.336  0.1021 -0.3117  0.3174
20867W        W37001  10.430  17.224  11.993 -0.2018  0.2427  0.1018
20868W        W37002   1.329   2.781  14.671 -0.0199  0.1397 -0.1318
20869W        W37003  16.903   6.712   1.367 -0.0682 -0.3316 -0.1143
20870W        W37004  16.378   3.359  14.901  0.2690 -0.2591  0.0006
20871W        W37005  11.777  14.335  15.657 -0.1395 -0.2860  0.1386
20872W        W37006   0.206  12.972  12.913  0.0262 -0.0225 -0.0383
20873W        W37007  10.497   8.407  13.771  0.0731 -0.2436  0.0697
20874W        W37008   0.836   7.095   3.083 -0.3068  0.2754 -0.1874
20875W        W37009  16.714  17.059  11.295 -0.1801  0.1067 -0.1407
20876W        W37010  13.164  12.012   4.511 -0.2031 -0.0330  0.1456
20877W        W37011  12.136   1.501   2.667 -0.3026 -0.1229 -0.4987
20878W        W37012  12.303   5.593   0.852 -0.1482  0.6602 -0.2393
20879W        W37013  12.464  10.133   0.734 -0.0925  0.2003  0.0318
20880W        W37014  11.704   3.139  12.218  0.2348 -0.2132  0.0590
20881W        W37015  17.003  18.139   2.105 -0.1592 -0.2854  0.1376
20882W        W37016   5.383   6.135   3.149  0.0873  0.3561 -0.3700
20883W        W37017  16.721   4.365   9.521 -0.2129 -0.0518 -0.0707
20884W        W37018  15.000   8.225   1.443  0.1622  0.0562  0.0158
20885W        W37019   0.364  16.723  11.105  0.0306  0.1595  0.1738
20886W        W37020   5.718  14.420  13.871 -0.2197 -0.0194 -0.1730
20887W        W37021   2.176   8.299   2.336  0.1307 -0.2844  0.4342
20888W        W37022  15.116   6.475  14.529 -0.0125  0.3608  0.0437
20889W        W37023  17.170  12.466  15.583 -0.1348 -0.4016 -0.1709
20890W        W37024  11.723  17.196  12.973 -0.0529  0.0383  0.0662
20891W        W37025  12.324   8.910  14.457  0.3868 -0.1151  0.1609
20892W        W37026  15.229   0.861  15.831 -0.2112 -0.0036 -0.0149
20893W        W37027   9.492  14.952  12.939  0.3780 -0.3915 -0.0321
20894W        W37028   3.369   0.748   0.729 -0.0973  0.0056 -0.0385
20895W        W37029   7.825  12.502   1.028 -0.0760 -0.0413  0.1819
20896W        W37030   8.723  15.292   0.319 -0.2764 -0.0105  0.0657
20897W        W37031  18.305   8.104  10.774 -0.2492 -0.1998 -0.1162
20898W        W37032   1.376   7.039   1.347  0.1547  0.1006  0.0199
20899W        W37033  11.528  17.289   4.929 -0.1525  0.0845 -0.0841
20900W        W37034   8.866  14.618  12.478  0.3758  0.0062 -0.5155
20901W        W37035   1.331   5.535  10.892  0.1524 -0.0864  0.0184
20902W        W37036   9.095   0.833   5.460 -0.2388  0.0113 -0.3637
20903W        W37037  17.197  10.235  15.557 -0.1085  0.3684 -0.0943
20904W        W37038   8.596  16.284  13.824 -0.2291  0.1088 -0.0236
20905W        W37039   3.748  12.971   9.571  0.0390 -0.0439 -0.1282
20906W        W37040   0.498  11.426  10.004 -0.0606 -0.6440  0.1321
20907W        W37041   1.363   5.058  12.643  0.1795 -0.0050  0.0250
20908W        W37042   2.210  12.053   3.868 -0.2062 -0.1121 -0.1422
20909W        W37043   7.418  15.543   4.023 -0.2746  0.1044 -0.0025
20910W        W37044  11.428   0.570  12.360  0.0913  0.3410 -0.0050
20911W        W37045   5.748   9.822  11.734  0.1293  0.0021 -0.0811
20912W        W37046  13.405   7.417  12.804  0.3127 -0.0315 -0.4525
20913W        W37047  13.203   0.912  14.822  0.2208 -0.1245 -0.1734
20914W        W37048  13.590   8.093  11.400 -0.2799 -0.1035  0.2340
20915W        W37049   8.355   9.605   4.477  0.2203  0.1450  0.1695
20916W        W37050   1.200  10.463   3.439 -0.3222 -0.3210  0.0644
20917W        W37051   6.825  17.132   3.673  0.1602 -0.0031  0.0691
20918W        W37052   6.800   7.573   4.975 -0.2021  0.1419  0.3817
20919W        W37053  12.240   4.026  15.207 -0.1163 -0.1286 -0.2492
20920W        W37054  17.864   9.699  11.332  0.0001  0.2170  0.2054
20921W        W37055   4.858   4.580   5.302 -0.0085 -0.0618  0.0349
20922W        W37056   1.799  12.450  10.602 -0.1026  0.1294 -0.0154
20923W        W37057   3.240  12.847   9.566  0.1342 -0.1042 -0.3324
20924W        W37058  17.086  13.147   3.624 -0.2186  0.3161 -0.1576
20925W        W37059   5.562  14.365   1.418 -0.0241 -0.0756 -0.1135
20926W        W37060   5.453   2.850  12.688  0.1235 -0.3839 -0.0258
20927W        W37061   6.891   8.408   2.158  0.0565 -0.3812  0.0899
20928W        W37062   6.886  12.202   4.705  0.4023 -0.0242 -0.0477
20929W        W37063   1.341   0.838   3.377 -0.0107 -0.1578  0.0019
20930W        W37064   5.300  11.830  13.518 -0.1908 -0.0089  0.2162
20931W        W37065  16.130  14.745   2.269  0.1480 -0.0971  0.1765
20932W        W37066   4.033  12.189   2.980 -0.1274  0.3321  0.0814
20933W        W37067  15.401  17.850   2.059 -0.0430 -0.1194 -0.0234
20934W        W37068   4.662  11.407  14.112  0.1134 -0.3006 -0.1049
20935W        W37069  17.672   0.380   0.802  0.2433 -0.1795 -0.1721
20936W        W37070  18.077   4.236  11.016  0.0565  0.1712 -0.0191
20937W        W37071   4.933   2.235  15.168  0.0305  0.2520  0.1912
20938W        W37072  17.085  10.814   0.658  0.0052 -0.1126  0.0953
20939W        W37073  16.501  13.808  12.496  0.0902  0.1005 -0.0944
20940W        W37074   8.878  14.032  12.469 -0.2462  0.0059  0.4405
20941W        W37075  17.257   8.874  13.492  0.0916 -0.3530  0.1091
20942W        W37076  14.856  14.908  12.804  0.0430 -0.0340 -0.2532
20943W        W37077   7.735  17.807   4.595  0.0509  0.0997 -0.2954
20944W        W37078  11.799  17.736  15.305  0.1385  0.0236 -0.1417
20945W        W37079  18.098  15.221   4.698 -0.0853  0.1260  0.0156
20946W        W37080  15.648   7.037   2.607 -0.0211 -0.1880  0.0256
20947W        W37081  14.560  12.000   0.771 -0.0098  0.0295 -0.0294
20948W        W37082  17.903   9.262  14.830 -0.3001 -0.2630 -0.3500
20949W        W37083  17.939   7.715  10.867  0.0824 -0.3536  0.3519
20950W        W37084  12.499   6.122   2.981 -0.0526 -0.1000  0.3497
20951W        W37085   2.076   4.185  13.663 -0.2404  0.0750 -0.1528
20952W        W37086  18.291  10.347   2.128  0.1261  0.1243  0.0153
20953W        W37087  17.487  16.764  11.744  0.2122  0.1947 -0.0936
20954W        W37088   2.725   6.064   0.472  0.1434  0.5463 -0.1432
20955W        W37089   1.472   8.424  15.700  0.1391 -0.2316 -0.2119
20956W        W37090   8.052  12.728  11.970  0.1998 -0.1051 -0.2006
20957W        W37091   5.703   4.467   5.015 -0.1087  0.1343 -0.0895
20958W        W37092  14.641  17.176  14.541 -0.0536  0.2005  0.2926
20959W        W37093   1.938   8.874  15.530 -0.1631 -0.2988  0.1114
20960W        W37094  14.408   6.613   4.940 -0.1115 -0.0233  0.0017
20961W        W37095  10.735  13.590  13.484  0.0482 -0.0331  0.1415
20962W        W37096  13.838  14.421   1.610  0.1253 -0.3976  0.2974
20963W        W37097   4.777  15.885  12.489 -0.0295  0.1232 -0.1438
20964W        W37098  17.254   6.411  15.232  0.2106 -0.3532  0.1725
20965W        W37099  12.308  12.272   0.739 -0.0075  0.0002 -0.1503
20966W        W37100  16.740   4.549   3.191 -0.3346  0.1278 -0.0165
20967W        W37101  17.796   9.263  13.309 -0.0992 -0.4971  0.0884
20968W        W37102   7.854   6.459  14.053  0.3115 -0.0596  0.0593
20969W        W37103   3.412  10.490  12.184 -0.0837 -0.1887  0.1810
20970W        W37104   5.028   0.703   0.193 -0.1631  0.5000  0.1769
20971W        W37105  18.232   6.078   0.291  0.4637  0.0695 -0.1063
20972W        W37106   6.147   6.895   2.065 -0.2141 -0.3713  0.0201
20973W        W37107   0.579   4.582  11.815  0.0241  0.3384  0.0654
20974W        W37108  11.441  15.787   0.380 -0.4029  0.2202  0.2584
20975W        W37109   6.922   7.069  12.230 -0.1923  0.0779  0.1707
20976W        W37110   2.616   5.439   2.781 -0.3719  0.0291  0.1004
20977W        W37111   5.834   8.982   3.656  0.2970 -0.0843 -0.1634
20978W        W37112   0.200  14.661  11.850  0.1798  0.2471  0.1344
20979W        W37113   2.663   5.142  14.204 -0.1213 -0.0588 -0.0251
20980W        W37114  15.972   0.075   0.572 -0.1605 -0.0422  0.2039
20981W        W37115  11.365   4.361   3.936  0.0493 -0.1025  0.0740
20982W        W37116  16.368   6.526   2.560 -0.1092  0.2748  0.0558
20983W        W37117   0.815   3.985  13.374 -0.1364  0.0560 -0.1260
20984W        W37118   1.030   9.958   0.420  0.0578 -0.0735  0.4071
20985W        W37119   4.032  13.971  14.728  0.2415  0.0691  0.0207
20986W        W37120   0.854  15.031   1.933  0.1683  0.0950  0.3996
20987W        W37121   8.281   6.727   4.987 -0.1298 -0.1751  0.1624
20988W        W37122   0.296   6.677   4.894  0.2762  0.2312 -0.1510
20989W        W37123   2.742   7.588  14.057 -0.1607 -0.1899  0.2143
20990W        W37124   9.586  13.855  10.380 -0.0890  0.1505  0.1221
20991W        W37125   2.108  15.255  10.505  0.1178  0.4192 -0.1534
20992W        W37126  14.411   3.728   2.052  0.0826 -0.0424 -0.0657
20993W        W37127  13.333  16.045  13.564  0.2342 -0.0268  0.0575
20994W        W37128  12.980  11.584  12.153  0.0046 -0.1318  0.1049
20995W        W37129  12.155  11.099   1.891  0.0216  0.2258 -0.3178
20996W        W37130   4.222  13.572  15.824  0.1594 -0.0838 -0.0948
20997W        W37131   5.088  17.583   3.317  0.3468 -0.1443  0.1201
20998W        W37132   5.067   6.696   0.512 -0.0075  0.3172 -0.1878
20999W        W37133  12.399   7.989  14.756 -0.0177 -0.0674 -0.0055
21000W        W37134   0.025   3.526   2.106  0.2591 -0.1712 -0.0303
21001W        W37135  14.689   3.103   3.697  0.0167  0.3750 -0.1645
21002W        W37136  17.259   8.347   5.459  0.0179 -0.2411  0.1093
21003W        W37137  17.510   4.081   3.877 -0.0380  0.1568 -0.1269
21004W        W37138   2.688   3.804  11.159 -0.3053 -0.2237  0.0251
21005W        W37139  11.743   7.488  14.835 -0.0208  0.0147 -0.0200
21006W        W37140   4.600  15.566  12.789 -0.1845  0.0126 -0.1404
21007W        W37141  17.643  16.892  14.554  0.0081  0.1665 -0.1644
21008W        W37142  12.970   4.996   0.942 -0.2411  0.4589  0.1011
21009W        W37143   8.535   8.272  15.876 -0.0768 -0.0104 -0.0034
21010W        W37144   3.776  13.721  11.821 -0.0260  0.0298 -0.2627
21011W        W37145  16.584   6.336  11.627  0.0991  0.1331 -0.1411
21012W        W37146   7.253   1.637   2.722 -0.3877 -0.2532 -0.2303
21013W        W37147  16.113  16.899   3.042 -0.2005 -0.0062 -0.2152
21014W        W37148  14.754  17.282  12.784 -0.3637  0.4578  0.3181
21015W        W37149   7.846  12.198   0.488  0.1015 -0.1263 -0.1102
21016W        W37150   1.664   4.028  13.881  0.0851  0.0258  0.1880
21017W        W37151   2.551   8.514   0.304  0.2096  0.1065  0.1524
21018W        W37152  15.895   6.322   5.575  0.0456  0.2092 -0.1257
21019W        W37153   2.324   4.952   3.845 -0.1657 -0.1438 -0.3382
21020W        W37154  13.935   5.585   1.704 -0.4098 -0.2165  0.0630
21021W        W37155   4.966  13.128   1.217  0.1796 -0.2115 -0.0950
21022W        W37156   6.860   2.359   0.309 -0.2275 -0.2294  0.0974
21023W        W37157  12.490  13.147   5.487 -0.1905 -0.1380 -0.1308
21024W        W37158  15.343  12.560   1.890 -0.2303 -0.0469 -0.0094
21025W        W37159   1.068  16.633   1.538  0.1077 -0.1921 -0.0238
21026W        W37160  16.379  10.901   2.502 -0.2047 -0.0701  0.0188
21027W        W37161  17.958  16.556  14.739 -0.0517  0.0440  0.0931
21028W        W37162  10.666   3.221  13.961 -0.0116 -0.0689  0.1074
21029W        W37163  13.926   8.453   2.240  0.1759 -0.1382 -0.0330
21030W        W37164  11.211  11.185   2.225 -0.0429  0.1766 -0.0337
21031W        W37165   1.754   0.642   3.162 -0.0643 -0.0777  0.1639
21032W        W37166   8.014  10.764  11.135  0.0048  0.1219 -0.0653
21033W        W37167   3.151  13.258  13.636 -0.0724 -0.1556 -0.0997
21034W        W37168   4.379   1.468   0.244  0.3822  0.1592 -0.0447
21035W        W37169  17.800   0.621   3.797  0.0396  0.1141  0.2113
21036W        W37170  16.287   7.077   9.838 -0.0549  0.0537 -0.2562
21037W        W37171   8.123  17.712  10.813 -0.0678 -0.1602  0.1229
21038W        W37172   9.241  16.955   0.993  0.1691 -0.3373  0.0069
21039W        W37173   0.879  15.992  10.410  0.3344  0.0708  0.0039
21040W        W37174   2.837   0.134  13.098 -0.0496 -0.1407 -0.3305
21041W        W37175  10.572  14.896   1.977  0.1662 -0.0315 -0.1149
21042W        W37176   8.971  13.592   2.056  0.2329  0.2160 -0.3860
21043W        W37177   3.091   5.702   4.372  0.4011 -0.0378  0.3042
21044W        W37178  16.685  10.128  11.909  0.0241 -0.1439  0.1120
21045W        W37179  14.177   5.824  15.517  0.1536  0.3106  0.0373
21046W        W37180   5.219   6.909  11.238 -0.1887 -0.0312 -0.1162
21047W        W37181   4.655  12.344  10.621 -0.0896  0.0257  0.1065
21048W        W37182   7.667  14.677  11.775  0.0610  0.0725 -0.0276
21049W        W37183  15.205   8.596   2.227  0.0764  0.1001 -0.1825
21050W        W37184   6.475  12.375  13.014  0.1156 -0.1054 -0.1592
21051W        W37185  17.489   3.365  12.404  0.1068  0.2900 -0.1982
21052W        W37186   0.238   7.318   0.923 -0.1564 -0.2977 -0.0422
21053W        W37187   5.337   8.015   5.592 -0.3147 -0.0653  0.1447
21054W        W37188  18.035   7.228  12.755 -0.0425  0.1545  0.1821
21055W        W37189  16.471   2.863   2.992 -0.0664  0.0722 -0.3214
21056W        W37190  10.037  14.080  15.660 -0.1769 -0.1835  0.2043
21057W        W37191   0.140  13.249  15.494  0.0381 -0.1451  0.0948
21058W        W37192   0.326   9.708   2.566  0.1462  0.1592  0.1538
21059W        W37193   9.774   4.534   4.894  0.6231 -0.1428  0.0036
21060W        W37194   5.097  16.315   3.438 -0.2837 -0.0061  0.0201
21061W        W37195   5.492  10.007   2.706 -0.1455  0.0362 -0.3094
21062W        W37196   5.238   2.469   2.535  0.3034  0.2367 -0.0248
21063W        W37197   8.453  12.416  11.601 -0.0526  0.0623  0.0675
21064W        W37198   0.739   5.978   2.940 -0.0666  0.4438 -0.0850
21065W        W37199   0.907  11.812  11.255  0.1433  0.1577 -0.0588
21066W        W37200   4.018   2.036  15.699 -0.1052 -0.1041 -0.2015
21067W        W37201  11.815  15.497   2.475 -0.3785  0.2129 -0.4694
21068W        W37202  16.692   2.101   1.665 -0.2353  0.1613  0.1097
21069W        W37203  16.962  13.842  12.723  0.3587 -0.0740  0.0709
21070W        W37204   7.263   9.835   1.402 -0.0987  0.0554  0.2103
21071W        W37205   8.676   7.795  16.056 -0.0500  0.0738 -0.1177
21072W        W37206  11.238   3.066   0.032  0.0340  0.0907  0.1127
21073W        W37207  14.141  15.341  11.125  0.1425 -0.1723 -0.1834
21074W        W37208  11.837   7.152   0.972  0.1167  0.1036  0.1072
21075W        W37209  16.933  10.713  12.730 -0.2658 -0.2663 -0.2222
21076W        W37210   6.690   1.828  14.078 -0.0102  0.0954 -0.1957
21077W        W37211  18.484  11.388   4.110 -0.0620  0.3014  0.4550
21078W        W37212   1.913  13.668  13.785  0.1237  0.2929 -0.0701
21079W        W37213   2.045   4.919  13.034  0.3016  0.1330 -0.2223
21080W        W37214   3.699   9.638  14.043 -0.4057  0.4269 -0.0235
21081W        W37215  15.278   7.017   5.021  0.1716 -0.0393 -0.2984
21082W        W37216   2.788   6.348   1.340 -0.0985  0.0704 -0.0382
21083W        W37217  13.043   1.430  12.949  0.0552  0.1351 -0.1202
21084W        W37218  13.174   7.233   1.881 -0.0687  0.2918  0.4279
21085W        W37219   6.630  16.502  10.525  0.4309  0.2000 -0.0782
21086W        W37220  10.014  11.118   1.050  0.1069 -0.1814 -0.3155
21087W        W37221  13.002   8.095  12.080 -0.0243  0.2422 -0.0951
21088W        W37222   5.264   6.486  13.846  0.0124  0.5802 -0.0202
21089W        W37223   9.128   4.153  15.033 -0.1005 -0.2279  0.1161
21090W        W37224   3.017   7.139  13.143 -0.3142  0.1507 -0.2632
21091W        W37225  10.573  11.636  12.033  0.1709  0.1174 -0.3535
21092W        W37226   4.148  15.989  14.784  0.1222  0.3177  0.1302
21093W        W37227  17.163   2.210  11.732 -0.2124 -0.0907 -0.1412
21094W        W37228  11.146  17.630   4.829 -0.1513 -0.1625 -0.2936
21095W        W37229   1.899  17.912   2.383 -0.1279  0.1443  0.1514
21096W        W37230   2.300  13.362  11.968  0.0794  0.1123 -0.0725
21097W        W37231   0.113   2.245   3.395  0.3306  0.2360 -0.2261
21098W        W37232  11.871   3.096   1.391  0.1210 -0.0155 -0.0100
21099W        W37233  14.109  17.632   3.329 -0.0855 -0.1039  0.0054
21100W        W37234  17.355   5.304  11.627  0.2676 -0.1191 -0.0156
21101W        W37235  10.817  18.394   0.759 -0.0716 -0.2895 -0.0598
21102W        W37236   5.244  11.833  11.072 -0.0884  0.2096 -0.1208
21103W        W37237  16.935   8.104  10.340 -0.1568 -0.0059  0.1564
21104W        W37238  13.818   1.233  15.337 -0.1999  0.2225  0.0430
21105W        W37239   0.461  16.401   4.033 -0.1570  0.1952 -0.0844
21106W        W37240  14.363  13.629  12.885 -0.1712 -0.0631 -0.1507
21107W        W37241   1.313  11.955   1.924  0.2847 -0.0202  0.0333
21108W        W37242  11.185  14.271  14.339  0.0003  0.0529 -0.2249
21109W        W37243   1.575   9.628  13.694  0.1566 -0.3058  0.5664
21110W        W37244  16.885   2.053  13.575 -0.2805 -0.0283  0.1274
21111W        W37245  18.455  16.064  13.654 -0.3283  0.0505 -0.1385
21112W        W37246   0.022   3.701   6.156  0.0652  0.0958  0.0980
21113W        W37247  10.786  11.279  12.304 -0.0307  0.0723  0.2308
21114W        W37248   6.731  11.340  10.827  0.0695 -0.1296  0.0157
21115W        W37249   0.657  16.023   3.568 -0.0856  0.1455 -0.0514
21116W        W37250  11.036   7.622   4.791 -0.0971 -0.0963  0.2761
21117W        W37251  11.667   3.653  15.490  0.0431  0.1403 -0.1054
21118W        W37252  12.050  17.344  15.599  0.3932 -0.2439  0.1846
21119W        W37253   6.812   6.118  11.861  0.1211 -0.0348 -0.1314
21120W        W37254   4.900  17.330   1.848  0.0692  0.2119 -0.1252
21121W        W37255   4.624  18.278   4.505 -0.0564  0.0946  0.0684
21122W        W37256   7.124   0.042  13.985  0.1148  0.0417 -0.0034
21123W        W37257   4.095   9.358  13.865 -0.1000  0.2569 -0.0596
21124W        W37258  12.637   6.837  15.969  0.0739  0.3381 -0.0996
21125W        W37259   0.786   9.240   0.661  0.0790 -0.1543 -0.3967
21126W        W37260   2.797  14.939  15.758  0.0773 -0.2284 -0.0884
21127W        W37261  16.134  13.299  15.434  0.0497 -0.0565 -0.4324
21128W        W37262   7.023   4.916  14.089  0.0939  0.0614  0.1695
21129W        W37263  17.785   6.276   4.109 -0.0278 -0.0159  0.2007
21130W        W37264   6.061   3.698  12.657 -0.0004  0.0508 -0.0337
21131W        W37265   4.634  14.928  13.357  0.2257  0.2295 -0.2850
21132W        W37266   8.901   4.043   2.041 -0.1605 -0.0912 -0.2190
21133W        W37267   2.208  11.108   2.239  0.3695  0.0717 -0.4516
21134W        W37268  17.409  15.117   2.934  0.0712  0.0569  0.1340
21135W        W37269   4.453  15.586   2.861  0.4214  0.2193 -0.0387
21136W        W37270   5.119  13.656  15.161 -0.1331 -0.1189 -0.1620
21137W        W37271   0.916  11.812  15.905  0.2982  0.0083  0.2161
21138W        W37272  15.387  16.704   1.975  0.2804 -0.0558  0.2958
21139W        W37273   7.794   2.524  13.034  0.1483  0.2299 -0.3311
21140W        W37274  12.014   7.550   1.218 -0.2448 -0.0370  0.1640
21141W        W37275   1.692  12.743   4.643 -0.0495  0.0022  0.0800
21142W        W37276  16.108  11.773   4.742  0.1474 -0.4193  0.0470
21143W        W37277   2.119  11.548  14.565  0.0653 -0.1923 -0.0763
21144W        W37278   8.189  15.001  13.217 -0.0047  0.0514 -0.1414
21145W        W37279   8.056  17.446   3.247  0.2778 -0.2141 -0.0201
21146W        W37280  17.430   7.721   4.185  0.1119  0.0323 -0.0534
21147W        W37281  15.707  11.129  15.889  0.0125  0.1458 -0.0378
21148W        W37282  16.668  13.984   1.815 -0.0169  0.0253  0.1587
21149W        W37283   0.216   0.259  14.625  0.3351 -0.1510  0.0769
21150W        W37284  17.468  17.960   1.972 -0.2330 -0.0381 -0.1657
21151W        W37285  14.959  13.156  12.493  0.2055 -0.0848 -0.1362
21152W        W37286   9.827   0.882   1.433  0.4400  0.1157  0.1005
21153W        W37287  17.544   4.586   3.630  0.0474 -0.2167 -0.2144
21154W        W37288   7.872   3.808  15.706  0.0845  0.0772 -0.1258
21155W        W37289  17.296  13.151  14.460 -0.0135  0.0690 -0.3111
21156W        W37290  15.409  14.311  13.567 -0.0362  0.0550 -0.0041
21157W        W37291   6.435  16.719   1.282  0.1736  0.0798  0.2830
21158W        W37292  11.611   4.463  12.555 -0.0084  0.1815 -0.4986
21159W        W37293  15.167  16.717  11.770  0.2074  0.4444  0.0356
21160W        W37294   5.815  14.188  10.664  0.0423  0.2138 -0.0162
21161W        W37295  13.806   3.012  15.053 -0.1695  0.0522 -0.1549
21162W        W37296  11.734   5.418  11.898 -0.0297 -0.1149 -0.1383
21163W        W37297   5.502   6.672  15.310 -0.2644  0.1597 -0.0953
21164W        W37298   9.054  18.385  15.134 -0.0004  0.0393 -0.0730
21165W        W37299  17.978  10.009  14.362 -0.0150  0.0923  0.3400
21166W        W37300  10.679  17.022  12.373  0.3799  0.0658  0.1867
21167W        W37301   0.766  10.301   3.199 -0.4271  0.2973 -0.0166
21168W        W37302   3.894  10.643  12.030  0.2574  0.3045  0.0284
21169W        W37303   3.587   3.275   2.883 -0.2808 -0.2584  0.3236
21170W        W37304  13.282  15.823  13.132  0.1588 -0.2145  0.3056
21171W        W37305   9.671   3.376  15.308 -0.3444 -0.1138 -0.0283
21172W        W37306  10.074  10.217   3.067 -0.0319  0.0147  0.1053
21173W        W37307   1.640  17.800   4.351  0.0084  0.0869  0.0475
21174W        W37308  16.815   1.262   2.078  0.1794  0.0484 -0.1599
21175W        W37309  10.075   9.872  15.124 -0.0938 -0.1432 -0.3572
21176W        W37310  12.586  10.416   4.665 -0.0512 -0.3970 -0.2128
21177W        W37311  13.161   4.169  16.036  0.7001  0.1054  0.2582
21178W        W37312   8.324  12.472   0.968 -0.1360 -0.3609  0.2571
21179W        W37313  17.121  13.043  11.882  0.1456 -0.1205  0.1445
21180W        W37314  17.725   9.952  12.580  0.2332 -0.0182  0.3262
21181W        W37315  13.726  17.667  13.108  0.2846  0.0623  0.0603
21182W        W37316   1.108  13.606   3.145 -0.0864 -0.0307 -0.1982
21183W        W37317   4.697   0.750  15.341  0.2723  0.2102 -0.4128
21184W        W37318   7.932  14.518   1.012  0.3414  0.2573 -0.0581
21185W        W37319  18.112  18.201   5.356  0.1577 -0.1464 -0.2553
21186W        W37320   7.927  15.454   3.930  0.0805  0.1257  0.3006
21187W        W37321   9.560   8.128   1.090  0.2503  0.2613 -0.0019
21188W        W37322  16.530  13.286  13.369  0.0597 -0.1067 -0.1869
21189W        W37323  16.485   4.940  12.090 -0.0878 -0.0717 -0.3743
21190W        W37324   0.372  16.993   2.736 -0.3709  0.2047 -0.0064
21191W        W37325   6.392   3.271   1.312 -0.4930 -0.0228 -0.1284
21192W        W37326  16.606   2.384   2.950  0.0225 -0.0452 -0.2513
21193W        W37327   6.547   3.341   4.826 -0.1077 -0.1588  0.1764
21194W        W37328  13.784   9.757  11.473  0.1197 -0.2217  0.0152
21195W        W37329  15.743  18.465   4.871 -0.2221 -0.0007  0.4373
21196W        W37330  10.013   4.816   1.212 -0.1416 -0.0614  0.0743
21197W        W37331   2.554   8.871  13.398  0.2273 -0.2047  0.2605
21198W        W37332  10.520  10.272   1.265 -0.3084  0.2032  0.0695
21199W        W37333   4.002  17.869   4.781  0.1439  0.0074 -0.0484
21200W        W37334   9.296   2.676   4.306 -0.1977 -0.0622  0.0749
21201W        W37335  15.247   4.738  11.869 -0.1379  0.1040  0.0462
21202W        W37336   7.273  10.427  13.474  0.2687  0.0122 -0.2295
21203W        W37337   3.179   5.595  12.617 -0.1194 -0.0781 -0.2457
21204W        W37338   7.913  14.116  13.198  0.3724 -0.2287 -0.0040
21205W        W37339  11.395  15.638  13.084  0.5639  0.2517  0.0420
21206W        W37340   3.750  12.257  16.081  0.1101 -0.1415 -0.2093
21207W        W37341  16.282  15.277   2.472  0.2855 -0.3039 -0.0156
21208W        W37342   1.799  15.052   2.257 -0.1321 -0.2082 -0.3579
21209W        W37343   4.749   5.740  14.080  0.1253  0.1629 -0.1479
21210W        W37344   3.320   6.609   3.563 -0.0676 -0.1514 -0.0913
21211W        W37345  17.163   1.513  12.700 -0.2212 -0.0967  0.1402
21212W        W37346   5.086  14.601  15.406 -0.0552 -0.0851 -0.3493
21213W        W37347  11.767   9.214  12.702 -0.0413 -0.0444  0.1114
21214W        W37348   6.115  10.544  15.145  0.1473  0.1940  0.2802
21215W        W37349   4.743   9.760   3.668 -0.2504 -0.1732 -0.2002
21216W        W37350   9.474  17.114   3.094 -0.1424  0.2486  0.5353
21217W        W37351   0.800  11.362   3.039 -0.2158 -0.1438 -0.0164
21218W        W37352   3.685  11.397  14.472  0.0351  0.2572 -0.0820
21219W        W37353   9.711  11.983   5.276  0.0032  0.2359 -0.1152
21220W        W37354  18.319  16.841   0.791 -0.2092 -0.1682 -0.0331
21221W        W37355  15.353   4.472   4.962  0.1504  0.0899  0.2722
21222W        W37356  13.339  15.834   1.957  0.0960  0.1584  0.0888
21223W        W37357  10.315   1.060  15.288  0.0463  0.0777 -0.1720
21224W        W37358   3.623   2.499  15.739  0.0449  0.4310  0.1834
21225W        W37359   9.113  13.864   1.233 -0.3858 -0.1308  0.1090
21226W        W37360   3.378  12.061  15.812 -0.0943  0.2538 -0.0051
21227W        W37361  15.958  15.790  11.216  0.0535  0.3021  0.1464
21228W        W37362  13.034  11.432  15.250  0.3268  0.0417  0.0328
21229W        W37363   0.741   3.530  14.459 -0.1569 -0.4966  0.0922
21230W        W37364   3.753   9.572  14.921 -0.0353 -0.1124  0.0303
21231W        W37365   0.657   9.754   3.495 -0.0088 -0.1653 -0.1001
21232W        W37366   8.632  17.702   4.584  0.0005  0.5257 -0.1053
21233W        W37367  14.839   8.081  15.614 -0.1250 -0.1276  0.0063
21234W        W37368   4.476   5.097  12.344 -0.2493  0.0687  0.1375
21235W        W37369   9.312  17.322  12.568 -0.2202  0.0337  0.2053
21236W        W37370  16.706  13.273   4.538  0.2018 -0.2222 -0.0416
21237W        W37371  11.568   0.181   4.542  0.0778  0.0307  0.2152
21238W        W37372   9.154   5.296   0.746  0.0107 -0.0733 -0.1804
21239W        W37373  15.372   8.465  11.970 -0.0404  0.0021 -0.0735
21240W        W37374  11.885  16.522   0.382 -0.1728  0.1457 -0.3108
21241W        W37375   3.790  12.601   1.646  0.2281  0.0588 -0.1604
21242W        W37376  14.062   7.017   1.624  0.3920  0.2374 -0.1484
21243W        W37377   4.619   7.687  10.165  0.1451  0.0986 -0.1174
21244W        W37378   8.402   3.312  15.935  0.3117  0.2514 -0.1259
21245W        W37379  13.708   7.879  13.570  0.1379  0.0174 -0.2504
21246W        W37380   5.468   7.085  13.893 -0.3833  0.0116  0.1540
21247W        W37381   7.238  15.992  11.332 -0.1005 -0.1455  0.0313
21248W        W37382   0.980  14.131  11.207 -0.0535 -0.0885  0.2096
21249W        W37383  14.632  14.072   3.645  0.0440 -0.1133  0.0953
21250W        W37384   4.600   6.424   5.219  0.0029 -0.1552  0.0596
21251W        W37385  16.553  12.133   2.423 -0.2012 -0.3214 -0.2477
21252W        W37386   8.186   1.970   2.467 -0.0052  0.1567  0.2976
21253W        W37387   6.174   5.234  12.097  0.3080 -0.3929 -0.1025
21254W        W37388  10.129   4.932   0.160 -0.1149  0.0428 -0.1382
21255W        W37389   0.645   2.978   4.609  0.2336  0.3483  0.3421
21256W        W37390   1.367   0.580  11.041  0.4485 -0.0050  0.1941
21257W        W37391   7.695   2.158   1.206 -0.0011 -0.3812  0.0330
21258W        W37392   5.475   6.175   2.249 -0.4801  0.0810  0.1326
21259W        W37393  15.610  15.767  15.533  0.1635 -0.0815 -0.0544
21260W        W37394  12.657  16.100   3.071 -0.0328 -0.2812  0.2031
21261W        W37395  12.386  18.279   0.759 -0.0391  0.1144 -0.1003
21262W        W37396  13.775   5.641  12.609 -0.1841  0.1924 -0.0144
21263W        W37397   3.367  11.534  13.743  0.1374  0.0078 -0.0403
21264W        W37398   6.466  12.293  14.382 -0.0914  0.0869 -0.1119
21265W        W37399  13.006   0.496   6.009 -0.0923 -0.1066 -0.1520
21266W        W37400  13.178   2.941   0.853  0.0560  0.1832 -0.1358
21267W        W37401   2.895   2.005   0.496  0.5187 -0.1719 -0.2144
21268W        W37402   2.439  12.903   3.390 -0.0805  0.1765 -0.2659
21269W        W37403   8.850  13.334  12.948 -0.1669  0.1311 -0.3015
21270W        W37404   1.292   5.584  11.835 -0.0323  0.0630  0.1300
21271W        W37405  18.386   5.251  13.056  0.0154 -0.1769  0.2346
21272W        W37406  13.708   8.660   4.801 -0.0139 -0.2183 -0.2045
21273W        W37407   6.243   0.385   3.738 -0.2299 -0.4232  0.0636
21274W        W37408   9.896   4.769  12.187  0.1950 -0.0383 -0.0361
21275W        W37409  17.784   7.350  14.764  0.0564  0.1502 -0.2338
21276W        W37410   7.724   6.917  13.706 -0.2129  0.0922 -0.1789
21277W        W37411  17.968  13.451  11.921 -0.1321 -0.1354  0.2471
21278W        W37412  10.374   0.227   4.149 -0.3684  0.0341 -0.0737
21279W        W37413   2.677  17.927  10.924  0.0385  0.0913 -0.1866
21280W        W37414   6.547   7.958   0.821 -0.0083  0.1796 -0.0495
21281W        W37415  11.619  14.581   0.568 -0.0153  0.3585  0.0164
21282W        W37416   4.254  15.280  16.049 -0.1536 -0.0653 -0.0719
21283W        W37417  10.908  11.776   0.251 -0.0436 -0.1124  0.1704
21284W        W37418   7.898   9.936   5.498  0.0107  0.3400  0.3231
21285W        W37419  15.267   0.309   5.678 -0.2690 -0.0478  0.0005
21286W        W37420   2.394   4.717  15.715  0.1674  0.0703 -0.2654
21287W        W37421   5.540  12.277  15.373 -0.1173  0.0273  0.0498
21288W        W37422   6.968  15.678   0.004 -0.0848  0.2001 -0.3254
21289W        W37423   9.462  13.207   3.067 -0.1603 -0.0379 -0.3053
21290W        W37424  13.765   6.463   0.928  0.0320  0.0831 -0.1200
21291W        W37425   0.819   3.941  15.766  0.1283  0.0239 -0.0493
21292W        W37426   0.084   5.584  11.565 -0.0556  0.2131  0.2155
21293W        W37427   2.360  18.278  15.350  0.2244 -0.2940  0.1278
21294W        W37428  15.209   0.487  12.130 -0.0486  0.2362  0.0403
21295W        W37429   6.807   6.446   1.116  0.2514 -0.1359  0.0441
21296W        W37430   6.124   5.727   3.288 -0.0440 -0.0708  0.1843
21297W        W37431   2.010   7.998  14.652  0.3997  0.0967  0.0081
21298W        W37432   7.385   0.601   0.204  0.1593 -0.2167  0.0232
21299W        W37433   5.997   9.979   1.945  0.1998 -0.0679 -0.2095
21300W        W37434  11.840   9.108  11.316 -0.0326  0.1077 -0.1911
21301W        W37435  17.255  18.298  11.445 -0.2918  0.0294  0.0669
21302W        W37436  17.496   0.988   3.982  0.1582  0.0931  0.3091
21303W        W37437   0.350  13.010  13.597 -0.0607  0.0163  0.0399
21304W        W37438   8.589  15.460   3.173  0.3442 -0.0429 -0.1248
21305W        W37439   9.623  15.822   0.551 -0.0123  0.2961 -0.0448
21306W        W37440   8.421   8.986   0.381 -0.1778  0.1993  0.2111
21307W        W37441  11.599   9.701   5.659  0.0397 -0.0013 -0.0221
21308W        W37442   0.462  15.947  11.244  0.0824 -0.1660  0.0644
21309W        W37443  12.682   8.723  15.979  0.3158  0.1910 -0.0991
21310W        W37444   9.774   0.021  12.451 -0.3450 -0.0566  0.2239
21311W        W37445   6.932  15.275  10.766  0.1311  0.2374  0.1777
21312W        W37446   2.791   4.036   2.900  0.0738 -0.0636 -0.0306
21313W        W37447   8.643  14.767   1.386  0.0532  0.0104  0.1147
21314W        W37448   0.863   9.441   5.377  0.1557  0.1727 -0.0522
21315W        W37449   9.722   8.997   0.568  0.0604  0.0184 -0.1249
21316W        W37450  14.677  14.963  14.571  0.1966 -0.2484  0.0929
21317W        W37451   5.451   0.681  13.449  0.1382  0.3071 -0.2594
21318W        W37452  10.971  13.523   4.457  0.0376  0.0021 -0.0633
21319W        W37453  18.291   7.030  14.929  0.2870  0.2141  0.1295
21320W        W37454   7.023  15.209  15.793 -0.1211 -0.0595  0.4696
21321W        W37455   0.709  16.874  13.891 -0.0822  0.0172  0.0855
21322W        W37456   2.549  10.861   0.542 -0.0142  0.2539  0.1794
21323W        W37457  11.978  12.375  15.972  0.0839  0.2324  0.3448
21324W        W37458  14.810   8.842  10.633 -0.2936  0.3331  0.2873
21325W        W37459   6.618  15.867   3.574  0.0283  0.0815  0.5916
21326W        W37460  16.724  10.758   4.255 -0.1019 -0.3566 -0.0056
21327W        W37461  10.951  12.656   1.984  0.1094  0.2158 -0.0390
21328W        W37462   0.255   6.299   0.080 -0.3176 -0.0562  0.0903
21329W        W37463   5.396  18.008  12.829 -0.0331 -0.2721 -0.3975
21330W        W37464   8.751   4.635  11.713 -0.4495 -0.3599  0.0135
21331W        W37465  12.497   3.306  12.027  0.0486  0.0086  0.0499
21332W        W37466   6.079  17.241   4.453  0.0122 -0.3497 -0.1656
21333W        W37467   2.115   1.119   0.790 -0.1369 -0.0545 -0.0461
21334W        W37468   2.103   7.013  15.819 -0.1434 -0.0490  0.3099
21335W        W37469   5.612   6.739  13.535 -0.0228  0.0635  0.1796
21336W        W37470   4.544   9.156   5.099 -0.2190  0.3157  0.0436
21337W        W37471  17.846  17.687   4.348 -0.0444  0.2349  0.0285
21338W        W37472  17.397  11.044   1.418  0.0199 -0.2774  0.2971
21339W        W37473  16.503   8.789   9.869  0.0630  0.0964  0.1692
21340W        W37474  17.347   9.033  12.053 -0.0012  0.1637  0.2622
21341W        W37475   3.614   6.913  10.439  0.0256  0.0530  0.1519
21342W        W37476   5.425  18.028  11.592 -0.0389  0.1394 -0.0863
21343W        W37477  12.306   1.720   4.912  0.0348 -0.1485  0.1095
21344W        W37478   0.409  13.384  11.643  0.1481 -0.0967 -0.0676
21345W        W37479   8.920  17.218  13.698 -0.1377 -0.2564 -0.3492
21346W        W37480  11.020   4.802   2.086  0.2082 -0.4094 -0.1961
21347W        W37481  10.564  15.843  11.196  0.0941 -0.0246 -0.1575
21348W        W37482   9.898  10.320  14.850  0.1116 -0.2789  0.1152
21349W        W37483   1.375   6.139   1.519  0.0220  0.1651  0.1790
21350W        W37484   3.904  10.956  10.919  0.2274  0.1186 -0.0756
21351W        W37485  15.313   5.257  11.659 -0.0789 -0.0219 -0.1530
21352W        W37486  12.258  12.738   4.804  0.1657  0.0248 -0.0588
21353W        W37487   0.845  11.639   2.622  0.0190 -0.4049  0.0511
21354W        W37488  17.532  13.598  14.624 -0.3036 -0.0851 -0.2208
21355W        W37489   7.576  12.526  13.150 -0.0164 -0.0141  0.1102
21356W        W37490  13.841   5.228   5.235 -0.2524  0.0432  0.2147
21357W        W37491  11.797   8.245  15.510  0.4414 -0.0064 -0.0475
21358W        W37492   4.700  11.527   4.457  0.2880 -0.0359 -0.0067
21359W        W37493   4.261  15.576  12.393 -0.0086  0.1202 -0.1399
21360W        W37494  15.080   3.765   1.193 -0.5270 -0.0893  0.0738
21361W        W37495  17.687  11.298  14.010  0.0903 -0.2863  0.1285
21362W        W37496  18.054  14.013  12.023  0.0344 -0.0424 -0.0141
21363W        W37497  16.090   4.229   2.094  0.1128 -0.1728 -0.4494
21364W        W37498  14.038  12.180   5.434 -0.1078 -0.2826 -0.0398
21365W        W37499   9.396  13.997   4.074 -0.0263 -0.0652 -0.3784
21366W        W37500  12.685  10.486  12.146  0.0237 -0.0865 -0.0992
21367W        W37501   8.225  11.720   0.066 -0.0204  0.2488  0.1486
21368W        W37502   1.466   9.239   2.975  0.0412  0.1271  0.1897
21369W        W37503  17.040   7.955   2.231  0.0001  0.3998  0.1670
21370W        W37504  17.520   0.562  14.459  0.1019 -0.1030  0.2312
21371W        W37505  10.073   0.031  12.030 -0.0384 -0.0638 -0.0953
21372W        W37506   7.564   4.988  12.190  0.4808 -0.2925  0.0535
21373W        W37507   2.478   9.668  13.260  0.0460  0.2327 -0.1449
21374W        W37508   8.978  17.116   2.357  0.1124  0.0330  0.2990
21375W        W37509  10.455   8.428   0.784 -0.2181  0.3017 -0.1086
21376W        W37510  18.155  10.213  10.619 -0.2000 -0.2005  0.1638
21377W        W37511   2.329   1.093   5.604 -0.0940 -0.0452  0.2638
21378W        W37512   4.820   9.553  11.256  0.1353  0.1315 -0.2382
21379W        W37513   1.966   6.072  15.691  0.2299  0.0976  0.1479
21380W        W37514  15.342   4.637  11.356  0.1660 -0.3821  0.1047
21381W        W37515   4.418  17.632   0.959 -0.0359 -0.0195  0.3539
21382W        W37516  12.172   8.864  13.097 -0.1304 -0.0375  0.2094
21383W        W37517   9.744   6.463   6.123  0.1689 -0.0076 -0.1182
21384W        W37518   3.819  13.147  12.751  0.0990 -0.0606  0.0438
21385W        W37519   2.255   4.089  14.089 -0.0773  0.0521 -0.3385
21386W        W37520   4.894   4.825  13.150  0.1439 -0.1293  0.0730
21387W        W37521  10.187   5.777  13.313 -0.1543 -0.0444  0.0849
21388W        W37522   1.226  17.147   9.861  0.2240 -0.2169  0.0220
21389W        W37523   0.160  12.379  14.568 -0.0771  0.1183  0.1169
21390W        W37524   0.861   2.624   1.697  0.0534 -0.1069  0.1769
21391W        W37525  15.306  11.537   1.550  0.0071 -0.0091  0.2535
21392W        W37526   1.468  12.441  14.033 -0.4429 -0.2163 -0.1000
21393W        W37527  12.736   7.065  13.582 -0.1244  0.0230  0.1923
21394W        W37528   9.269   8.877   3.255 -0.1028  0.2526  0.1922
21395W        W37529  13.401   4.316   4.319  0.0557 -0.0972 -0.2730
21396W        W37530   6.261  13.174   5.588  0.0272 -0.0612  0.2199
21397W        W37531  15.484  10.157   3.752  0.0195 -0.0638 -0.0357
21398W        W37532   8.001  15.832   0.714  0.0686 -0.1992  0.0605
21399W        W37533   1.941   3.041   1.051  0.2042  0.0034 -0.0411
21400W        W37534   7.996  10.941  12.993 -0.2829 -0.2849  0.3064
21401W        W37535  15.229   9.309  12.055 -0.0120 -0.2186  0.0945
21402W        W37536   1.286   6.395   4.864 -0.0214  0.1423 -0.1153
21403W        W37537  17.569   0.765  13.084 -0.0448 -0.2759 -0.0203
21404W        W37538   6.866  13.028   3.393 -0.0698 -0.1410  0.0973
21405W        W37539  17.982  12.136  13.453  0.1669 -0.0382  0.0942
21406W        W37540  12.488  15.083  12.127 -0.0476  0.0560 -0.0376
21407W        W37541   5.486  12.888  13.515 -0.2065 -0.0336 -0.0523
21408W        W37542  15.386   6.708   2.892  0.1150 -0.0370  0.0934
21409W        W37543  12.901   4.903  11.592  0.0935 -0.1928 -0.3403
21410W        W37544  11.817   8.073  13.560  0.2359 -0.1142  0.2137
21411W        W37545   3.384   1.661  15.264  0.0325 -0.0265 -0.0912
21412W        W37546  13.260  14.113   3.624  0.1427 -0.1147 -0.0889
21413W        W37547  12.472   9.119  14.916 -0.1928 -0.1108 -0.0606
21414W        W37548   4.786  17.128  15.970  0.1605 -0.0146 -0.1366
21415W        W37549   8.476  10.670   2.626  0.0393 -0.3649  0.0758
21416W        W37550  15.178  13.391  13.158 -0.2375  0.0627 -0.0748
21417W        W37551   7.073  18.079  14.950 -0.1041  0.2177  0.1941
21418W        W37552  13.219   8.508   0.045  0.0350 -0.2778 -0.1176
21419W        W37553  18.370  13.807  12.431  0.3331  0.2599  0.1107
21420W        W37554   0.411   9.994  15.573 -0.0749  0.3557 -0.0941
21421W        W37555   6.545  11.114  12.854 -0.1576 -0.0759  0.0256
21422W        W37556   9.273   0.162   6.032  0.0373  0.3336 -0.1453
21423W        W37557   1.758  16.372   1.262  0.1116 -0.1189 -0.2261
21424W        W37558   4.808  17.677   4.604  0.0496  0.0485  0.2532
21425W        W37559   1.846  18.351   4.210  0.0417  0.1291 -0.1147
21426W        W37560   9.302   8.355  15.059  0.1231  0.0883 -0.0832
21427W        W37561  16.426   4.044  11.783  0.2289  0.0495  0.1810
21428W        W37562   1.336   0.173  14.274  0.2483 -0.1697 -0.0295
21429W        W37563   2.307   3.683   6.058 -0.1018 -0.1525  0.0312
21430W        W37564  10.402   9.056  11.870  0.0286  0.0631  0.2202
21431W        W37565   0.576  14.259   1.294 -0.0450 -0.0275  0.0571
21432W        W37566   1.413   0.959   4.853 -0.0733 -0.0237 -0.0017
21433W        W37567  14.802   6.186   4.274  0.0334 -0.1335 -0.1802
21434W        W37568   0.239   2.539  11.670 -0.3014 -0.0855 -0.0018
21435W        W37569  17.151   6.581  14.783 -0.2389 -0.1520 -0.2324
21436W        W37570  13.287  12.837  13.699 -0.4844  0.0289  0.3730
21437W        W37571  14.105   9.569   1.856  0.0722 -0.2388 -0.1865
21438W        W37572  17.484   4.666   5.429  0.0691  0.1062 -0.0603
21439W        W37573   9.073  17.223  14.931  0.0951  0.2700 -0.0747
21440W        W37574  11.912  18.436   3.603 -0.0522  0.0425 -0.0210
21441W        W37575  15.797   9.401   4.309 -0.0682  0.1897 -0.2077
21442W        W37576   6.474   1.412   0.612 -0.0591 -0.1132 -0.1946
21443W        W37577   5.775   6.440  13.027  0.1664  0.2164  0.0569
21444W        W37578   3.646   8.714  15.044 -0.1104  0.0533 -0.0378
21445W        W37579  10.487   2.348  13.880 -0.1654 -0.1556 -0.1221
21446W        W37580   5.911  12.879   3.347  0.3175 -0.1342  0.2284
21447W        W37581  16.833   1.592  13.105  0.3464 -0.0469 -0.0817
21448W        W37582  15.616  12.500   1.476  0.0488 -0.2002 -0.2769
21449W        W37583   6.400   7.042  15.399 -0.3812 -0.3593 -0.0984
21450W        W37584  14.803  12.428   4.329  0.1629  0.3516  0.2238
21451W        W37585  11.691  14.280   4.432 -0.4319  0.0301  0.2015
21452W        W37586   9.260   9.190   2.262  0.2155 -0.0751  0.3663
21453W        W37587   4.605  13.849  11.206 -0.0211  0.1612 -0.0156
21454W        W37588   9.199   3.718  12.832  0.3596 -0.4276 -0.2283
21455W        W37589  17.362   6.639  11.070 -0.0366  0.0353 -0.0794
21456W        W37590  11.550  18.394   1.895  0.1524  0.3799  0.2203
21457W        W37591   1.539  11.195  10.505  0.2908  0.3068 -0.3268
21458W        W37592   7.734   1.944  13.210  0.0889 -0.0492  0.0906
21459W        W37593   0.178   7.520  13.422  0.1134  0.0760  0.2162
21460W        W37594   3.363   7.426   0.142 -0.0879  0.0310  0.1339
21461W        W37595  13.351   8.431   5.041  0.0470  0.3965 -0.1932
21462W        W37596   8.611  11.945  12.321 -0.0105  0.1330 -0.0112
21463W        W37597  12.254   4.960  14.923 -0.0015  0.1695  0.0255
21464W        W37598   2.825   9.542   1.842  0.1482 -0.0189 -0.3340
21465W        W37599  16.872  10.626   3.795  0.1469  0.3858  0.0847
21466W        W37600   7.414  16.823   4.254  0.0148  0.0323 -0.3130
21467W        W37601  16.663   1.738  12.691  0.0243  0.1100 -0.0564
21468W        W37602  16.232   3.458   5.358 -0.3399 -0.1946  0.3484
21469W        W37603   2.344   5.887   0.220 -0.1659  0.2430 -0.2123
21470W        W37604   0.921   5.360  12.507 -0.1935  0.0219 -0.0204
21471W        W37605   1.196  11.679  12.146  0.1752  0.0307  0.0365
21472W        W37606   7.107  12.776   1.314  0.1178 -0.2773  0.2319
21473W        W37607   6.696   4.947  12.171 -0.0551 -0.1455 -0.1109
21474W        W37608   6.886  13.770  11.568  0.1738 -0.0644 -0.0361
21475W        W37609   6.838   5.700   2.940 -0.1565 -0.1994 -0.3053
21476W        W37610   0.108   2.648  11.114  0.1019  0.5031  0.0195
21477W        W37611  11.302   2.837   4.793 -0.1240 -0.0923  0.0533
21478W        W37612  18.289  14.007  11.086 -0.1168 -0.1507 -0.3440
21479W        W37613   3.658  16.346  11.196 -0.0121 -0.1984 -0.1259
21480W        W37614   4.233   9.092   3.118  0.1670 -0.1181  0.2237
21481W        W37615   9.710   5.310  15.295 -0.0798 -0.0416 -0.0103
21482W        W37616  16.662  17.561   0.699 -0.1814 -0.1075  0.1716
21483W        W37617  11.725   6.111  12.681  0.0040  0.1806  0.0343
21484W        W37618  11.112   3.185   5.536 -0.0453 -0.3829 -0.4285
21485W        W37619  13.125   3.936   1.726 -0.0690 -0.1035 -0.3129
21486W        W37620  15.232   4.492  15.682  0.2442 -0.0909  0.4061
21487W        W37621   6.393  16.825   4.431  0.1133  0.0268 -0.0384
21488W        W37622  12.767   4.041  12.956 -0.1127 -0.3956  0.0793
21489W        W37623   2.732   4.566  15.367 -0.1973  0.0294 -0.0225
21490W        W37624  17.795  12.603  13.918  0.2850  0.1880  0.1544
21491W        W37625  15.385  12.835  11.944  0.0604 -0.1548 -0.2561
21492W        W37626  10.649  13.178  12.969 -0.1316 -0.2083  0.1265
21493W        W37627   1.984   1.804   5.434 -0.1913  0.1318 -0.0103
21494W        W37628   4.698   7.676   0.526 -0.1019  0.0712 -0.1062
21495W        W37629   2.810   1.499  14.168  0.1983 -0.0013  0.0205
21496W        W37630   0.931  15.348   1.135 -0.0296  0.0933  0.2659
21497W        W37631  18.128  14.131   4.079  0.1303  0.0098  0.1641
21498W        W37632  18.052   6.900  10.363  0.3944  0.0126  0.1882
21499W        W37633  16.106   1.796   3.044 -0.0142  0.1836  0.0429
21500W        W37634   7.784   5.127   1.779 -0.1086 -0.0370  0.5661
21501W        W37635   3.653   1.189   1.586  0.0328  0.1150 -0.0828
21502W        W37636  13.746  13.994  15.513  0.1458  0.1190 -0.0002
21503W        W37637  11.722  18.275  15.665 -0.1727 -0.2674 -0.1889
21504W        W37638  10.457   8.089   3.565 -0.2063  0.1922  0.1499
21505W        W37639   2.258   9.223   2.945  0.1607 -0.0645  0.1724
21506W        W37640  11.927  14.955  11.385 -0.1185 -0.2088  0.0680
21507W        W37641   8.461  11.757  15.303 -0.0579  0.0865 -0.0404
21508W        W37642  17.705   2.281  13.921  0.2427  0.4864  0.2593
21509W        W37643  10.864   3.875   5.409  0.2950 -0.2371  0.0940
21510W        W37644  10.587   4.498  15.204  0.1359 -0.0564  0.1894
21511W        W37645   0.617  17.885   0.335  0.1120 -0.0207 -0.0756
21512W        W37646  16.293   8.526   2.017  0.2663 -0.2059  0.1970
21513W        W37647  12.466  10.874  15.917  0.3134 -0.2703  0.0432
21514W        W37648  12.005  18.222  14.313  0.4195  0.0932  0.1106
21515W        W37649   7.866   7.730  14.318 -0.0710 -0.1768 -0.0850
21516W        W37650   0.845  12.211  13.381  0.2339  0.0128  0.0264
21517W        W37651   5.293  17.965   2.200  0.2535 -0.1055 -0.5100
21518W        W37652   5.649  16.735  16.059  0.2309  0.1266  0.1581
21519W        W37653   8.619   4.466   5.368 -0.3300  0.0943  0.0207
21520W        W37654  18.179   7.716   4.684 -0.0363  0.2202  0.0887
21521W        W37655   8.569  13.693   3.371  0.1054  0.0330  0.1191
21522W        W37656  11.557   8.347   6.686  0.0413 -0.0335  0.2652
21523W        W37657   3.495   9.533  14.495 -0.3256 -0.1661  0.3257
21524W        W37658  16.832  10.316   3.411 -0.2187  0.1300 -0.5902
21525W        W37659  18.105   1.855   1.699 -0.1269 -0.4226 -0.1326
21526W        W37660   0.938   8.803  10.680  0.0254  0.1057 -0.0202
21527W        W37661  10.768   7.982  13.914 -0.1400 -0.0428  0.0060
21528W        W37662   4.540   6.688  12.396  0.2337  0.3713 -0.2044
21529W        W37663  11.824  13.956  13.672 -0.0455 -0.4508 -0.2576
21530W        W37664   0.385  16.747  15.465 -0.2470 -0.0279  0.1739
21531W        W37665  11.438  16.526   2.201 -0.4362  0.0754  0.0847
21532W        W37666   2.131   9.612   2.225 -0.0916 -0.0523  0.2152
21533W        W37667  18.277   1.625  12.316 -0.1349 -0.1460  0.3230
21534W        W37668   7.706  12.037   4.204  0.0375  0.0184  0.1654
21535W        W37669  10.950  14.463  13.852 -0.0627  0.0724 -0.3756
21536W        W37670   1.975  14.100   1.845  0.2209  0.3218 -0.0153
21537W        W37671   5.123   8.261   2.664 -0.0133  0.0533  0.1097
21538W        W37672  11.114  10.027   3.025  0.2470  0.0089 -0.0671
21539W        W37673  11.972   6.405  14.157  0.3052 -0.0519 -0.1075
21540W        W37674  13.095   4.308  14.104  0.1353 -0.1987 -0.1372
21541W        W37675  15.304  13.421  11.204 -0.0807 -0.2073  0.3399
21542W        W37676  17.297   6.103   4.261  0.1547 -0.1237 -0.1808
21543W        W37677   6.733   8.448  11.753 -0.1002  0.0167  0.0395
21544W        W37678   2.558   5.677  13.210  0.3840  0.0815 -0.1239
21545W        W37679  17.714  10.536   0.077 -0.2290  0.0542  0.2993
21546W        W37680  11.154  16.867  12.673  0.2969  0.0714  0.1130
21547W        W37681   0.701  11.936   1.693 -0.0991  0.0579 -0.1287
21548W        W37682   5.785  16.090  15.375  0.3184  0.5183  0.0538
21549W        W37683   8.756   5.322   2.427  0.2122 -0.0417  0.0634
21550W        W37684  13.375   4.162  12.174 -0.2520 -0.1595  0.0615
21551W        W37685   1.155   0.731  13.088  0.1368 -0.0515 -0.1047
21552W        W37686   9.595  16.623   2.484 -0.2899 -0.1015 -0.2278
21553W        W37687   4.012   5.429   5.173 -0.1381 -0.2251  0.2851
21554W        W37688   2.324   6.856  13.594  0.1708  0.1335 -0.1972
21555W        W37689   0.440   4.414  13.631 -0.0221 -0.0240  0.0416
21556W        W37690  12.064   6.563   1.490 -0.1556  0.0050  0.2917
21557W        W37691   5.922  12.470   1.325  0.0427  0.0158  0.0980
21558W        W37692  14.915  10.250   2.763 -0.0837  0.2683 -0.1925
21559W        W37693   4.365  17.891  14.936 -0.3237  0.0950  0.1115
21560W        W37694   5.924  13.672   9.849 -0.2323  0.3262 -0.1515
21561W        W37695  17.981   0.011   1.590  0.1343  0.3116  0.2005
21562W        W37696   6.475  15.519   4.425  0.0975 -0.0812  0.1924
21563W        W37697   6.961   0.123   0.475 -0.0784 -0.0055  0.0567
21564W        W37698  15.224   1.381  15.692  0.2836 -0.0964  0.2173
21565W        W37699  13.380   8.458   1.589 -0.3822  0.0821  0.1162
21566W        W37700   1.540  15.271  14.406  0.3754  0.2013  0.1544
21567W        W37701   4.269   7.530  11.525  0.2392 -0.1605 -0.2102
21568W        W37702  11.006  16.592  15.712  0.1193 -0.3290  0.0597
21569W        W37703  14.172  10.247  14.508 -0.0701 -0.3795  0.2164
21570W        W37704  13.829  17.308  14.131  0.4781 -0.1377  0.2954
21571W        W37705   3.018   1.524   5.581 -0.0082 -0.1648 -0.2180
21572W        W37706   1.846   5.494  11.844 -0.0871  0.1875  0.1027
21573W        W37707  16.598  15.057  12.208 -0.0593  0.2007  0.2009
21574W        W37708   9.921  17.497  12.773 -0.0089 -0.1283 -0.1732
21575W        W37709   6.831  12.426   5.422 -0.0435 -0.0801  0.2825
21576W        W37710   4.527   4.833  12.830 -0.1234  0.2421  0.2414
21577W        W37711   4.454  16.702  11.687  0.3109 -0.0320  0.1118
21578W        W37712  14.277   4.543   6.086  0.0315 -0.1793 -0.1869
21579W        W37713   4.924   8.273  15.821  0.0177 -0.3147 -0.1954
21580W        W37714   4.537   1.289  10.083  0.1971  0.3343  0.2434
21581W        W37715   9.686   1.068  15.955 -0.0058  0.0027 -0.1811
21582W        W37716  12.315   1.887  13.534 -0.3302  0.0369  0.0358
21583W        W37717  13.817  14.063   1.297  0.0602  0.0709  0.1059
21584W        W37718  14.729   9.683   2.319  0.0987 -0.2301 -0.5586
21585W        W37719  18.418   0.996   4.727  0.1213 -0.1239  0.0572
21586W        W37720   2.490  13.229   0.707  0.1661 -0.1246 -0.1239
21587W        W37721   5.065  14.695   2.117  0.3245 -0.2011 -0.0661
21588W        W37722   3.647   1.331  13.481  0.0522 -0.2824  0.0027
21589W        W37723   6.606  10.532   1.768  0.4008  0.0529 -0.1771
21590W        W37724   9.233  11.097  11.541 -0.5335  0.2970  0.1015
21591W        W37725  15.845   5.898  14.107 -0.0052 -0.2738 -0.1957
21592W        W37726   4.022  17.786  11.325  0.0607 -0.3158 -0.0611
21593W        W37727   2.033  17.764  10.345 -0.3004 -0.2262 -0.0262
21594W        W37728  10.834  13.540  14.002 -0.2679  0.0620 -0.0851
21595W        W37729   7.371   8.351   0.857  0.1322 -0.2294  0.2582
21596W        W37730   4.857   1.708   2.682  0.2800  0.0108 -0.2307
21597W        W37731   9.667   2.133  14.785  0.4221 -0.2425  0.0317
21598W        W37732   6.481  12.845   5.096 -0.2837 -0.0482  0.0847
21599W        W37733   4.529   5.902  15.790 -0.0669 -0.0574 -0.0517
21600W        W37734   3.159  12.400  10.661 -0.1142 -0.1130 -0.0745
21601W        W37735   9.002   9.145  13.619 -0.1206 -0.0566 -0.3567
21602W        W37736  11.701   3.289  15.849  0.1512 -0.1688 -0.0949
21603W        W37737   2.068  13.037  14.419  0.1922  0.2304  0.1881
21604W        W37738  17.115  15.412   3.156  0.1419  0.0027 -0.1885
21605W        W37739  14.595  15.915   3.099 -0.0624 -0.1292 -0.0217
21606W        W37740  17.230   0.964  11.061  0.2372  0.3799  0.1229
21607W        W37741   8.095  14.455  15.269 -0.1320  0.0175 -0.2357
21608W        W37742   2.923  10.795   1.250  0.2553  0.2152  0.1677
21609W        W37743  15.291  15.274   2.657  0.1127 -0.0103  0.0063
21610W        W37744   6.007   3.779  11.131 -0.2219 -0.1356  0.0047
21611W        W37745   7.046   5.891   3.675  0.2823 -0.0332  0.1082
21612W        W37746  12.166  13.039   0.838 -0.0044  0.1363 -0.1334
21613W        W37747  11.252  12.986   2.318 -0.2965 -0.1363 -0.1432
21614W        W37748   2.612   7.430   5.189  0.2899 -0.3448 -0.2721
21615W        W37749  18.179   6.530   1.752 -0.0065  0.0862 -0.0720
21616W        W37750  16.420   3.642  12.112 -0.1041 -0.0019  0.1261
21617W        W37751  11.359   4.882   3.931 -0.0465 -0.2943 -0.2178
21618W        W37752  17.664   4.011   1.186  0.0061 -0.0828 -0.0801
21619W        W37753   9.432  10.754   3.686  0.1445 -0.0965 -0.2306
21620W        W37754  10.362   9.829  11.237 -0.1928 -0.0704 -0.1328
21621W        W37755  13.105  11.633   3.691  0.0787  0.0077 -0.0202
21622W        W37756   4.353  18.264   3.258  0.2254  0.0716 -0.1703
21623W        W37757   0.941  14.273   3.656  0.1185  0.2143 -0.0346
21624W        W37758   5.902   8.838   0.801  0.0605 -0.2447 -0.1476
21625W        W37759  12.745  17.818   3.882  0.0440  0.1665 -0.0714
21626W        W37760  16.876  11.097  11.480  0.1057 -0.3063 -0.0172
21627W        W37761   9.968   6.325   2.727 -0.0738 -0.0864  0.1199
21628W        W37762  13.563   3.815   4.419  0.0340  0.1781  0.0528
21629W        W37763   6.497   3.847  11.235  0.5087  0.0578 -0.0904
21630W        W37764  16.678  13.188   0.172 -0.2247 -0.2115 -0.1831
21631W        W37765   8.876   7.331   3.282  0.2186 -0.0195 -0.0741
21632W        W37766  17.815  18.242  12.360 -0.2103  0.1591  0.3249
21633W        W37767   6.695   9.488  15.609  0.0961 -0.2466 -0.2595
21634W        W37768  18.078  14.516  12.035  0.0523 -0.1653 -0.2053
21635W        W37769   5.907   6.684  15.650 -0.1523 -0.3659  0.0232
21636W        W37770  13.573   3.500   1.990  0.1237 -0.0659 -0.0074
21637W        W37771   6.151   0.774   2.452  0.2072  0.1879  0.0384
21638W        W37772   0.427   3.136   2.797 -0.0694 -0.2449 -0.3768
21639W        W37773  13.247   0.673  15.524  0.1976  0.0516  0.1861
21640W        W37774  10.035   1.231  14.010  0.1912  0.2796  0.2100
21641W        W37775   2.810   6.871   1.538 -0.1753  0.0226  0.2558
21642W        W37776   6.618  17.382  15.418  0.1163  0.1965 -0.0318
21643W        W37777  14.563   2.907  12.673 -0.1291 -0.3789 -0.2041
21644W        W37778  15.130  12.979  12.921  0.3452 -0.0402 -0.2058
21645W        W37779  10.523   8.849   4.644  0.0355  0.2488 -0.0342
21646W        W37780   7.587   1.965   5.418 -0.0765 -0.1611 -0.2700
21647W        W37781   2.382   3.841   2.691 -0.3566 -0.1262  0.0344
21648W        W37782  15.929   6.243  12.263 -0.1629  0.3090  0.0443
21649W        W37783   9.813  10.713  13.139  0.2417  0.3794  0.1535
21650W        W37784   9.654  10.427  11.040  0.1280 -0.1871  0.0281
21651W        W37785  14.222  15.795  11.180 -0.2507  0.0048 -0.0614
21652W        W37786   5.173   3.902  12.087 -0.0663  0.0560 -0.0564
21653W        W37787  17.353  11.501  11.678 -0.1036 -0.0524  0.0308
21654W        W37788   6.754   2.022   0.679  0.1800  0.0165 -0.1212
21655W        W37789   7.834  13.807   4.305 -0.0283  0.0927 -0.1906
21656W        W37790   1.851   6.140  11.293 -0.3120 -0.3600 -0.0353
21657W        W37791   7.511  14.075   2.950  0.1825 -0.0412  0.3192
21658W        W37792   9.634   9.852  16.090 -0.0079  0.1555 -0.0392
21659W        W37793  18.031  14.956   2.424  0.2079  0.1463  0.2685
21660W        W37794   4.944  11.894   4.839 -0.1151  0.1437 -0.0728
21661W        W37795  14.407  12.270  14.877 -0.1834 -0.2345  0.1069
21662W        W37796  17.132   3.427   1.815 -0.0106  0.0193 -0.1635
21663W        W37797  12.867   2.411   3.543  0.1334 -0.0045 -0.1402
21664W        W37798  16.754   3.089   1.642  0.2960 -0.0642 -0.1878
21665W        W37799  15.887   1.393  13.016 -0.3793  0.0456  0.0818
21666W        W37800   4.520  15.609  11.488  0.2052  0.1312 -0.0868
21667W        W37801  17.542  15.754   1.827  0.1653 -0.3488 -0.2260
21668W        W37802   0.476   7.472  11.897  0.2447  0.0953 -0.2254
21669W        W37803   0.590   5.507   3.161  0.1166  0.1540 -0.1221
21670W        W37804   4.509  17.253  12.885  0.1863  0.3166  0.0047
21671W        W37805  15.813   9.050  11.210  0.2682  0.0133  0.2130
21672W        W37806   9.761   3.442  13.428 -0.0155 -0.1037  0.0295
21673W        W37807   6.642   0.068   3.742  0.1591 -0.0947 -0.1400
21674W        W37808   9.815   9.273  13.279 -0.0587  0.3306 -0.3630
21675W        W37809   3.141  12.878   2.148 -0.1065 -0.1745  0.2100
21676W        W37810  13.095   1.022   0.774  0.0054  0.3315 -0.2288
21677W        W37811   5.047   5.808   0.426 -0.1259  0.2038 -0.1805
21678W        W37812  13.666   0.133   0.130 -0.0740 -0.1669 -0.1606
21679W        W37813   4.093  15.124   1.289  0.3557  0.4483 -0.2038
21680W        W37814   1.373  12.540  15.356  0.3038 -0.0629  0.1809
21681W        W37815  10.104   1.896   1.420  0.3012  0.3159 -0.1080
21682W        W37816  17.449   4.951   4.789 -0.0110  0.0683  0.2323
21683W        W37817  16.806  15.314  13.994 -0.3010  0.0441 -0.0387
21684W        W37818   4.925   5.549   1.894  0.2890 -0.2095  0.0167
21685W        W37819  14.628   3.559   1.366 -0.2297  0.1507 -0.0898
21686W        W37820   1.970  12.709   3.326  0.2208 -0.0192  0.1456
21687W        W37821  11.811   1.349  14.211 -0.3501 -0.1575  0.2723
21688W        W37822   5.772  16.350   5.852  0.4095  0.0035  0.0761
21689W        W37823   5.746   1.616   3.043  0.0414 -0.0529  0.0267
21690W        W37824   9.986   8.759  12.474  0.0418 -0.1142 -0.1156
21691W        W37825   1.703   1.333  12.521 -0.2490  0.3284  0.2381
21692W        W37826   6.428   6.121  15.376  0.2947  0.0619  0.1381
21693W        W37827  13.629   9.349   1.284 -0.2952 -0.1334 -0.2158
21694W        W37828   7.608  12.998  13.203 -0.1881 -0.0419 -0.0017
21695W        W37829   1.996   9.292   0.815 -0.0607  0.2132 -0.0535
21696W        W37830  15.646  12.611   2.677 -0.0206 -0.3221 -0.1612
21697W        W37831  14.941   1.043  14.281  0.0350  0.2373  0.4631
21698W        W37832  10.180   0.208   0.600  0.1082  0.1799 -0.0348
21699W        W37833   1.227  16.018   5.157 -0.0116  0.2047 -0.3086
21700W        W37834   5.299   1.107  11.838  0.1544 -0.1667 -0.2746
21701W        W37835   9.163  13.769   3.060 -0.0145 -0.2030  0.0756
21702W        W37836   3.812  11.755   0.733  0.1387  0.0289  0.0071
21703W        W37837   9.571   5.852   3.143 -0.0901  0.4667  0.1264
21704W        W37838   0.061   3.547  13.904 -0.2572  0.1725  0.0496
21705W        W37839  12.758   8.266  15.062  0.1446 -0.1597  0.2040
21706W        W37840   4.943  17.263   4.927 -0.2981  0.3169 -0.2035
21707W        W37841   6.200  18.385  15.480  0.2836  0.0763 -0.0703
21708W        W37842   4.894  18.045   3.172  0.1979  0.1590 -0.1284
21709W        W37843  10.762   7.387  14.578  0.1032 -0.3665 -0.0879
21710W        W37844   3.383  14.348   0.857  0.1141  0.0396 -0.0620
21711W        W37845   9.700   1.929   2.200  0.0919 -0.1123 -0.0569
21712W        W37846   6.761  15.530   0.610  0.0136  0.1757 -0.0528
21713W        W37847  16.932  15.567   4.686 -0.2750  0.2216  0.0123
21714W        W37848  11.484  13.849   5.184 -0.2649  0.0507 -0.0004
21715W        W37849  15.931   5.017   3.269 -0.1550  0.2094 -0.0026
21716W        W37850  11.592   0.653   4.659  0.3025 -0.2289  0.0803
21717W        W37851   4.569   7.768   1.421 -0.0331  0.0197  0.0429
21718W        W37852  13.495  10.808  12.111  0.0418  0.3851 -0.2727
21719W        W37853   5.179  10.069  12.157 -0.4941 -0.2053 -0.0384
21720W        W37854   8.208   0.454   5.221  0.2171  0.2610 -0.0175
21721W        W37855  12.936  13.190   6.384  0.2267 -0.0552 -0.0820
21722W        W37856  16.164   3.210  12.130 -0.0762  0.0983  0.3086
21723W        W37857  12.359  15.798  12.747 -0.1725 -0.1654 -0.0491
21724W        W37858   1.515   3.422   4.264  0.0106  0.0389 -0.0831
21725W        W37859  10.877   8.624   0.647  0.0409  0.1973  0.0160
21726W        W37860  11.856  15.970   5.403 -0.3023  0.1236  0.2867
21727W        W37861   5.737   4.932   2.710  0.1912  0.6339  0.1293
21728W        W37862   1.565   6.570   1.889 -0.0647 -0.1350  0.2180
21729W        W37863   7.598   5.306  13.446  0.0136  0.1814  0.3270
21730W        W37864  16.649   8.734  10.385 -0.2380  0.1419 -0.3011
21731W        W37865   5.120  18.217   2.717 -0.3056  0.1569  0.0827
21732W        W37866   9.943  18.348   4.869  0.0789 -0.1125 -0.0634
21733W        W37867   3.047   9.943  10.835  0.0416  0.1967 -0.0575
21734W        W37868   6.455   0.232  14.460  0.0333 -0.1038 -0.0353
21735W        W37869   7.324  13.854  15.628  0.0511  0.2785  0.1645
21736W        W37870  13.271  10.430   1.054 -0.0720  0.4621 -0.3055
21737W        W37871   3.591   0.982   0.212  0.2334 -0.0908  0.0135
21738W        W37872   2.457  14.964   5.183 -0.5054 -0.0627 -0.0070
21739W        W37873  14.610  16.816   5.176 -0.0447 -0.1055  0.2381
21740W        W37874  15.575  17.283   2.881 -0.0608 -0.0974 -0.4302
21741W        W37875   8.540  17.801   1.211 -0.4278  0.3155 -0.1104
21742W        W37876   5.825   4.179  12.786  0.1183  0.2673 -0.0438
21743W        W37877  15.680  16.096   9.881  0.1588 -0.1880  0.4395
21744W        W37878  17.643  15.297   2.372 -0.1708 -0.4797  0.1169
21745W        W37879  16.027   2.772   3.255 -0.0361 -0.1099  0.1049
21746W        W37880  17.622   0.216   2.820 -0.2018  0.1329  0.1850
21747W        W37881   2.549  11.621   3.934  0.3507 -0.0787 -0.0009
21748W        W37882  15.597   5.785   3.962  0.3726  0.1609 -0.2938
21749W        W37883   3.625  15.501  11.102  0.1430 -0.0202  0.1162
21750W        W37884   7.091  16.067  15.846  0.0270 -0.4108 -0.2202
21751W        W37885   1.308  13.647   4.959 -0.3594 -0.0819  0.2883
21752W        W37886   4.790  14.973  15.537 -0.1244  0.1857 -0.0644
21753W        W37887  15.078   4.785  15.308  0.1303  0.4654 -0.0433
21754W        W37888   7.647  18.183   3.230 -0.2600  0.1979 -0.1124
21755W        W37889   7.250   9.944  16.067 -0.0048  0.2778 -0.1647
21756W        W37890  12.846  17.590   2.023  0.0973 -0.1494  0.3244
21757W        W37891  18.083   9.372   5.431  0.0024 -0.0840  0.1268
21758W        W37892  10.173   4.450  12.961 -0.4287  0.1841 -0.0911
21759W        W37893  15.571   1.359   3.547 -0.1381  0.1493  0.1782
21760W        W37894   6.672   4.478   5.566  0.2010 -0.1400 -0.0474
21761W        W37895   4.324   6.597  14.660  0.1271  0.2048  0.1310
21762W        W37896  11.896   1.786   3.089  0.1339 -0.1099  0.1086
21763W        W37897   0.353   9.064   0.440 -0.0532  0.1005 -0.3216
21764W        W37898   5.039   0.875   1.029 -0.1066  0.0234 -0.2643
21765W        W37899  17.500  16.275  11.552  0.4669  0.1373  0.3690
21766W        W37900   7.705  11.252   2.546  0.2393  0.1391  0.3348
21767W        W37901  13.897   5.897   0.445 -0.4481  0.0150  0.1812
21768W        W37902   8.605  15.065  15.392 -0.3676 -0.0119  0.0253
21769W        W37903   5.568   7.981  13.927  0.3677 -0.2064 -0.1427
21770W        W37904  16.784   0.023  15.635  0.0426  0.4618 -0.0340
21771W        W37905   0.933   9.498   4.827  0.2007 -0.0004  0.1129
21772W        W37906  10.307   1.053   1.362  0.1912  0.1728 -0.3217
21773W        W37907  10.454   9.435  13.860 -0.2045 -0.2112 -0.1124
21774W        W37908  14.526   3.217  14.739 -0.1233 -0.2812  0.1893
21775W        W37909  15.841   5.410   2.337 -0.1003  0.0583 -0.2706
21776W        W37910  13.501  17.344  14.583  0.0281 -0.1918 -0.1378
21777W        W37911   2.198   7.288   2.477 -0.2506  0.1685  0.0197
21778W        W37912   4.719  12.870  12.346  0.2078 -0.2769 -0.1920
21779W        W37913  13.553  15.767   0.765  0.1794 -0.1405  0.1643
21780W        W37914   7.734   5.781  12.666  0.4049 -0.1426  0.2837
21781W        W37915  14.541  12.725   0.772 -0.1234 -0.1289 -0.0506
21782W        W37916   4.090   0.338   4.627  0.0259 -0.0455 -0.2174
21783W        W37917  14.712   1.591   1.710  0.0062  0.3153  0.0746
21784W        W37918   9.553   1.320   1.129 -0.0229 -0.1990 -0.1189
21785W        W37919   3.285   4.002   0.272  0.1263  0.0136  0.0335
21786W        W37920  11.437   8.109   4.929  0.1071  0.0386 -0.0548
21787W        W37921   5.297  14.349  12.493  0.0053 -0.2627 -0.1019
21788W        W37922   9.597  12.334  14.707 -0.0718  0.1139  0.0907
21789W        W37923  12.832   4.275  11.999 -0.3488 -0.2399  0.1680
21790W        W37924  18.103  14.700  15.625  0.2225 -0.5516  0.0379
21791W        W37925   5.324   6.258  12.109  0.0141 -0.0915  0.1391
21792W        W37926  18.074  11.167   5.457 -0.1311  0.3590  0.0225
21793W        W37927   7.223   2.630   4.537 -0.0536 -0.0159 -0.5115
21794W        W37928   0.527  11.485  11.302  0.2058  0.0001 -0.0783
21795W        W37929   5.394   5.686   3.728  0.2474 -0.0571 -0.0503
21796W        W37930  16.172  16.383   0.791 -0.1636  0.0586  0.0872
21797W        W37931   6.372  17.964  15.676  0.0611  0.0839 -0.1641
21798W        W37932   6.122   1.239  13.787  0.0978  0.2290 -0.0442
21799W        W37933   4.138  12.413  13.664 -0.3243  0.3960  0.1846
21800W        W37934  15.847   1.776   5.995 -0.2476 -0.1411 -0.4762
21801W        W37935  11.717  16.705  13.259  0.2300 -0.0588  0.2076
21802W        W37936   2.684   2.435  13.892  0.0618 -0.2282 -0.1934
21803W        W37937   8.363   6.652  11.429 -0.2319 -0.3296  0.1571
21804W        W37938  12.162   8.404  13.436 -0.2411  0.2453 -0.0134
21805W        W37939   9.977   4.358   3.855  0.0613  0.0425 -0.0182
21806W        W37940  10.174  13.062  13.596 -0.3056 -0.1025 -0.0488
21807W        W37941   8.369   4.301  15.076  0.0454  0.4439 -0.1655
21808W        W37942   1.521   5.480  14.328 -0.2528  0.2518 -0.1302
21809W        W37943   2.882   5.704   2.410  0.0776  0.1593  0.1463
21810W        W37944  11.294  15.035   3.645  0.4787 -0.0496 -0.2348
21811W        W37945   2.348  14.229  13.083  0.2779  0.3123  0.2756
21812W        W37946  16.273  17.264   4.616  0.1658 -0.3859  0.1353
21813W        W37947  15.134  18.306   1.391 -0.2998  0.0768 -0.2280
21814W        W37948   3.635  12.226  11.585 -0.1643  0.1322 -0.0921
21815W        W37949   9.871  11.119  12.374  0.0849  0.1187  0.2277
21816W        W37950   4.730   9.117   0.711 -0.0552 -0.2378 -0.1857
21817W        W37951  10.710  13.646  11.747  0.1180  0.1768 -0.0961
21818W        W37952  16.046   0.977   1.269 -0.1002  0.3911 -0.3480
21819W        W37953  12.017  17.065   1.654  0.0292  0.1981  0.2932
21820W        W37954   5.825   7.772  11.198  0.0788  0.2991 -0.2753
21821W        W37955  16.391   9.652  15.269  0.3203  0.2806 -0.1342
21822W        W37956   2.978  16.778   5.732  0.0051  0.1499  0.1511
21823W        W37957   2.486   7.538   2.771  0.0278 -0.1308  0.1772
21824W        W37958   6.648  17.896   4.989 -0.1220  0.2569 -0.0696
21825W        W37959   8.157  14.192   1.931  0.1042  0.0786  0.1410
21826W        W37960   6.887  11.844  15.637  0.2844  0.0433  0.1239
21827W        W37961   2.743  12.742   0.891 -0.0450 -0.1042 -0.1256
21828W        W37962   7.977   2.188   5.610 -0.1245  0.0950  0.0034
21829W        W37963  11.624   8.713  15.766 -0.1807  0.0945 -0.0819
21830W        W37964   0.673  15.867   1.766 -0.1277 -0.2378  0.1536
21831W        W37965   2.639  17.984   0.983  0.2637  0.3120  0.0996
21832W        W37966  12.588   4.494  14.067  0.3172 -0.2386  0.0574
21833W        W37967   4.126   9.574   1.963  0.0172  0.1245 -0.1449
21834W        W37968  15.610   9.223  13.748  0.3021 -0.1105 -0.1758
21835W        W37969  15.217   8.213  11.589 -0.0867 -0.2487  0.1341
21836W        W37970   9.945   6.781   4.681 -0.3776 -0.3464  0.0305
21837W        W37971   0.341  10.512   4.108  0.2380 -0.0500  0.0754
21838W        W37972  10.517   6.831   0.656 -0.1554  0.3359 -0.1959
21839W        W37973   2.209   9.870  10.414 -0.0505 -0.3192 -0.0462
21840W        W37974  11.354   6.727  11.931  0.0725 -0.0599 -0.0994
21841W        W37975   3.729   5.281  15.050  0.1970  0.2116  0.1216
21842W        W37976   5.540   0.723  12.152 -0.1770 -0.1750 -0.0006
21843W        W37977  17.214  11.890  10.494 -0.0365 -0.1454  0.2011
21844W        W37978  10.284   7.502   3.579 -0.1552 -0.2750 -0.1831
21845W        W37979   2.012   0.802  14.366 -0.0063 -0.1984 -0.1121
21846W        W37980   6.932   7.278   5.753 -0.0310  0.1793  0.1085
21847W        W37981  14.899   2.871  11.788 -0.4122  0.2347  0.2470
21848W        W37982   9.491   7.936   4.396  0.1425 -0.1838  0.2035
21849W        W37983   4.062  17.163  13.929 -0.0268  0.0880 -0.0094
21850W        W37984  13.351   6.273   1.694  0.1724 -0.2349  0.1382
21851W        W37985  15.261  13.517  15.040  0.0165 -0.0090  0.1324
21852W        W37986   6.744  12.250  12.072  0.0135 -0.0960  0.0545
21853W        W37987   4.757  14.287   3.935 -0.0614  0.1559 -0.2977
21854W        W37988  15.348   9.498  13.378 -0.0793  0.0657 -0.2317
21855W        W37989   5.148  10.848  16.003 -0.1404 -0.0536 -0.2930
21856W        W37990   0.367   9.351  12.160  0.2912 -0.0579  0.3819
21857W        W37991   8.664   7.426   2.876 -0.0276  0.0879  0.2016
21858W        W37992   9.527  13.492   0.638  0.1128  0.4330 -0.1539
21859W        W37993   7.025   6.756   5.386 -0.0717  0.1598  0.0230
21860W        W37994   9.341   8.776   6.676 -0.2798 -0.1225  0.1658
21861W        W37995  17.091   9.115  12.748 -0.0780 -0.0100  0.0637
21862W        W37996   6.163  18.392  12.035 -0.0583 -0.2567 -0.0160
21863W        W37997  15.216  16.460   2.451  0.0634 -0.2665 -0.3283
21864W        W37998  18.431  11.867  13.725 -0.2488  0.1827  0.0904
21865W        W37999   3.080  10.402  12.605  0.2488 -0.0519  0.3936
21866W        W38000   0.008  16.121  11.971 -0.0882  0.0627  0.3297
21867W        W38001   4.059   6.075   2.343 -0.0153 -0.0470 -0.1131
21868W        W38002   6.609   5.038   0.936  0.1056 -0.0906 -0.2387
21869W        W38003   0.207  17.778   2.111 -0.0387  0.3550  0.0644
21870W        W38004  14.231   7.397  13.332  0.0890  0.0570 -0.0199
21871W        W38005   6.638   8.600   4.263 -0.1305  0.0185  0.0665
21872W        W38006  16.079   2.140   4.665  0.2135  0.0532  0.3627
21873W        W38007   1.214  12.851   4.550 -0.0079  0.3180 -0.0118
21874W        W38008  11.959  11.224   4.688  0.2918  0.1494  0.2207
21875W        W38009   8.686   1.129   1.532 -0.1870 -0.2002  0.0046
21876W        W38010  12.546  11.843   1.990 -0.1401  0.0002  0.1960
21877W        W38011   0.304  18.057  15.961  0.1508  0.1072 -0.1930
21878W        W38012  12.845   1.849   4.893 -0.2148 -0.0131  0.0955
21879W        W38013   1.624   3.458  12.827  0.0152  0.0292 -0.0954
21880W        W38014   9.864  14.364  11.386  0.0395  0.2994  0.0666
21881W        W38015  15.897  10.255  12.032 -0.0570  0.1399  0.2603
21882W        W38016   4.565   6.956   0.080 -0.2558 -0.2584  0.0812
21883W        W38017  17.708  13.917   2.470 -0.0862  0.0571 -0.1350
21884W        W38018   0.326   3.880  13.530 -0.0870 -0.3448  0.2419
21885W        W38019   4.687  14.079   1.840  0.0315  0.0676  0.0674
21886W        W38020   1.870   8.901   2.154  0.0562 -0.0762 -0.2914
21887W        W38021  14.797   2.963   2.457 -0.2636  0.0127  0.1969
21888W        W38022  10.183  12.515  12.340  0.0618 -0.0471 -0.3241
21889W        W38023   1.186  16.284  13.657  0.1819 -0.1025  0.1219
21890W        W38024  10.442   3.512   4.600  0.0175  0.0827 -0.2299
21891W        W38025  11.061   8.461   3.004  0.1117 -0.2340 -0.0865
21892W        W38026  11.532   4.745  16.061  0.1535 -0.0697  0.2906
21893W        W38027  12.751   5.298  13.301  0.1537 -0.1066  0.2762
21894W        W38028  16.547  10.499  14.737 -0.2648 -0.4112 -0.5236
21895W        W38029   7.302  18.114  14.227 -0.2034 -0.0719 -0.2585
21896W        W38030   6.130   3.091   3.503 -0.2170  0.1575 -0.0210
21897W        W38031  18.406   9.545  12.102 -0.2836 -0.0280 -0.2520
21898W        W38032  17.631   6.923   3.427 -0.0632  0.3589  0.0606
21899W        W38033  17.862  13.548   3.759  0.0154  0.1635 -0.2306
21900W        W38034  11.701  13.971  14.207  0.1319  0.1035 -0.2731
21901W        W38035   5.472  16.534  11.405 -0.0361  0.1675  0.0991
21902W        W38036   0.711   6.656  13.938 -0.2174  0.3971 -0.3931
21903W        W38037   9.339   4.111   1.820  0.0086  0.1314 -0.1744
21904W        W38038   5.633   4.191   6.761 -0.3288 -0.0565  0.1163
21905W        W38039   4.675  16.238   4.676 -0.0759 -0.1375 -0.1863
21906W        W38040  11.656   4.539   4.252  0.1435  0.1248 -0.4212
21907W        W38041  12.689   1.996  14.512  0.0546  0.1410 -0.0084
21908W        W38042   1.384  18.308  15.176 -0.1956 -0.0860 -0.0369
21909W        W38043  13.333   2.183   0.078 -0.2255  0.1184  0.2469
21910W        W38044  16.705   3.474   2.034 -0.3346 -0.1344  0.0258
21911W        W38045   4.530  14.772   4.220 -0.0638 -0.0755  0.0855
21912W        W38046  12.424   7.375   0.748  0.1443 -0.0637  0.1490
21913W        W38047   6.408  13.511  11.030 -0.1966 -0.1885 -0.0577
21914W        W38048  16.060  13.444  11.674 -0.2385 -0.4543  0.2522
21915W        W38049   0.132   1.690   0.672 -0.1645 -0.1042  0.0301
21916W        W38050   2.448   7.583  15.968  0.0511  0.0899  0.0596
21917W        W38051   9.734   9.907   4.033 -0.0544 -0.0795 -0.1620
21918W        W38052  14.723   6.987   1.161  0.0244  0.1266  0.0285
21919W        W38053   1.635   6.569  13.642 -0.1851  0.2156 -0.0552
21920W        W38054   0.622  10.799  11.021  0.1597 -0.0273 -0.1164
21921W        W38055   4.267   4.874   1.183 -0.0870 -0.0774  0.0003
21922W        W38056   8.196   5.024   3.178  0.1013 -0.4758 -0.1204
21923W        W38057  13.561   1.044  13.610  0.0446  0.0309 -0.1233
21924W        W38058   8.106  13.779  15.290 -0.0202 -0.1130  0.3774
21925W        W38059   3.003  17.312  11.249 -0.0266  0.3247  0.0538
21926W        W38060   7.917  11.182  11.665  0.0496  0.0107  0.1450
21927W        W38061   9.949  18.072  14.248  0.0434  0.0762  0.0276
21928W        W38062   1.484  10.357  14.837 -0.0806  0.2583  0.1806
21929W        W38063  10.057  15.960   3.776  0.1467  0.2443  0.3440
21930W        W38064  10.575  16.551   4.406 -0.2627 -0.2551  0.0000
21931W        W38065   2.976   6.641  12.205  0.1586  0.2762 -0.1539
21932W        W38066  10.965   2.770   0.388  0.4559  0.0725  0.3681
21933W        W38067   2.213   2.259  13.893 -0.1771  0.1353 -0.1378
21934W        W38068  16.328  13.067   3.739 -0.2961  0.1198  0.1403
21935W        W38069  17.545   3.299  13.469  0.1040 -0.2988 -0.0274
21936W        W38070   4.626   9.582   1.742 -0.1041  0.1084 -0.0944
21937W        W38071  15.147  12.913   5.134  0.2153 -0.1218 -0.0446
21938W        W38072   8.078   0.551   4.043  0.0664 -0.0152 -0.2174
21939W        W38073   9.408  12.614  10.421  0.1603  0.2226  0.0649
21940W        W38074   4.835  12.868   4.445  0.2284 -0.0167 -0.3253
21941W        W38075   7.044  10.828   2.076 -0.2171 -0.0919  0.1764
21942W        W38076   7.286  17.544  10.612  0.3830  0.0231  0.3646
21943W        W38077   5.993   1.558   3.532  0.0855  0.1800 -0.2021
21944W        W38078  18.399   5.116   2.498 -0.1040  0.2045 -0.0936
21945W        W38079   1.839  16.304  12.318  0.1922  0.3732 -0.0425
21946W        W38080  11.942   2.322  13.331  0.0292  0.1521  0.2289
21947W        W38081  14.882  14.587  11.894 -0.1390  0.0680 -0.0492
21948W        W38082   2.886   8.619   3.428  0.2057 -0.1750 -0.0172
21949W        W38083  10.475   5.376   6.462 -0.1588 -0.0346  0.5993
21950W        W38084  16.474   6.915   3.441 -0.3088  0.5425  0.3737
21951W        W38085   4.073   3.288   5.528  0.4971  0.0520  0.0605
21952W        W38086   0.962  12.615  12.120  0.3861 -0.2392  0.0185
21953W        W38087   5.836  12.371   5.671 -0.1056 -0.1432 -0.2781
21954W        W38088  18.296  11.169  13.016  0.0738 -0.1928 -0.0936
21955W        W38089   9.370  17.062  15.452 -0.1219 -0.0302  0.1284
21956W        W38090  13.544   3.627  11.327  0.0591 -0.2033 -0.1988
21957W        W38091  15.158   4.148   1.539  0.1707  0.1148  0.1558
21958W        W38092   2.194   7.815   2.456  0.1114 -0.0983  0.0136
21959W        W38093  16.805   8.736  15.557 -0.1553 -0.0997 -0.1937
21960W        W38094  14.615   3.498  14.302 -0.1506 -0.2550 -0.4303
21961W        W38095   9.419   3.200  14.405 -0.1194  0.0039  0.1429
21962W        W38096   0.293   7.225  12.386 -0.1247 -0.2286  0.1614
21963W        W38097   1.568   1.429   4.953 -0.0296  0.2997 -0.0658
21964W        W38098  13.209  13.552  14.604  0.0521 -0.0471 -0.1270
21965W        W38099   1.504  13.117   0.152 -0.0982  0.1633 -0.2576
21966W        W38100  16.981  18.428   1.700  0.1718 -0.1507 -0.2780
21967W        W38101  17.073   5.358   1.753  0.3929 -0.0314  0.1067
21968W        W38102   1.524   9.747   3.168  0.0910  0.0867 -0.1542
21969W        W38103  18.221   5.800   5.615 -0.0358 -0.1007  0.0304
21970W        W38104  16.518   6.206  11.082  0.0604 -0.3810 -0.0774
21971W        W38105   6.747   0.325   4.335  0.2872  0.1098 -0.0974
21972W        W38106  13.716  11.775   5.316  0.2288 -0.3255 -0.0895
21973W        W38107   1.357  11.904  12.716 -0.0693 -0.5970  0.2173
21974W        W38108  15.241  13.123   0.298  0.0614  0.0680 -0.1523
21975W        W38109  14.527   7.973   3.252  0.0017 -0.0639  0.0861
21976W        W38110   9.893  14.431  15.289 -0.2925  0.2236  0.0593
21977W        W38111  16.186  16.276   0.004  0.3025 -0.2003 -0.0604
21978W        W38112  15.132   9.789  15.086  0.2547  0.1246  0.1453
21979W        W38113   1.611   6.887   0.642  0.1010  0.2394 -0.2981
21980W        W38114   6.203   0.720  11.395 -0.2176  0.1236 -0.2182
21981W        W38115  15.452   7.631  11.797  0.1545 -0.0625 -0.2151
21982W        W38116   0.770   7.470   1.953 -0.0207  0.0253  0.2188
21983W        W38117   8.956  11.337   1.632 -0.2557  0.4745 -0.1721
21984W        W38118   2.467   6.084  11.467  0.0074 -0.2374 -0.0952
21985W        W38119   0.277   7.502   3.668 -0.2938 -0.1234  0.0806
21986W        W38120  12.525  13.790   1.642  0.0012  0.0269  0.0914
21987W        W38121  15.465  12.020   1.733  0.1625 -0.1066 -0.0447
21988W        W38122  15.461  12.627   3.894  0.2567 -0.3657  0.0862
21989W        W38123  10.189   8.995   0.480  0.0112  0.0835 -0.3072
21990W        W38124   4.335  10.784  15.503  0.0020 -0.1071  0.1101
21991W        W38125  15.461   4.570   1.008  0.0313  0.1676  0.0486
21992W        W38126   3.305   6.607   2.240  0.2023  0.3086 -0.0391
21993W        W38127  13.100  14.635   0.158  0.1536  0.2452  0.2336
21994W        W38128   4.802   5.468  15.648 -0.0919  0.3010  0.2433
21995W        W38129  18.269   2.409  13.657 -0.1165 -0.1114 -0.0390
21996W        W38130  12.700   0.188  11.333 -0.0714 -0.2994 -0.1222
21997W        W38131   6.525  16.997  12.065 -0.2525  0.1877 -0.0522
21998W        W38132  15.182   7.260  11.596  0.0767 -0.0814  0.0098
21999W        W38133  14.868   8.795  15.184 -0.0579  0.1361  0.1243
22000W        W38134   9.853  17.446   5.237 -0.0265 -0.0789  0.0899
22001W        W38135  15.602  13.650  10.819  0.1657  0.0766  0.3459
22002W        W38136  15.082   4.276  13.468  0.0473  0.1266 -0.0397
22003W        W38137   0.926   5.177  13.003 -0.1663 -0.0586 -0.3086
22004W        W38138   2.665  10.910  13.539 -0.0030  0.0498  0.0602
22005W        W38139   1.257   0.452  14.749 -0.0768  0.4616  0.0947
22006W        W38140   6.818   5.692  11.098  0.1016 -0.3713 -0.1433
22007W        W38141   2.364   5.787  12.489  0.0347 -0.4148  0.0970
22008W        W38142   8.332   6.980  12.781  0.1418  0.0869  0.0528
22009W        W38143   9.652   0.860   2.441 -0.0724 -0.1081 -0.1103
22010W        W38144  14.989  10.542  14.949  0.1377 -0.1582 -0.0231
22011W        W38145   6.928   1.967  12.144  0.2363  0.4148  0.1384
22012W        W38146   1.789  15.205   5.756 -0.0438  0.4501  0.2027
22013W        W38147  12.061  12.512   4.048 -0.1260  0.2174 -0.3232
22014W        W38148  14.372  16.442  10.001 -0.0995  0.0907  0.4415
22015W        W38149   5.608   5.793  12.342  0.0026 -0.1439 -0.1904
22016W        W38150   8.884  17.614  14.609  0.0230 -0.1369  0.4338
22017W        W38151   3.689  18.025  10.128 -0.2398  0.1391 -0.0977
22018W        W38152  10.406   4.094   0.042  0.4716 -0.1743  0.0012
22019W        W38153  10.605   7.606  12.943  0.0873 -0.4030 -0.0379
22020W        W38154   0.564  15.017   0.811  0.1435  0.1280 -0.0854
22021W        W38155   3.139   1.007  13.359 -0.0149 -0.0582  0.2790
22022W        W38156  13.954   7.526   5.310 -0.0265  0.0935 -0.1785
22023W        W38157   8.271  14.498   0.031  0.0462  0.0662  0.1626
22024W        W38158  15.463  18.307   4.532 -0.0705 -0.5636  0.1813
22025W        W38159   0.205  15.743   3.343 -0.2341  0.0121  0.0090
22026W        W38160   6.583   1.957   3.202  0.0186  0.1419  0.0329
22027W        W38161  15.074  10.754  15.479 -0.2672 -0.1066 -0.0302
22028W        W38162   0.958  18.340  11.940 -0.0321 -0.0317  0.1130
22029W        W38163   9.370   6.840  11.731  0.0357 -0.2285  0.1875
22030W        W38164   7.996   4.272  12.456 -0.1302 -0.0928 -0.0324
22031W        W38165  17.475   7.045   2.155 -0.2898 -0.0844  0.1272
22032W        W38166   9.677  18.329  13.240 -0.2006  0.1422  0.0085
22033W        W38167  14.832   6.993   3.202 -0.1687 -0.1457  0.2145
22034W        W38168  12.817  12.184  14.792  0.2489  0.0284  0.0249
22035W        W38169   3.543  15.070   2.535  0.2336  0.1789 -0.2410
22036W        W38170   3.494   6.039   2.068  0.1835 -0.2233 -0.0947
22037W        W38171   2.222  13.969   2.283  0.0431  0.1854 -0.1033
22038W        W38172  17.983   2.987  15.611 -0.0797 -0.3261  0.1192
22039W        W38173  12.726   1.678  13.774 -0.1128 -0.3013 -0.3213
22040W        W38174  17.042  11.686   4.645 -0.1943  0.3012  0.0021
22041W        W38175   0.957  14.505  12.232 -0.3448  0.1681 -0.3139
22042W        W38176  10.414  13.834  14.831 -0.2937  0.3940  0.0997
22043W        W38177   0.669   6.403  13.430 -0.1198  0.1069 -0.0792
22044W        W38178   0.058  14.457  13.642 -0.0223 -0.3113 -0.0577
22045W        W38179  15.157  10.327   0.655  0.1796 -0.0598  0.0029
22046W        W38180   3.815   5.824   2.722  0.1983  0.1008  0.4508
22047W        W38181   6.405   3.275   1.824 -0.2254 -0.0544  0.0961
22048W        W38182   8.739  16.397   4.516  0.0842  0.1728  0.1973
22049W        W38183   0.484   1.382  12.973  0.2206  0.0141  0.0900
22050W        W38184   3.036   9.129   3.652 -0.2339  0.1841  0.1371
22051W        W38185  14.552   2.209   4.392 -0.1299 -0.1240 -0.1556
22052W        W38186   0.997   9.581  12.771  0.0903  0.1747 -0.0901
22053W        W38187   0.384   6.772  14.286  0.1229  0.4492  0.1993
22054W        W38188   3.738   1.618   3.143 -0.1096  0.1219  0.1489
22055W        W38189   9.407  14.245  14.936  0.1213  0.1800 -0.2361
22056W        W38190  18.218  10.956  11.062  0.6310  0.1180 -0.2815
22057W        W38191   3.270   8.574   3.723 -0.1206 -0.1342 -0.0315
22058W        W38192   0.112  11.149   2.013  0.1341  0.1447  0.1802
22059W        W38193  13.602   8.342  13.574 -0.0072 -0.0562 -0.0360
22060W        W38194   3.101   6.833  11.158 -0.3190 -0.1037  0.0418
22061W        W38195  17.279  15.060  15.157  0.0079 -0.0733  0.2138
22062W        W38196   4.772   8.001   0.867 -0.1320 -0.3462  0.0827
22063W        W38197   6.719   0.921   1.723 -0.1786 -0.0121 -0.0916
22064W        W38198   4.607   5.589   0.539 -0.2198  0.0929 -0.1872
22065W        W38199  17.331   8.519   4.766  0.1115  0.2766  0.0865
22066W        W38200  14.948   5.565  14.955 -0.1230 -0.1741 -0.2607
22067W        W38201   4.247  10.188   1.217 -0.0355  0.0594 -0.1079
22068W        W38202  10.633   5.396   4.735 -0.0541 -0.1063 -0.1586
22069W        W38203  13.562  10.686  11.590  0.0682 -0.3507 -0.0903
22070W        W38204   4.202  16.227  10.876  0.0646  0.1208  0.1165
22071W        W38205   9.594   6.098  15.149 -0.1440 -0.4604 -0.0616
22072W        W38206   5.193   4.848  15.129  0.1164  0.0556  0.0721
22073W        W38207   3.676   0.203   2.938  0.1479  0.0163  0.1179
22074W        W38208   0.255  17.867  14.584 -0.0494 -0.1534  0.0499
22075W        W38209  15.587  15.320   0.153 -0.4620 -0.0039  0.4389
22076W        W38210   5.881   9.779   1.166  0.2174 -0.1133 -0.0662
22077W        W38211  11.713   9.642   4.212  0.1384  0.0402  0.0667
22078W        W38212  16.578  17.978   5.064 -0.2927 -0.1175  0.2402
22079W        W38213   2.347  11.199  13.865 -0.0906 -0.0574  0.1362
22080W        W38214  11.047  17.188  14.920 -0.0107 -0.0134  0.0517
22081W        W38215  13.539   4.276   3.405 -0.1373  0.2889  0.4014
22082W        W38216  14.806  16.727   2.600  0.0095  0.0062  0.0722
22083W        W38217  10.302   6.447   1.440  0.0706  0.1604  0.0395
22084W        W38218   8.329  11.924   3.574 -0.0059  0.1064  0.0417
22085W        W38219   4.909  17.780  15.887  0.1052  0.1421  0.0893
22086W        W38220  16.947   7.370   2.407  0.0839 -0.0706  0.1788
22087W        W38221  16.243   4.245   1.017  0.0542  0.5622  0.1910
22088W        W38222   6.643  12.936  13.754  0.3157  0.1923  0.0580
22089W        W38223  14.812  10.642   5.681 -0.0604  0.0789 -0.1950
22090W        W38224  15.070   3.899   5.260  0.0026 -0.0352  0.4659
22091W        W38225   0.981  11.556  12.624 -0.1465  0.0168  0.0764
22092W        W38226  14.496   3.361   3.261 -0.3130 -0.0123  0.0935
22093W        W38227  11.310  16.925  13.149  0.1739  0.0825  0.0063
22094W        W38228   3.428   6.626  10.810  0.0545  0.0944 -0.2571
22095W        W38229   2.871  16.820   4.091 -0.2690  0.1297  0.2036
22096W        W38230   6.337  17.475  11.842  0.1855 -0.0266 -0.3023
22097W        W38231  18.118   1.804   2.234 -0.0052 -0.2307 -0.1339
22098W        W38232  11.794  18.191   0.935  0.0595  0.3027  0.4494
22099W        W38233   6.883  16.289  14.650  0.1871 -0.1620  0.0840
22100W        W38234  14.843  13.176  13.427 -0.0948  0.1045 -0.0548
22101W        W38235  17.406  13.473  14.073 -0.0804  0.1622 -0.3444
22102W        W38236   2.983  13.527   0.481 -0.3907 -0.0635  0.2967
22103W        W38237   3.117  12.071   1.935 -0.4135 -0.0654 -0.2612
22104W        W38238   9.249  15.688  15.192  0.0251 -0.2820  0.1208
22105W        W38239   6.099  13.313  11.350 -0.0392 -0.2779  0.1652
22106W        W38240  12.692  11.547   3.464 -0.0212  0.1786 -0.0988
22107W        W38241  18.052  13.423  15.476  0.1258  0.1130  0.1736
22108W        W38242  14.555   3.503   0.512 -0.0355  0.2104  0.0932
22109W        W38243  18.225   0.148  13.348 -0.2169 -0.2383 -0.0289
22110W        W38244   2.309   0.191   3.538 -0.2066 -0.2194 -0.0945
22111W        W38245  18.120   3.271  13.686 -0.2956  0.1088  0.1106
22112W        W38246   2.783   3.926   4.850 -0.1847 -0.1800 -0.2778
22113W        W38247  14.243   8.552  12.931  0.0824  0.1146  0.0760
22114W        W38248  18.092  12.503   2.896 -0.3149  0.3172  0.1392
22115W        W38249   9.113   2.056  13.483 -0.0907  0.2607  0.0807
22116W        W38250   8.766   0.853  14.580 -0.1426 -0.3179  0.3309
22117W        W38251   2.877   0.607  15.306 -0.1311  0.1309 -0.0200
22118W        W38252   5.762   7.099  15.407 -0.3895 -0.1692 -0.1625
22119W        W38253   0.403   2.640  12.891 -0.4040  0.1194  0.0387
22120W        W38254  10.790  10.845  13.462 -0.1333 -0.2339  0.2140
22121W        W38255   7.484   2.289   4.897 -0.0814  0.0418 -0.0688
22122W        W38256   7.662   4.819  13.212  0.1988 -0.1538 -0.0235
22123W        W38257   8.034  15.255   3.371 -0.0265 -0.3950  0.0058
22124W        W38258   8.678  11.490  14.933 -0.0567 -0.0783 -0.0373
22125W        W38259   4.326   4.349  10.406 -0.0983  0.0826 -0.3289
22126W        W38260   8.153   6.406  11.894  0.1196 -0.1431 -0.2532
22127W        W38261   8.894   4.258   5.045 -0.3425 -0.0103 -0.0444
22128W        W38262   7.363   9.218   5.113 -0.2376 -0.2137 -0.2384
22129W        W38263   9.391  18.042   0.124 -0.0409 -0.0096  0.1257
22130W        W38264   1.153   2.489   2.946 -0.0613  0.0768  0.2361
22131W        W38265  10.694  11.921  12.518 -0.1752  0.0812  0.2068
22132W        W38266  10.414   3.351  12.753 -0.2932 -0.0192 -0.1872
22133W        W38267   5.935   5.696   0.008  0.0962  0.0166 -0.2609
22134W        W38268  16.874   3.407  13.702  0.1862  0.0760  0.3967
22135W        W38269   6.245   4.367   0.211  0.2369 -0.4088 -0.1594
22136W        W38270   8.552  14.879  12.805  0.1640 -0.0422 -0.0594
22137W        W38271  16.117  14.808  14.550  0.4119 -0.0335  0.2810
22138W        W38272   3.129   0.716   2.354  0.1228 -0.0643 -0.4536
22139W        W38273  11.277   4.366   2.203 -0.1114  0.2577 -0.0410
22140W        W38274   3.699  17.982  13.568 -0.0095  0.2457  0.4399
22141W        W38275  13.221  16.670  12.523  0.0383 -0.4031  0.2244
22142W        W38276   7.301   0.018   2.084 -0.0232 -0.0390  0.3612
22143W        W38277  11.842  14.439  11.515  0.1468 -0.2491 -0.1438
22144W        W38278  13.186   3.589   4.724  0.0809  0.0171  0.2257
22145W        W38279  17.165  12.348  10.842 -0.1928  0.0762 -0.1026
22146W        W38280  14.757   7.302   6.347  0.2558 -0.1015  0.0858
22147W        W38281   6.394   6.590  15.775  0.1783 -0.1866 -0.3037
22148W        W38282  14.034  11.069   3.008 -0.1468 -0.0487 -0.1859
22149W        W38283   0.718  15.661  12.740 -0.4418  0.2868 -0.0243
22150W        W38284   1.557   3.616   3.704  0.3900 -0.2260  0.1474
22151W        W38285   0.570   2.474  15.958 -0.0878  0.0921  0.1045
22152W        W38286  12.407   3.358   5.388  0.1281  0.3334 -0.0822
22153W        W38287   0.315   9.532  14.287  0.0788  0.0551  0.1563
22154W        W38288  11.706   6.518   2.349 -0.0183 -0.1533 -0.2172
22155W        W38289   8.677   3.933  12.751  0.1504  0.1073 -0.0149
22156W        W38290   8.786   6.478  14.997  0.0478  0.1633  0.0523
22157W        W38291   0.705  14.896   4.399  0.1997 -0.0940 -0.2215
22158W        W38292  16.366   6.652  13.826 -0.1145 -0.2935 -0.2930
22159W        W38293   1.573   8.966  15.147 -0.5691 -0.1880  0.0763
22160W        W38294   1.654  11.211   1.518 -0.1757 -0.0170  0.2304
22161W        W38295  14.779   5.338  12.666  0.0133 -0.1016  0.0167
22162W        W38296   2.868  15.794  12.040 -0.0366  0.0909 -0.0777
22163W        W38297  17.155   3.407  15.467  0.3626  0.1415 -0.3873
22164W        W38298   6.468  16.807   0.168  0.1591  0.1758 -0.0996
22165W        W38299  17.474  13.414  11.655  0.0183  0.1512  0.1761
22166W        W38300   1.414   4.122   3.335 -0.1303 -0.0842  0.0262
22167W        W38301   8.631  11.191   4.732 -0.1186  0.1891 -0.1512
22168W        W38302   0.159   3.599  10.741  0.0755  0.2896  0.0509
22169W        W38303   9.655  10.237   5.340 -0.2786  0.0319  0.2528
22170W        W38304  17.074  13.817  13.952 -0.0995 -0.2172  0.2245
22171W        W38305  14.292  11.282   5.393 -0.0804 -0.1893 -0.0167
22172W        W38306   6.917   0.264   0.967 -0.0053  0.1085 -0.2995
22173W        W38307   3.600   8.510   4.705 -0.0583 -0.5815 -0.2322
22174W        W38308   1.153  14.689   3.461  0.0100  0.0833  0.1846
22175W        W38309  15.878   3.189   3.539 -0.0100  0.0533 -0.0588
22176W        W38310   9.330  14.823   2.758 -0.0971  0.0345  0.0009
22177W        W38311   9.002   8.465   2.589  0.2160 -0.3022  0.2643
22178W        W38312   5.023  14.307   3.049 -0.1839  0.0602 -0.0251
22179W        W38313  13.659  11.627   0.819  0.2392  0.0787  0.0169
22180W        W38314  14.294   5.705  14.005  0.0421  0.2568 -0.0441
22181W        W38315  14.512  12.687  14.636  0.0352 -0.0009  0.3664
22182W        W38316   3.380  12.814  14.661  0.2716 -0.1778  0.0169
22183W        W38317  14.326   1.899  12.416 -0.1082 -0.0784  0.1017
22184W        W38318   1.164   4.127  13.051  0.1706  0.0759  0.2938
22185W        W38319   0.591   1.184  10.566 -0.2387  0.0789  0.1675
22186W        W38320   6.240  16.988   3.574 -0.2050  0.1705  0.0957
22187W        W38321   0.480   0.739   0.881  0.1959  0.3731  0.0062
22188W        W38322  15.259  16.726   3.230  0.0428  0.1310 -0.1397
22189W        W38323  13.631   4.144   5.690  0.0318 -0.0099 -0.2374
22190W        W38324   8.750   0.349   5.328  0.1557 -0.1516  0.2172
22191W        W38325  17.586  14.032  13.743  0.4075  0.0479  0.1812
22192W        W38326   5.096  12.986   3.505  0.0094 -0.0065  0.2107
22193W        W38327  17.665   5.376   0.451  0.0745  0.0075  0.1242
22194W        W38328   3.591   2.306   1.766 -0.0947 -0.0398  0.2519
22195W        W38329  17.480   1.159  11.904  0.2927 -0.0026 -0.0500
22196W        W38330   7.927   4.912   1.195  0.2680 -0.0298 -0.0683
22197W        W38331  12.280   9.767   1.058 -0.3503  0.3707 -0.0760
22198W        W38332   1.123  11.050  12.638  0.1197 -0.0755 -0.0505
22199W        W38333   3.910   5.819  12.693 -0.0570  0.1838  0.3539
22200W        W38334   0.730  16.873   1.923 -0.1019  0.0007 -0.3256
22201W        W38335  10.785   3.763   4.377 -0.5108 -0.5945  0.0887
22202W        W38336   1.828   0.471   0.686 -0.1261 -0.0149 -0.1042
22203W        W38337   8.264   4.452   2.342 -0.0140 -0.0497 -0.3543
22204W        W38338  18.216  17.275   4.253 -0.1393  0.0739  0.1077
22205W        W38339   6.345   6.193   3.100 -0.2598  0.3099 -0.0550
22206W        W38340  11.308   8.896  13.979 -0.0155 -0.0837  0.2579
22207W        W38341   2.694  15.710  12.950  0.1378 -0.3317  0.0591
22208W        W38342  17.740  16.893   2.890  0.0122 -0.2803 -0.1675
22209W        W38343  18.269   1.290   2.433  0.0690  0.0126 -0.0047
22210W        W38344   3.931   0.245   2.463  0.0228  0.1728  0.1145
22211W        W38345   1.086   3.908  14.685 -0.5054 -0.0875 -0.0237
22212W        W38346   3.228  14.810   3.368  0.2838 -0.0633 -0.0987
22213W        W38347   6.840   3.148   3.091 -0.1662  0.0919  0.1192
22214W        W38348  11.473   2.501   1.717 -0.0276 -0.2422  0.2252
22215W        W38349   6.717   7.396  11.295 -0.0076  0.4262 -0.0770
22216W        W38350   0.603  11.898   3.903 -0.2781  0.5102  0.0438
22217W        W38351   6.720   4.266  11.355  0.0872  0.0060 -0.1254
22218W        W38352   4.055  12.291  12.450  0.1593 -0.1772 -0.1798
22219W        W38353   0.197   7.051   3.576 -0.1533 -0.0644  0.0961
22220W        W38354  16.142   9.302  15.908  0.0133 -0.2761  0.0590
22221W        W38355   2.960   1.044   5.442  0.1528 -0.0710  0.0846
22222W        W38356  12.988   6.488   1.975  0.2318 -0.0163  0.0464
22223W        W38357   3.863   8.436   2.883 -0.2453 -0.0130  0.2620
22224W        W38358   3.987   5.386   3.518 -0.0731  0.0469 -0.0922
22225W        W38359   9.186  11.884  16.053  0.3084  0.1218 -0.3249
22226W        W38360   8.563  16.363   0.128 -0.1036  0.0808 -0.0286
22227W        W38361  12.781  13.961   3.772 -0.0117  0.2421  0.1325
22228W        W38362  17.939  13.319   1.384  0.1870 -0.0469 -0.0518
22229W        W38363   2.576   4.353   1.378  0.1580 -0.2510 -0.2729
22230W        W38364  12.309   4.718  16.014 -0.2229 -0.0121 -0.0247
22231W        W38365   9.618  14.647   2.325  0.0335  0.3825 -0.1965
22232W        W38366   8.337   2.066   1.947 -0.1848  0.3071 -0.0206
22233W        W38367   0.961   1.285   4.146  0.3728  0.2273  0.1611
22234W        W38368   2.401  17.484  11.582 -0.2234  0.1252 -0.6104
22235W        W38369   4.654  13.569  13.712 -0.0470 -0.2487  0.0116
22236W        W38370  10.911  12.446   1.558 -0.1424 -0.1917 -0.0229
22237W        W38371  15.628   1.270   2.371 -0.0269  0.2688 -0.0542
22238W        W38372  15.542  14.379   0.681  0.1361 -0.1452 -0.0585
22239W        W38373   7.779   6.017  12.150  0.1591  0.1189  0.2961
22240W        W38374   8.335   8.786  11.211  0.1194 -0.1990  0.1127
22241W        W38375   3.933   9.200   1.209  0.0747  0.0533  0.1082
22242W        W38376  17.550   9.873  11.705 -0.0251  0.0243 -0.0331
22243W        W38377  10.909   8.158  15.739  0.3463  0.2450 -0.2436
22244W        W38378  16.556  12.599   9.496  0.0468  0.2028 -0.3876
22245W        W38379  11.148  10.950   0.376  0.4100  0.1070 -0.0717
22246W        W38380   2.609   1.742  15.249 -0.1826 -0.1509 -0.0661
22247W        W38381  16.955   5.862  12.433  0.1821  0.1585 -0.1026
22248W        W38382   6.026  10.910  15.421 -0.0069  0.0545 -0.1936
22249W        W38383  13.491   9.783  11.935 -0.2189 -0.2093  0.0252
22250W        W38384   0.568  15.587  10.069  0.1997  0.2500 -0.0794
22251W        W38385  15.482   7.143  13.302  0.1187 -0.1096  0.2519
22252W        W38386   0.819   0.610   2.744 -0.0649 -0.1458 -0.1461
22253W        W38387  16.527  14.658  15.343  0.0794  0.1584 -0.1224
22254W        W38388   0.331   1.724  13.844 -0.2816 -0.0433 -0.1365
22255W        W38389   2.521   2.288  14.392  0.0549 -0.0055  0.1679
22256W        W38390  16.914  15.746  14.548 -0.0150  0.0375 -0.0371
22257W        W38391   8.191  13.085   0.184 -0.2485 -0.1338  0.1222
22258W        W38392  11.266  15.884   4.724  0.2812  0.0642 -0.0106
22259W        W38393  12.835   9.628   1.177  0.0658 -0.1157 -0.1353
22260W        W38394   7.853  11.484   3.474 -0.1773  0.1671  0.1757
22261W        W38395  14.256  13.042   1.087  0.0050  0.3028 -0.0670
22262W        W38396  11.904   2.019  13.906 -0.1513 -0.1180  0.0285
22263W        W38397  14.865  11.316   1.338 -0.0142  0.2594  0.1431
22264W        W38398   0.145   4.395  10.315  0.2964  0.1290  0.1857
22265W        W38399  12.355  16.016  15.156 -0.2105  0.2975 -0.0113
22266W        W38400   7.881  13.098  15.902 -0.0442  0.1102 -0.2224
22267W        W38401  14.741  11.650  11.391  0.0550 -0.1534 -0.1444
22268W        W38402  17.193   5.518  15.574 -0.2365  0.0365 -0.0458
22269W        W38403   9.992  12.035   3.699 -0.1210 -0.1472 -0.2612
22270W        W38404   7.166   9.563   4.712  0.1103  0.1537  0.0095
22271W        W38405   2.567  18.094  13.761 -0.0218 -0.1051 -0.2596
22272W        W38406  13.704   9.700   5.070  0.1766 -0.1688 -0.2867
22273W        W38407   4.043   5.087  14.600 -0.4399 -0.0588 -0.2288
22274W        W38408   1.576  17.098  12.026  0.0070 -0.0461  0.2841
22275W        W38409  10.188   0.556  15.459 -0.0720  0.1388 -0.2380
22276W        W38410   6.103   0.407  15.031 -0.2442  0.0337 -0.2012
22277W        W38411   5.142  15.488   3.992  0.0170  0.1482  0.0221
22278W        W38412   0.482   9.495   4.570  0.1868  0.4050 -0.0095
22279W        W38413   9.436  13.872  13.008  0.2204 -0.1190  0.0865
22280W        W38414   5.170  13.660  13.488 -0.3086 -0.1638  0.1405
22281W        W38415  15.113  17.421   5.830  0.0141 -0.2718  0.4232
22282W        W38416  10.645  12.253  15.108 -0.0456  0.1362 -0.2994
22283W        W38417   8.423  12.780   1.382 -0.1766  0.0305  0.1040
22284W        W38418   9.406  12.944  13.413  0.3855 -0.0135 -0.1276
22285W        W38419   8.062  16.181   1.673 -0.1764  0.1303 -0.2589
22286W        W38420  12.540   3.996   4.184 -0.4216 -0.1234 -0.0540
22287W        W38421  17.339   3.903  11.493  0.1935  0.0096  0.0845
22288W        W38422  15.307  15.384   3.418  0.4681 -0.1187  0.1264
22289W        W38423   6.844   6.619  14.393 -0.2340 -0.1147  0.1250
22290W        W38424   8.022  12.654  14.360  0.1059  0.1045 -0.2947
22291W        W38425  10.656   8.030   5.545 -0.1329  0.0668  0.3600
22292W        W38426  16.074   3.660   3.423  0.1712  0.1403 -0.1362
22293W        W38427   2.870  13.715  15.357  0.2298  0.0766 -0.0232
22294W        W38428   7.456   8.567   1.464 -0.2557 -0.0273  0.1668
22295W        W38429   0.409  14.341   3.553  0.0598 -0.1013  0.1869
22296W        W38430  16.355   0.723   2.617  0.2436 -0.0008 -0.1593
22297W        W38431   2.624   1.953  13.703  0.1193 -0.0204  0.0640
22298W        W38432  10.069  14.542   3.575 -0.0280  0.0799 -0.0150
22299W        W38433  15.905  13.590  15.808 -0.1385  0.0462  0.1333
22300W        W38434   6.222  13.640  12.688 -0.1884  0.0083 -0.0001
22301W        W38435   7.078  14.075  12.342  0.0837  0.0476  0.2014
22302W        W38436   8.774   4.893   1.634 -0.0825 -0.0791  0.3212
22303W        W38437   2.032   7.778  13.504 -0.6351  0.2221 -0.2006
22304W        W38438   4.190   9.670  12.377  0.0311 -0.0771 -0.0159
22305W        W38439  11.146   7.137   0.735  0.1323 -0.1324 -0.3328
22306W        W38440  10.953  13.138   0.901 -0.0232  0.3044 -0.1577
22307W        W38441  16.388  14.795   9.984 -0.2015 -0.0002  0.0501
22308W        W38442   6.355  15.578   5.895  0.0559 -0.3708 -0.1936
22309W        W38443  14.449  17.106  12.337 -0.2936  0.1573  0.1737
22310W        W38444  16.112   9.351  13.870 -0.5178 -0.2245 -0.2273
22311W        W38445   9.437   2.320   2.353  0.1369  0.0267  0.0468
22312W        W38446   4.941   1.424   0.175  0.2825  0.1291 -0.1580
22313W        W38447  13.002  17.581   0.944  0.1254  0.0300 -0.2629
22314W        W38448  10.830   2.723   5.649 -0.1024  0.0478  0.3656
22315W        W38449  10.660   3.846   2.750 -0.3177 -0.3965  0.0182
22316W        W38450  17.236  13.402   1.905  0.1719 -0.5230  0.2054
22317W        W38451  14.385   0.917  11.130 -0.0966 -0.6017  0.1868
22318W        W38452  15.681  16.236   4.409  0.0241  0.1516 -0.2590
22319W        W38453   6.360  11.952  11.998 -0.2926 -0.2285  0.5745
22320W        W38454   7.914  12.676   0.050  0.0331  0.1338 -0.2173
22321W        W38455   1.554  13.020  10.815  0.4801  0.0393  0.0385
22322W        W38456  12.964   2.519   3.068 -0.0043 -0.0121 -0.1861
22323W        W38457  13.958  11.476   1.272 -0.0015 -0.1209 -0.0730
22324W        W38458   7.094  12.439  11.760 -0.2963  0.1120  0.2662
22325W        W38459   2.268   9.222   2.459 -0.3650  0.2800 -0.0967
22326W        W38460  18.364  15.804   4.203  0.1411  0.0404 -0.1064
22327W        W38461   7.985   3.688  14.540  0.0182  0.0475  0.1359
22328W        W38462  13.062   8.421  15.493  0.2898  0.0981  0.0867
22329W        W38463   8.910   5.842  11.951 -0.1491 -0.2717  0.0486
22330W        W38464  11.489   3.503   0.194  0.0949  0.2969 -0.3054
22331W        W38465  11.986   8.647  10.352  0.2707  0.0180 -0.0916
22332W        W38466   0.692   8.793   0.867 -0.0082  0.4702  0.0401
22333W        W38467  10.398   1.210   0.665 -0.2795 -0.1489  0.2180
22334W        W38468   9.100   1.857  13.012  0.0229  0.0741  0.2192
22335W        W38469  15.310  11.814  14.006  0.0687 -0.2357  0.2629
22336W        W38470   2.459   8.464  15.914 -0.1075 -0.0232 -0.0587
22337W        W38471  11.350  17.960  15.593  0.3338 -0.1770  0.1047
22338W        W38472  14.730   7.676  15.315 -0.1296  0.0052 -0.0379
22339W        W38473   3.594   2.836   1.942  0.0946 -0.4358  0.0479
22340W        W38474  12.681  13.090  14.970  0.0641 -0.3306 -0.0412
22341W        W38475  16.636   3.044  12.797 -0.0978 -0.0677  0.1095
22342W        W38476  14.741   1.113  12.913 -0.2514  0.3444  0.2565
22343W        W38477  10.310  17.486   1.352  0.1358 -0.2285 -0.3876
22344W        W38478  10.981   9.442   0.955 -0.2611 -0.2060 -0.0235
22345W        W38479  10.644   6.600   5.617 -0.1262 -0.1896  0.0151
22346W        W38480   0.788  14.971  11.294 -0.0573  0.1458 -0.0494
22347W        W38481   7.347  13.360   6.090  0.0694 -0.0821 -0.1072
22348W        W38482   5.725  18.307  12.307  0.1413 -0.0017 -0.0675
22349W        W38483   3.495   1.052   5.424 -0.0555 -0.1714  0.1073
22350W        W38484   0.531  10.343   1.551 -0.0538 -0.1440  0.1604
22351W        W38485   4.749   6.741  10.399 -0.4320 -0.0004 -0.0556
22352W        W38486   4.130   9.712   2.450 -0.3220  0.1075  0.1714
22353W        W38487  12.226   9.396  11.173  0.1508  0.0417 -0.0570
22354W        W38488  12.189  12.106   2.886 -0.3934 -0.4133  0.2068
22355W        W38489   1.607  12.937   3.006 -0.1151  0.0561  0.0020
22356W        W38490  13.933   4.673   4.178  0.0092  0.1597 -0.0915
22357W        W38491  12.455   2.241   0.336  0.1687 -0.1053 -0.3062
22358W        W38492   7.817   1.452   5.222 -0.0042  0.0507 -0.3267
22359W        W38493  16.695   4.224   0.887  0.2960  0.3042  0.0550
22360W        W38494   6.174   5.151  12.661 -0.2379  0.0450 -0.1174
22361W        W38495   3.016  12.598  14.307 -0.1844  0.2336  0.0769
22362W        W38496   4.281   4.784   1.987 -0.0690  0.0780 -0.3192
22363W        W38497  17.702  15.049   0.772  0.0580 -0.1186  0.0395
22364W        W38498  11.834   8.923   3.511  0.1610 -0.0361 -0.0583
22365W        W38499  16.999  15.831   2.534 -0.2560  0.1214  0.0315
22366W        W38500  11.581   0.785  15.864 -0.2226  0.0109  0.1107
22367W        W38501   8.784  10.104  15.472 -0.4052 -0.2346  0.1619
22368W        W38502   9.300   8.840   1.884  0.0353 -0.0854  0.5667
22369W        W38503   7.326   9.377   2.117 -0.1630 -0.2524 -0.2323
22370W        W38504   1.551  10.943  10.938  0.0689 -0.1703  0.0886
22371W        W38505  10.377   8.600  11.673  0.0385 -0.1913 -0.2958
22372W        W38506  14.271   4.309   0.903  0.1419  0.1014  0.0727
22373W        W38507  13.929   0.549   4.080 -0.2249  0.2423 -0.0344
22374W        W38508  16.873   1.128  15.462  0.1362  0.0332  0.1565
22375W        W38509   9.741   2.273   0.036 -0.2948  0.0121  0.3214
22376W        W38510  14.852  10.220   0.273 -0.2277 -0.0511 -0.2416
22377W        W38511   5.134  15.013   2.541  0.2670 -0.0958 -0.1072
22378W        W38512   7.149   7.911   0.863 -0.3635 -0.0266  0.1647
22379W        W38513  17.667   5.049  12.630  0.0939 -0.1552  0.1354
22380W        W38514  14.184   6.963  11.388  0.1214 -0.2479  0.1257
22381W        W38515   4.985   4.680  14.040 -0.2554  0.2758  0.0782
22382W        W38516   9.840  17.751   1.708 -0.1415 -0.1387 -0.1263
22383W        W38517   3.057   2.372   5.974 -0.1053 -0.0504  0.1352
22384W        W38518   6.869   7.351   4.286 -0.1475  0.0859 -0.1763
22385W        W38519  10.829   3.999  13.593  0.2063 -0.0930  0.0718
22386W        W38520   0.322  14.558  14.531  0.0916 -0.1306  0.0991
22387W        W38521   1.240  16.999  14.195 -0.0986 -0.1402 -0.0219
22388W        W38522   3.487  10.948  14.669 -0.0855 -0.3644 -0.0388
22389W        W38523   8.029  14.664  14.285 -0.0112 -0.1992  0.0059
22390W        W38524   6.073   7.351  14.261 -0.0535  0.0771  0.3887
22391W        W38525  14.090   4.812   1.840  0.0065  0.2612 -0.3989
22392W        W38526   2.641  14.980  10.407 -0.2251 -0.2204 -0.2057
22393W        W38527  11.987  13.123  13.806 -0.0640 -0.2842 -0.0600
22394W        W38528   0.579  16.178  15.303 -0.1671  0.3449 -0.4221
22395W        W38529  13.361   9.411   2.529  0.1039  0.1508 -0.1580
22396W        W38530   1.853   1.047   4.721  0.0580  0.2417  0.3487
22397W        W38531   8.508   3.453  11.951 -0.2635 -0.1211  0.1190
22398W        W38532  12.439  14.228   0.897 -0.0297  0.3819 -0.1459
22399W        W38533   4.335  11.705   1.153  0.2588 -0.3478  0.1734
22400W        W38534   3.273   8.835  10.873 -0.2486 -0.0998  0.0079
22401W        W38535   9.758  10.472  15.676 -0.3333  0.0155  0.2410
22402W        W38536  16.331   4.982  11.539 -0.2911 -0.0600  0.0123
22403W        W38537  10.615   7.673   3.236  0.0868 -0.2081 -0.0883
22404W        W38538  14.499  11.494   5.956  0.1276  0.0447 -0.2058
22405W        W38539   6.453  18.026   0.964 -0.3644 -0.1314 -0.3586
22406W        W38540   9.805  13.296  13.434  0.0734 -0.0977 -0.2468
22407W        W38541  17.285   9.439  14.895 -0.2506 -0.0051 -0.0824
22408W        W38542  10.890  14.565   2.251  0.1151 -0.2874 -0.2308
22409W        W38543  13.424  17.367  13.770 -0.0914 -0.2212  0.0253
22410W        W38544  13.903  10.031   2.105 -0.2557 -0.0376 -0.0475
22411W        W38545   6.479  15.831  13.901 -0.1485  0.0759  0.1607
22412W        W38546   1.632  14.199  14.270 -0.4314 -0.0598 -0.1048
22413W        W38547  16.282  16.471   1.621 -0.3238  0.2365  0.2487
22414W        W38548   0.742   6.598  15.351 -0.2133  0.0309 -0.3099
22415W        W38549  13.968  15.413  13.719  0.1762  0.0590 -0.0482
22416W        W38550   7.936   6.743   2.617  0.1274  0.0639 -0.0646
22417W        W38551   5.916  11.234   5.535  0.4596 -0.1404  0.0584
22418W        W38552  17.691  13.701   5.319 -0.2149  0.1210  0.3490
22419W        W38553   5.470  14.869   0.516  0.2075 -0.1668  0.3990
22420W        W38554   3.573   1.890   2.099 -0.0488  0.1419 -0.0705
22421W        W38555   9.245  16.399   6.157 -0.1213  0.0172 -0.1142
22422W        W38556  13.233  17.758   0.451 -0.2192  0.0478 -0.0585
22423W        W38557  11.020  13.849   4.784 -0.0727 -0.4148 -0.2126
22424W        W38558  17.285   6.121  14.730 -0.2840  0.0406 -0.1320
22425W        W38559   8.381  10.360  12.077 -0.2195  0.0598 -0.2376
22426W        W38560   2.507  15.799   2.756  0.0036 -0.1926 -0.2017
22427W        W38561   2.389  16.907   5.813 -0.2548  0.0891 -0.0365
22428W        W38562  16.290  12.921  14.150  0.0833  0.1352  0.1912
22429W        W38563   8.546   1.294  13.292  0.2285  0.0351  0.1916
22430W        W38564   1.863   2.244   1.234  0.3538  0.1592 -0.0365
22431W        W38565  14.496   8.415   3.528  0.2540  0.2191  0.0921
22432W        W38566  11.787  10.627   0.613  0.0940 -0.0618 -0.3144
22433W        W38567  17.767  10.791   0.494 -0.2472  0.2196 -0.2313
22434W        W38568   3.379   6.619   1.225 -0.0055 -0.0162 -0.1371
22435W        W38569   8.981   8.057  14.739 -0.0754  0.0746  0.0577
22436W        W38570   9.838  10.925  16.046 -0.2406  0.0362  0.1925
22437W        W38571   5.019  11.806   2.884 -0.0992  0.1381 -0.1431
22438W        W38572  13.145   0.762   5.539  0.0473  0.0128 -0.1728
22439W        W38573  15.056   3.084   4.921  0.1735  0.0180 -0.3451
22440W        W38574  15.773  15.186   0.985  0.0630  0.0036 -0.0004
22441W        W38575   4.063  18.231  14.078 -0.2379 -0.1013  0.3169
22442W        W38576   3.490  12.414   0.652 -0.2862 -0.2420  0.1414
22443W        W38577  18.015  10.147   3.876 -0.0476 -0.0680  0.1406
22444W        W38578  13.600   7.966   4.089  0.1576 -0.1317  0.0481
22445W        W38579  12.313  18.125  16.017  0.1509 -0.0804  0.0148
22446W        W38580  18.287   6.625  15.459  0.2846  0.0111  0.2566
22447W        W38581  18.068   3.258  10.008  0.1086  0.0159  0.1664
22448W        W38582   4.004  14.388   2.659  0.0850  0.3069 -0.1404
22449W        W38583   0.317   8.331   9.593 -0.0189  0.2778 -0.0292
22450W        W38584  17.215   4.907  12.979 -0.0955  0.1601  0.1150
22451W        W38585   2.161  12.748   4.852 -0.0706  0.1594  0.1999
22452W        W38586   7.390  15.903   3.478 -0.1395  0.1880 -0.1840
22453W        W38587   8.720   2.558  12.546 -0.1414  0.0407  0.1525
22454W        W38588  11.165   5.551  13.332 -0.0005 -0.0407 -0.1837
22455W        W38589  12.258   8.380   2.835 -0.3403  0.4378 -0.3183
22456W        W38590   1.239   8.264   4.598 -0.0214  0.0998  0.0134
22457W        W38591  13.518  17.838   3.660 -0.2860  0.1301  0.2791
22458W        W38592   1.133   9.966   3.420  0.1423 -0.2337  0.1506
22459W        W38593   9.311   3.728   1.440  0.0479  0.0603 -0.4267
22460W        W38594   5.440  14.836   1.034  0.2000 -0.0447  0.0535
22461W        W38595   7.091  11.765  13.611 -0.2015 -0.0820 -0.1403
22462W        W38596  17.333  16.424  15.384 -0.0722  0.2361  0.0054
22463W        W38597  11.745   2.360   2.447 -0.0223 -0.1023  0.1225
22464W        W38598   5.573   3.876  10.931 -0.1477  0.2967 -0.1053
22465W        W38599   6.591   3.446  15.996 -0.0443 -0.0723  0.1791
22466W        W38600  11.687  13.572  11.296 -0.1725  0.0617  0.0646
22467W        W38601   4.451   1.063  14.573  0.1198 -0.0253 -0.4408
22468W        W38602  17.940  14.268   0.826  0.1399 -0.0642 -0.0715
22469W        W38603  13.293   4.569   0.232  0.0072 -0.1186  0.3298
22470W        W38604   0.698   7.198  11.215 -0.0733  0.0113 -0.0091
22471W        W38605  15.604   6.795  11.046 -0.0404 -0.0429 -0.0664
22472W        W38606  11.585  12.382   2.864  0.4006 -0.0238  0.1758
22473W        W38607  18.301  16.906  12.243  0.0542  0.0602 -0.0538
22474W        W38608   0.983  14.853  15.626 -0.0046 -0.4035 -0.0122
22475W        W38609  13.329   0.073   3.641  0.1383  0.1483 -0.0479
22476W        W38610   0.772  16.401  11.291  0.5358  0.4032  0.0134
22477W        W38611   4.072   5.452  10.555  0.0157 -0.1494  0.1245
22478W        W38612   2.574   6.809   4.230  0.1155 -0.1816  0.1411
22479W        W38613   0.553  14.904   4.855 -0.0136 -0.0220 -0.2444
22480W        W38614   6.735  12.874  15.061 -0.0708 -0.3290 -0.0169
22481W        W38615  17.297  17.178  12.911 -0.1675  0.0953 -0.3427
22482W        W38616  11.754   4.816   5.910  0.1345 -0.1122  0.2105
22483W        W38617   3.350  11.150   2.525  0.1779  0.1140 -0.0545
22484W        W38618  11.366   7.643   3.242 -0.1845  0.3029 -0.1417
22485W        W38619   8.917   6.398   0.169 -0.4456 -0.0153 -0.1406
22486W        W38620   3.490   9.411  13.479 -0.0083 -0.1904  0.1298
22487W        W38621   0.903   5.918   4.722 -0.1935 -0.2660 -0.0842
22488W        W38622   1.310   6.964   4.936 -0.0277  0.0819  0.1330
22489W        W38623  11.811  10.719   3.112 -0.1901  0.2618 -0.1074
22490W        W38624   2.180   6.568  11.893 -0.2097  0.0457  0.2734
22491W        W38625   1.628   9.392   2.365  0.1943 -0.3672  0.1506
22492W        W38626  15.717   2.161   5.164 -0.1754 -0.2053 -0.0765
22493W        W38627  17.179   9.570  11.951  0.1699 -0.0707  0.0592
22494W        W38628   7.367  11.623   4.858  0.0211 -0.0254  0.0759
22495W        W38629   1.230   8.098   0.387 -0.1126 -0.0379 -0.2560
22496W        W38630  13.885  11.072  14.596  0.2374  0.0696  0.3211
22497W        W38631   8.388  16.492  13.455 -0.1396  0.1373 -0.0975
22498W        W38632  17.767  10.786  13.579  0.0550  0.2007  0.1620
22499W        W38633  14.684  16.948   4.702  0.1397 -0.0371 -0.0867
22500W        W38634   3.126  16.908  10.683  0.3063  0.0659 -0.0758
22501W        W38635   7.857  15.155  11.703  0.0628 -0.0727 -0.0881
22502W        W38636   1.683  16.587   3.904 -0.0009 -0.0584 -0.0915
22503W        W38637  12.367   0.087   5.719  0.1543  0.0804 -0.3136
22504W        W38638  17.405  15.554   2.704  0.0935 -0.1654 -0.0751
22505W        W38639   6.886  13.041   2.898  0.2114 -0.0727 -0.0637
22506W        W38640  14.584   1.214   0.642  0.3164 -0.0307 -0.2811
22507W        W38641   4.793   0.715  14.375  0.2600  0.1262 -0.1090
22508W        W38642  14.495  16.720   2.988 -0.0480  0.1808  0.1463
22509W        W38643   1.309   8.795   4.096  0.2843  0.3840 -0.0992
22510W        W38644  14.223  16.056   2.115  0.0173 -0.1017 -0.1062
22511W        W38645  14.581   6.020  14.902 -0.0428  0.2576  0.1203
22512W        W38646   0.169   5.241  11.230  0.0645 -0.0384 -0.0460
22513W        W38647   2.941   0.949  11.691  0.2442  0.0018 -0.0375
22514W        W38648  10.032  18.083  11.743 -0.3707 -0.1488  0.1042
22515W        W38649  17.029   0.368   1.432  0.1329 -0.0263  0.2042
22516W        W38650   2.281  13.759  12.987  0.2122 -0.1608 -0.2461
22517W        W38651   3.884   0.906   1.924 -0.2324 -0.1316  0.1778
22518W        W38652   0.959  10.790   0.291  0.1419 -0.0097  0.0488
22519W        W38653   6.685  17.375  10.668 -0.0058 -0.0054  0.0629
22520W        W38654  13.637  12.178   0.877 -0.2524 -0.2931  0.4598
22521W        W38655  17.864  14.916  10.842 -0.0495  0.1861  0.0130
22522W        W38656   4.369   9.554  10.333  0.0590  0.0031  0.1088
22523W        W38657  17.888   9.467  10.672 -0.0068 -0.0499  0.2235
22524W        W38658  14.061  18.071  16.045 -0.1988 -0.0711 -0.1661
22525W        W38659  11.614  10.270   5.619 -0.0710  0.1846 -0.1426
22526W        W38660   6.330  15.840  15.369  0.1671  0.0172 -0.1724
22527W        W38661   2.718   5.719  15.524 -0.0791 -0.0605 -0.4198
22528W        W38662   9.607   6.060   5.153 -0.3285 -0.0971  0.1844
22529W        W38663   2.604  15.609  15.119  0.1328 -0.1530 -0.1493
22530W        W38664  16.488  14.618  11.195  0.0968  0.0789  0.1390
22531W        W38665   1.157  14.379  15.213 -0.0441  0.1034  0.1384
22532W        W38666  14.332   4.300  11.474 -0.0249 -0.1279 -0.1153
22533W        W38667  16.338  14.083  15.334  0.0200  0.0248  0.0463
22534W        W38668  16.820  16.849  12.886  0.1562 -0.1344  0.0448
22535W        W38669  14.633   6.531  14.948  0.2864 -0.0409 -0.4105
22536W        W38670   2.895   2.172  13.350 -0.3952  0.2123 -0.0315
22537W        W38671  16.853  17.079  14.759 -0.1078 -0.2341 -0.1802
22538W        W38672   5.072   8.483  10.935 -0.2803  0.1051  0.3442
22539W        W38673   1.775  17.954  16.010  0.1383 -0.1689  0.0121
22540W        W38674  17.267   0.359   5.783 -0.1740 -0.4269 -0.2930
22541W        W38675  13.533   6.039  14.750 -0.1003  0.0309  0.0046
22542W        W38676   9.821  12.152  12.463  0.0047  0.3554 -0.1127
22543W        W38677  10.314  14.682   2.997 -0.0365  0.2252  0.1778
22544W        W38678   3.367   9.955   4.107  0.2488  0.6572  0.1363
22545W        W38679   1.486   5.570   3.750 -0.2654  0.0154 -0.3373
22546W        W38680   5.111  16.792   0.308  0.0272  0.0369  0.0816
22547W        W38681   1.251   8.210   0.869 -0.0975 -0.5016 -0.1694
22548W        W38682   6.994   9.023  12.094 -0.1299  0.1452  0.2847
22549W        W38683  15.978  14.817   4.045 -0.0515 -0.1697  0.0529
22550W        W38684  15.991   3.470  12.962 -0.0193 -0.3689 -0.3284
22551W        W38685  17.418  12.002   9.718 -0.1984  0.0316  0.1842
22552W        W38686  16.086   5.106   3.957 -0.1786  0.0348  0.0049
22553W        W38687  11.517   2.663   6.434  0.2916  0.2140 -0.2670
22554W        W38688   5.781  13.587   0.395  0.0185 -0.0260 -0.2748
22555W        W38689  11.227  11.825   5.118  0.0568 -0.0513  0.0394
22556W        W38690   8.907  12.037   4.250 -0.1353 -0.2004  0.0875
22557W        W38691   2.587   2.093   0.018 -0.0735 -0.2275 -0.3457
22558W        W38692  10.247  18.134  11.184 -0.2295 -0.3264  0.1763
22559W        W38693   0.997   1.431  10.798  0.2933 -0.1320  0.2481
22560W        W38694   6.768   3.233   5.318  0.1942 -0.3270  0.2276
22561W        W38695   7.973   6.274   2.443 -0.0913  0.0127  0.0694
22562W        W38696  17.609   3.364  15.642 -0.1736 -0.0594 -0.1768
22563W        W38697   1.793  13.469  12.153 -0.0486 -0.3017 -0.1495
22564W        W38698   3.146  12.348  11.463  0.0015  0.1151 -0.0548
22565W        W38699   3.345   0.318  11.873 -0.1149 -0.1850  0.0689
22566W        W38700  15.428   7.488  12.879  0.0997 -0.1501  0.0325
22567W        W38701  11.018  10.964   5.529  0.1110 -0.3164  0.1025
22568W        W38702  11.152  14.807  13.508 -0.3332 -0.0361 -0.1263
22569W        W38703  13.680   9.790   2.582  0.0684  0.1798 -0.0296
22570W        W38704  15.625   2.874  15.021  0.0712  0.1678  0.1232
22571W        W38705  14.480  13.234   5.471  0.0962  0.0043 -0.1320
22572W        W38706  12.877   2.480  11.113 -0.1799 -0.1197 -0.1202
22573W        W38707   9.502   6.304   3.944  0.3123  0.0517  0.0239
22574W        W38708   1.872  11.906   0.142  0.1111 -0.0161  0.0518
22575W        W38709  14.175  18.021   2.134  0.0937  0.0770  0.0750
22576W        W38710  15.509   9.531  12.450 -0.0165 -0.0898  0.0916
22577W        W38711  11.991   7.013   0.047  0.1884 -0.1138  0.0569
22578W        W38712   2.298  13.745  13.516 -0.3548 -0.0650 -0.2725
22579W        W38713  18.255  10.238  13.027 -0.1677  0.4007 -0.1488
22580W        W38714  17.927   0.432  15.340 -0.0234 -0.1986 -0.1949
22581W        W38715  14.639   5.376   3.274  0.2291  0.0634 -0.1745
22582W        W38716  12.486   1.382   1.327  0.2552 -0.1291 -0.2396
22583W        W38717  14.929   2.919   4.153  0.0978 -0.0061  0.2268
22584W        W38718  14.531  17.916   3.507  0.1416 -0.1510 -0.0076
22585W        W38719  10.391  15.796   5.283  0.1569 -0.4530 -0.2001
22586W        W38720   7.869   5.704  14.573 -0.0834 -0.0354  0.2068
22587W        W38721   1.823   3.470  12.373 -0.0289 -0.1742  0.0313
22588W        W38722   6.481  14.139  13.196  0.3534  0.1157 -0.2167
22589W        W38723   8.340   4.775   1.937 -0.1223  0.1177  0.0674
22590W        W38724   5.179   4.253   2.595 -0.0544  0.1394  0.0564
22591W        W38725   9.053  14.448   1.913 -0.0358  0.0942 -0.1264
22592W        W38726   0.594  15.497   0.825  0.1523 -0.2586  0.2107
22593W        W38727  14.871  17.773   3.923 -0.0738  0.0496  0.2075
22594W        W38728   8.847  16.231   2.274 -0.1179 -0.0871  0.3550
22595W        W38729  10.264  15.732   4.243  0.1666 -0.3433  0.1148
22596W        W38730  13.114  10.589   2.056  0.0047 -0.2395  0.0896
22597W        W38731  14.267  10.357  13.674 -0.1888  0.1528  0.1807
22598W        W38732  14.300  14.439   2.575 -0.0467  0.3215  0.2513
22599W        W38733   8.181   1.494   2.768  0.2894 -0.0974 -0.1334
22600W        W38734  18.121   7.881   3.847 -0.1665 -0.1138  0.3583
22601W        W38735   2.904   0.339  14.076  0.2255  0.1262 -0.1427
22602W        W38736   3.807   8.191  10.378  0.2271 -0.0328 -0.0133
22603W        W38737   6.748   7.602  12.270  0.1372  0.3203  0.1657
22604W        W38738   7.201  12.799  12.874 -0.0814  0.2023  0.1647
22605W        W38739   4.379   6.468  13.709 -0.1626 -0.0350  0.1605
22606W        W38740  10.477   9.363   1.219 -0.0905  0.1630 -0.2279
22607W        W38741   8.361  10.511   1.831  0.0091 -0.0087 -0.2656
22608W        W38742  13.749   5.077   3.557 -0.0005  0.3261 -0.1222
22609W        W38743   2.743  10.792  14.031  0.0168 -0.2263  0.0064
22610W        W38744   2.398   2.115   5.367 -0.0476 -0.0322  0.1144
22611W        W38745  17.688  18.101   4.042 -0.1149 -0.0632 -0.4537
22612W        W38746   7.221   1.040  15.168 -0.2695  0.0382  0.0415
22613W        W38747   2.906   3.217   2.478 -0.0610  0.1496 -0.0321
22614W        W38748  18.441   2.921   4.971  0.1938  0.0234 -0.0050
22615W        W38749  17.760  16.644   4.513 -0.1756  0.1869 -0.1691
22616W        W38750   1.250   0.070  15.726  0.3014  0.1509  0.3678
22617W        W38751   5.872   6.513   4.861  0.0711 -0.1268 -0.0487
22618W        W38752   7.137   5.892   5.255 -0.2085 -0.2636 -0.2399
22619W        W38753   2.471   8.607   3.060 -0.0122 -0.2008 -0.0765
22620W        W38754   8.135   5.811   2.576  0.0758 -0.0090  0.0694
22621W        W38755   2.958  12.797   4.004 -0.1410  0.2422 -0.1458
22622W        W38756  17.776   9.479   3.437  0.4294 -0.4767 -0.0787
22623W        W38757   1.926   1.735   4.944  0.0321 -0.1577 -0.1863
22624W        W38758   6.578  10.970  13.320  0.0725 -0.0067  0.1007
22625W        W38759   7.283   9.724  15.627 -0.0411 -0.0524 -0.1534
22626W        W38760   9.076   3.253   1.352  0.1733 -0.0914 -0.0591
22627W        W38761   9.486  10.153  14.363  0.3770 -0.0611  0.2151
22628W        W38762   7.223  13.341  12.229 -0.1280  0.1164  0.2777
22629W        W38763   7.302  18.148   2.378 -0.0801 -0.2222 -0.3361
22630W        W38764  11.351  12.521   0.235 -0.0536 -0.1531 -0.3167
22631W        W38765   4.834  15.329  14.503 -0.3372 -0.0331  0.1404
22632W        W38766   6.232  12.971   0.242 -0.0311 -0.1897 -0.1023
22633W        W38767  13.471  18.502   1.248 -0.3064 -0.3513 -0.1091
22634W        W38768   1.663   1.029   1.703 -0.1878 -0.0920  0.2778
22635W        W38769   5.804  13.183  16.081 -0.0036  0.1204 -0.3198
22636W        W38770  10.031  15.910  12.887 -0.0892 -0.1860 -0.2768
22637W        W38771  16.790   0.150   3.053  0.2119 -0.1193 -0.0178
22638W        W38772  14.986   8.552   3.693  0.1178  0.1392 -0.0651
22639W        W38773  11.998  14.872  13.026  0.2251 -0.2287  0.2589
22640W        W38774  16.559  17.448   5.533  0.0323 -0.0891 -0.1131
22641W        W38775  10.832   8.644   6.240  0.2196  0.0627  0.1836
22642W        W38776  15.557  13.439   2.650  0.2459  0.1149 -0.0406
22643W        W38777  14.916   4.183  12.551 -0.1863  0.0017  0.0688
22644W        W38778  15.790   5.726   1.352 -0.1880  0.0646  0.0259
22645W        W38779   9.584  11.190  13.922 -0.2072 -0.0434 -0.2384
22646W        W38780  17.000   4.697   5.697 -0.2181  0.0939  0.0236
22647W        W38781   6.435   1.675  11.232  0.2169  0.0276 -0.0728
22648W        W38782   1.703   2.660   3.527  0.0022 -0.1886  0.1943
22649W        W38783   9.635   1.443   0.270 -0.0031  0.1113  0.3855
22650W        W38784   1.570   2.359  12.460 -0.2218 -0.0852  0.3081
22651W        W38785  15.185   7.243   3.434  0.0092 -0.2907 -0.1298
22652W        W38786   1.898  14.969   0.258  0.1348 -0.1142  0.1550
22653W        W38787  10.093  13.904   0.058  0.3246 -0.2247  0.0787
22654W        W38788  17.319   0.142  14.645 -0.1172 -0.0206 -0.0844
22655W        W38789   3.979   9.376  12.877  0.1734 -0.0249 -0.0359
22656W        W38790  17.051   5.624   4.102 -0.0086 -0.2631  0.1980
22657W        W38791   3.198   2.824  14.622  0.0056  0.1719  0.4106
22658W        W38792   1.514   5.170   3.456  0.0897 -0.0904  0.1439
22659W        W38793   1.648  10.948   1.066  0.2738 -0.0944 -0.1835
22660W        W38794   6.795  11.451  13.304  0.0798 -0.3163  0.2273
22661W        W38795  17.493  12.838  13.492 -0.1802  0.0258 -0.1948
22662W        W38796  10.785   8.395   0.104 -0.0863  0.0825  0.3082
22663W        W38797  16.099   7.455   0.472 -0.1673  0.0396  0.0391
22664W        W38798  10.595  16.315  12.018  0.2871  0.2011 -0.1662
22665W        W38799  14.269  11.815  11.584  0.0504 -0.0389 -0.2113
22666W        W38800  16.992  11.283   0.448  0.0375  0.0009  0.0624
22667W        W38801   1.926  17.711   1.470 -0.1091  0.0274  0.1276
22668W        W38802   9.030  16.829   5.239 -0.1078  0.1785  0.1021
22669W        W38803   0.851   7.381   4.511  0.3471 -0.4625 -0.1513
22670W        W38804  12.064   4.546  15.242 -0.1669 -0.0282 -0.3914
22671W        W38805   4.319   6.417   1.119 -0.1127  0.3682 -0.2758
22672W        W38806   1.273   8.767  11.593 -0.3212  0.0951  0.0005
22673W        W38807  16.229   6.876  14.845  0.1178 -0.1061 -0.2276
22674W        W38808  12.934  14.150   3.074 -0.2784  0.2169 -0.0447
22675W        W38809   5.304   1.460  14.110  0.2749 -0.0790  0.0453
22676W        W38810   6.198  15.454  14.046  0.2590  0.2290  0.1913
22677W        W38811   1.415  16.680  10.581  0.2550 -0.2228  0.0784
22678W        W38812   3.234   1.324   2.318 -0.0289 -0.1115  0.1892
22679W        W38813   4.487   2.381  14.134 -0.1946  0.0087 -0.1153
22680W        W38814  17.891  11.267   1.606 -0.1495  0.2763  0.0208
22681W        W38815  13.923   3.951   0.758 -0.2185 -0.1685  0.0060
22682W        W38816  13.037   3.929   2.604  0.0574  0.2046  0.2566
22683W        W38817  10.835   8.823  12.777 -0.4885  0.0569  0.1008
22684W        W38818   9.803  12.500   5.875 -0.1780 -0.1130  0.0888
22685W        W38819  16.826   5.064  15.968  0.1668  0.3383 -0.1058
22686W        W38820  13.787   7.138  15.499 -0.0511 -0.0138  0.0119
22687W        W38821   2.017  11.140  12.407 -0.2296  0.1949 -0.1373
22688W        W38822  15.785  12.499   5.538 -0.1037  0.1308 -0.1270
22689W        W38823  17.131  11.424  15.394  0.0302 -0.2373 -0.1889
22690W        W38824  12.689  10.323   1.818  0.2508  0.1998 -0.1199
22691W        W38825   7.334  10.677   1.036 -0.0563  0.0651 -0.2438
22692W        W38826   1.250  13.004   2.497  0.1853 -0.1076  0.2441
22693W        W38827   4.852  13.567   1.586  0.1813  0.1273 -0.1017
22694W        W38828  11.619  11.100   0.189 -0.1654  0.0032  0.1579
22695W        W38829   3.899  17.170   5.725 -0.1165 -0.1800  0.0274
22696W        W38830  17.404  16.304   4.235  0.0811  0.1005  0.1780
22697W        W38831   2.626   8.521   0.846  0.2012 -0.0328  0.0113
22698W        W38832   1.137   4.536  10.696 -0.0403 -0.1110  0.0701
22699W        W38833   9.987  17.350  15.949  0.0185  0.0455 -0.0474
22700W        W38834  17.721   1.658   3.072  0.0505 -0.0483  0.2533
22701W        W38835   1.147  13.495  15.385 -0.0063  0.1818  0.0388
22702W        W38836  15.338   6.470   5.142  0.3814  0.1364  0.1488
22703W        W38837   1.550  15.524   4.363  0.0482 -0.1627  0.0168
22704W        W38838   1.539   5.015  15.620 -0.1213  0.0593 -0.1504
22705W        W38839   6.198   8.255   1.507 -0.2056  0.2121  0.0115
22706W        W38840  15.674  16.747   2.818  0.0956  0.2206  0.1742
22707W        W38841  12.147   4.998   4.906  0.4308  0.0801  0.1306
22708W        W38842   2.959   6.174  15.725 -0.0826  0.2570 -0.0475
22709W        W38843  16.964   5.236  14.394  0.1171  0.0374 -0.0998
22710W        W38844  18.118  13.641   4.171 -0.0762 -0.0848 -0.2735
22711W        W38845  18.408   8.672   2.531 -0.1370 -0.1911  0.0696
22712W        W38846   9.418  11.152   5.284 -0.1739 -0.0558 -0.2475
22713W        W38847   3.248   9.622   5.413  0.1837 -0.1049  0.0145
22714W        W38848  16.265   6.858   4.045 -0.0550 -0.2929 -0.0050
22715W        W38849  16.531  14.438   0.475 -0.0512  0.0834  0.1209
22716W        W38850  10.125   8.910   3.271  0.2322  0.2530  0.1051
22717W        W38851  15.321  13.938   1.914  0.2958 -0.1810  0.3694
22718W        W38852  18.215  12.707  14.657  0.0481 -0.1035  0.0800
22719W        W38853  16.727   2.847  13.973 -0.3154  0.0230 -0.1301
22720W        W38854  18.208   0.347   0.694  0.0191  0.1716 -0.3367
22721W        W38855   1.795  14.548  15.285  0.0585 -0.1073  0.0462
22722W        W38856   7.866  15.507  15.268  0.0323  0.0737 -0.2933
22723W        W38857  16.304  17.400   0.201 -0.2841  0.0959  0.4090
22724W        W38858   4.033   2.054  12.333 -0.3065 -0.2251  0.2574
22725W        W38859   6.956   5.754   0.076 -0.0040 -0.1174 -0.2808
22726W        W38860  12.735   5.016   3.514 -0.0091  0.2997  0.1972
22727W        W38861   9.151   7.880  15.190 -0.1203  0.0430 -0.3073
22728W        W38862   8.171  10.669   5.152  0.1627  0.0512 -0.2907
22729W        W38863  13.550  15.983   4.933  0.0224 -0.2124  0.1436
22730W        W38864  10.536  14.127  12.727 -0.0178  0.0783 -0.2512
22731W        W38865  17.943   7.834   2.555  0.1978 -0.4014  0.3461
22732W        W38866   7.940   0.636  13.611  0.0401 -0.0690  0.1006
22733W        W38867   5.413  15.354  13.075  0.2235 -0.2206  0.3051
22734W        W38868   9.273  14.614   5.569 -0.2002  0.0908  0.2019
22735W        W38869   1.558  16.765   2.975  0.1824 -0.2334  0.1820
22736W        W38870  10.880  16.111   4.361 -0.0269  0.1743 -0.1325
22737W        W38871  16.994  16.035  14.969  0.1727  0.0149 -0.2129
22738W        W38872  10.597  18.424   6.233  0.1484 -0.0749  0.1691
22739W        W38873  13.967  12.146  11.941 -0.1241  0.1659 -0.4540
22740W        W38874   0.812   6.465   3.023 -0.1892 -0.3129  0.2177
22741W        W38875   9.816   2.903   1.053 -0.0824  0.4475 -0.1448
22742W        W38876  14.366   7.527  14.975  0.0890 -0.3421 -0.2415
22743W        W38877  16.081   9.695   0.356  0.1618  0.3919  0.0846
22744W        W38878   4.209  11.645  15.421  0.2064  0.0034 -0.2641
22745W        W38879  15.547   9.186  14.562  0.1461 -0.0997 -0.4032
22746W        W38880   7.928  17.625  14.715 -0.0083  0.1942 -0.1423
22747W        W38881   9.371   6.995   4.352  0.1509  0.1398  0.0288
22748W        W38882   1.535  11.145  11.552 -0.2541 -0.4562 -0.1678
22749W        W38883  14.587  16.474   4.807  0.0696 -0.0499 -0.0358
22750W        W38884   6.599   4.245  15.976  0.0104  0.1554  0.0823
22751W        W38885   6.179   2.906   4.140  0.2477  0.0906 -0.0904
22752W        W38886   7.177   2.629   5.116  0.0387  0.0093  0.0934
22753W        W38887   9.899  13.133   2.429  0.1468  0.0129  0.1070
22754W        W38888  12.231   9.485   6.377 -0.1064 -0.1531  0.0556
22755W        W38889  17.352   5.315  10.977  0.0277 -0.1032 -0.0122
22756W        W38890  10.413  15.069   0.607  0.0677 -0.3051  0.2168
22757W        W38891  12.014  18.470  12.971  0.3628  0.1886 -0.1313
22758W        W38892  13.704  11.535  14.211 -0.1258 -0.2801  0.0979
22759W        W38893  17.285   5.627  12.065 -0.1136  0.0071 -0.0561
22760W        W38894   1.798  11.605   4.600 -0.0919  0.0432 -0.2529
22761W        W38895  10.915   3.915   3.179  0.0486  0.1035 -0.2936
22762W        W38896   2.700   0.272  15.969 -0.0857 -0.3459  0.0759
22763W        W38897   2.141  18.101  13.409  0.2298  0.0019  0.1032
22764W        W38898  15.893  16.051   3.135 -0.0103 -0.0366 -0.2514
22765W        W38899  18.340   3.160   2.981 -0.0408 -0.0984 -0.0987
22766W        W38900  17.746  17.755  13.269  0.2084 -0.0242  0.0358
22767W        W38901  10.267   2.660   0.847 -0.0149 -0.0275  0.1737
22768W        W38902   8.112   1.298   3.397  0.2363  0.1457  0.1506
22769W        W38903  16.194   8.153   2.331 -0.3242  0.1462  0.0865
22770W        W38904   8.686  10.102   3.454 -0.1423  0.1911  0.2479
22771W        W38905   1.923   1.791  10.504  0.0815 -0.0596  0.1215
22772W        W38906  18.294  12.327  13.080 -0.3538  0.2325  0.0293
22773W        W38907   0.624   7.248  14.176  0.1901 -0.0050 -0.0388
22774W        W38908  10.315  18.248   0.897 -0.1871 -0.0323  0.1150
22775W        W38909  10.057   8.791   3.756  0.1081 -0.2638  0.1433
22776W        W38910  13.578  13.643  13.587  0.0067  0.0242  0.1566
22777W        W38911   4.827   6.606  15.919 -0.0453 -0.1393  0.1111
22778W        W38912   5.421  16.537  15.530  0.1207  0.2912 -0.0351
22779W        W38913   7.256   4.033   6.113  0.3011 -0.3678  0.0719
22780W        W38914  11.318   4.394   0.341 -0.0434  0.2296 -0.1644
22781W        W38915   7.888  14.013   3.747 -0.2516  0.0544  0.0108
22782W        W38916  16.381   5.005   1.260  0.0683 -0.0743 -0.0525
22783W        W38917   6.657   6.436  11.488  0.2069 -0.2213  0.1836
22784W        W38918   4.167  13.289   4.060  0.1003 -0.0324 -0.1905
22785W        W38919   4.812  18.498  12.106 -0.1900 -0.1818 -0.2710
22786W        W38920  11.647   6.655  15.891  0.2386  0.2644 -0.0529
22787W        W38921   6.813  14.698   2.709 -0.0833  0.0037 -0.1183
22788W        W38922   5.883   2.963   6.183  0.0763  0.1571  0.1320
22789W        W38923   9.767  14.853  11.623  0.2073 -0.0357  0.0848
22790W        W38924  11.357   2.874   3.826  0.1125  0.3870 -0.2347
22791W        W38925   3.568  11.468  12.525  0.2303 -0.1186  0.2657
22792W        W38926   5.779  16.518  15.111 -0.1257  0.1074 -0.0015
22793W        W38927   7.917   8.977  14.693  0.3176 -0.0904  0.0723
22794W        W38928   3.238   9.281  12.732 -0.0635 -0.2590  0.2100
22795W        W38929  14.253   8.304  12.511  0.1649 -0.1022 -0.3252
22796W        W38930   8.261   4.751  12.364  0.0340 -0.0026 -0.1916
22797W        W38931  14.650  12.640  11.439 -0.1981  0.0262  0.0355
22798W        W38932  11.814   6.780   5.782 -0.0393 -0.2014 -0.0990
22799W        W38933   7.568  12.158  14.429  0.1988  0.2084 -0.1112
22800W        W38934  13.092   1.166   4.006  0.0754  0.3559  0.0898
22801W        W38935   4.447   2.171   3.505 -0.0791 -0.2288  0.1049
22802W        W38936  16.323   7.843   0.711  0.2124  0.1848 -0.3080
22803W        W38937   3.479  10.980   3.615 -0.0387  0.2048  0.2412
22804W        W38938  13.862   3.464   5.635 -0.1829 -0.0955  0.0014
22805W        W38939   5.047  16.254   2.910 -0.3593  0.2157  0.0086
22806W        W38940   8.380   7.834   4.893 -0.0786 -0.0210  0.2269
22807W        W38941  14.916   8.732   2.605  0.2439  0.0732  0.1652
22808W        W38942   0.822  11.411  14.899  0.0001  0.1328 -0.0856
22809W        W38943   9.109   1.055  13.371 -0.1205  0.2827  0.3491
22810W        W38944  17.286  17.338  16.072 -0.0330 -0.1373 -0.1985
22811W        W38945  13.239   5.449   0.935  0.1770 -0.0698 -0.0248
22812W        W38946  12.211  16.551  15.926  0.2177  0.3006 -0.1842
22813W        W38947  17.323  14.437  13.977 -0.1494 -0.0692  0.0605
22814W        W38948   4.799  15.951   4.186  0.0660 -0.0447  0.0019
22815W        W38949   6.688  16.610  14.966 -0.2010  0.3203 -0.0885
22816W        W38950   9.167  17.478   2.631  0.0247  0.2216 -0.0845
22817W        W38951  14.890  12.993   1.063  0.3502 -0.4412 -0.0412
22818W        W38952   3.615   9.129  13.057 -0.1790  0.3992  0.4104
22819W        W38953  16.145   5.559  15.163  0.1304  0.3130 -0.1336
22820W        W38954  13.136   6.064   2.875  0.1316  0.4706 -0.1128
22821W        W38955   6.558   5.895   0.341 -0.1940  0.2332  0.2077
22822W        W38956   5.010  10.253   0.606  0.0893  0.0712  0.1759
22823W        W38957   5.755   8.441   1.090  0.3273  0.0037  0.2323
22824W        W38958  12.979   2.450  15.589  0.2481  0.2017  0.1934
22825W        W38959  18.080  18.191   0.137 -0.1763  0.2058  0.0535
22826W        W38960  10.500   1.530   5.026 -0.1583  0.2533 -0.0578
22827W        W38961   3.795   2.863   2.602 -0.0955 -0.2660  0.2253
22828W        W38962  17.131   4.373   9.959  0.1426  0.3000  0.1486
22829W        W38963   8.882   9.485   3.712  0.0568 -0.0092 -0.2723
22830W        W38964  13.560  12.667  16.076 -0.1252 -0.1030 -0.4463
22831W        W38965   5.450  13.431   1.760  0.1974 -0.0392  0.0191
22832W        W38966  12.432   9.173   2.837  0.3045  0.0599  0.0633
22833W        W38967   0.295  15.243   2.542 -0.1617  0.1681  0.1225
22834W        W38968  11.231  18.011   3.445 -0.1631 -0.1242  0.2224
22835W        W38969   4.487   8.434  13.577  0.0320 -0.1529 -0.3314
22836W        W38970   6.807  14.213   1.530 -0.2996  0.0387  0.2824
22837W        W38971  16.818  18.399   5.254 -0.2229 -0.4111 -0.1875
22838W        W38972  10.152  16.232   5.563 -0.3075 -0.0781  0.3660
22839W        W38973  11.222   0.017  13.271 -0.1008  0.1602  0.2542
22840W        W38974   4.793   6.367  12.069  0.0132 -0.0151 -0.1896
22841W        W38975   7.362  11.096   1.590 -0.0742  0.1671 -0.1638
22842W        W38976   4.007  13.210  15.617 -0.2552 -0.0503 -0.4232
22843W        W38977  15.803  12.910  10.649 -0.0709  0.1642  0.0528
22844W        W38978   1.176  13.091  13.900  0.1945 -0.0130  0.0809
22845W        W38979   0.193   7.611  12.904  0.1268 -0.2954 -0.0837
22846W        W38980  16.023  16.084  14.452 -0.0924 -0.1500  0.1220
22847W        W38981  12.969   1.407  15.954  0.1334  0.1199  0.0208
22848W        W38982  16.827   7.962   0.882 -0.1717  0.1159 -0.1724
22849W        W38983  12.214  11.482  15.707  0.1372  0.0484  0.4039
22850W        W38984  12.733  11.327  11.579 -0.2271 -0.2214 -0.1289
22851W        W38985  18.467   7.010  13.720 -0.0587  0.1366 -0.0400
22852W        W38986  17.791  10.388   2.056 -0.3223  0.1291  0.1762
22853W        W38987  18.243   7.011   3.426 -0.1898 -0.0673 -0.1185
22854W        W38988   9.937   2.279   2.628 -0.4379 -0.0616 -0.0733
22855W        W38989  15.810  10.191   0.297  0.2428 -0.1785  0.0463
22856W        W38990  13.708  13.547  12.239 -0.1271 -0.0234  0.1082
22857W        W38991  11.419   0.732   0.294 -0.1748 -0.1769  0.2868
22858W        W38992   4.610   4.748   3.726  0.0832 -0.0670  0.1270
22859W        W38993   6.379   3.966  14.528 -0.0238 -0.1802  0.2117
22860W        W38994   8.028  14.468   2.556  0.1281  0.0106 -0.0445
22861W        W38995   0.277   6.609  11.674  0.1537  0.0731  0.0531
22862W        W38996  18.334   0.825  10.889  0.0628 -0.3045  0.2802
22863W        W38997   7.772   0.435  14.551 -0.0999 -0.2126 -0.0515
22864W        W38998   5.977  17.394   3.974 -0.0637 -0.1534  0.2466
22865W        W38999   8.770  18.270   5.445 -0.0068  0.1292  0.2297
22866W        W39000   1.568  14.280  14.929 -0.1491  0.4109  0.1819
22867W        W39001   2.450  17.960  14.294 -0.0230  0.1929 -0.0308
22868W        W39002   3.810  15.442   1.648 -0.1298  0.0739  0.0821
22869W        W39003   5.129   5.688  16.063  0.0865 -0.0550  0.0366
22870W        W39004   4.293  18.013   0.126  0.3268 -0.1244  0.0109
22871W        W39005  14.205   6.187   0.743  0.2935  0.0247 -0.2882
22872W        W39006   9.681  16.604   4.298  0.2215 -0.1733  0.2807
22873W        W39007  16.310  15.701   2.039  0.0334  0.4428  0.2312
22874W        W39008  16.048   2.516   1.262  0.1146  0.2039 -0.0576
22875W        W39009   0.099   0.320  13.762 -0.1281 -0.2771 -0.1636
22876W        W39010  16.525  14.397   1.455 -0.1454  0.0627 -0.0907
22877W        W39011   6.189   8.646   1.205 -0.2293  0.0522 -0.2906
22878W        W39012  16.577   2.301  12.104  0.0863 -0.1357 -0.2931
22879W        W39013   2.387   5.659   4.940 -0.2503 -0.0123 -0.0116
22880W        W39014  13.750   8.402   0.070  0.0330  0.1759  0.0520
22881W        W39015  13.720  10.272   1.281 -0.2146 -0.2269 -0.2912
22882W        W39016  11.045   7.435   3.599 -0.1842  0.0622  0.0696
22883W        W39017   4.312  16.887  16.060  0.0459 -0.0484  0.1538
22884W        W39018  10.830  15.287   3.623  0.2790  0.0478 -0.2073
22885W        W39019  10.250  16.461   1.822 -0.1270  0.0912 -0.1588
22886W        W39020  10.640  15.409   5.148 -0.2913 -0.0761 -0.0766
22887W        W39021  16.318  11.711  15.943  0.0388  0.0913  0.0431
22888W        W39022   0.759   7.669  10.416  0.0833  0.2545  0.0162
22889W        W39023  15.140   5.676   4.316 -0.1269  0.0787  0.0115
22890W        W39024  12.631   6.827   5.185  0.2351  0.0444  0.2889
22891W        W39025   7.078   5.419   5.234 -0.1087  0.3197 -0.2376
22892W        W39026   4.092   9.893  15.677 -0.2951  0.2463  0.2990
22893W        W39027   2.796  17.417   3.481  0.0932  0.1349 -0.0590
22894W        W39028   7.207  10.405  11.395  0.2278  0.0189 -0.2645
22895W        W39029  12.890   3.085   3.213 -0.4511 -0.1523  0.0336
22896W        W39030   3.980   5.106   2.210 -0.0276  0.2568  0.1830
22897W        W39031   1.427   8.916  14.473  0.1802 -0.2997 -0.0140
22898W        W39032   9.740   0.084  14.423  0.0701 -0.1155  0.1081
22899W        W39033  18.251   9.061   2.820  0.1402 -0.2074 -0.2497
22900W        W39034   9.270   9.394   3.264  0.2907  0.2227 -0.1290
22901W        W39035   7.146  16.885  15.582  0.2310  0.0125 -0.1960
22902W        W39036   8.025   7.200   2.368 -0.1268  0.2537 -0.0345
22903W        W39037  16.666   0.246   0.993 -0.3831 -0.1679  0.1765
22904W        W39038   9.886  17.083   6.657 -0.3822 -0.3188  0.0928
22905W        W39039   1.848   3.627   0.327 -0.0038 -0.0599 -0.0903
22906W        W39040   6.353  10.350  15.633 -0.3005 -0.1007 -0.0549
22907W        W39041  17.829   6.888  14.832  0.3557 -0.1769 -0.1205
22908W        W39042  11.105  10.765   3.550  0.0580  0.1872 -0.1255
22909W        W39043  18.325   8.961  14.601  0.0618 -0.1853 -0.0001
22910W        W39044   0.281  14.926  15.020  0.2278  0.2192  0.0610
22911W        W39045   5.107  12.683   2.080  0.0119 -0.0544  0.0667
22912W        W39046  15.895  15.924  12.681 -0.1517 -0.2502 -0.3545
22913W        W39047  14.409   6.418   2.741 -0.0072 -0.1183 -0.0405
22914W        W39048  15.122   3.631   4.530  0.2565 -0.2248  0.0250
22915W        W39049   9.772  16.854   6.210  0.4244 -0.0546  0.1127
22916W        W39050  11.721   2.235   4.276 -0.3328 -0.1323 -0.1017
22917W        W39051   6.086   2.956  12.867  0.1158  0.0059 -0.3950
22918W        W39052  12.350   9.847   0.284  0.1209 -0.0868 -0.0154
22919W        W39053  13.045   6.893   3.237  0.2706  0.1490 -0.0348
22920W        W39054   4.360   6.220  10.019 -0.0589 -0.3302  0.1090
22921W        W39055  14.839   5.649  13.904  0.3076 -0.0360  0.4726
22922W        W39056   8.825   8.584  14.925 -0.1195  0.3493 -0.0379
22923W        W39057  11.530   4.016  12.128  0.0150  0.0902 -0.1107
22924W        W39058  13.129   3.272  14.395  0.4367 -0.2498  0.0111
22925W        W39059  18.211  15.818   0.811  0.0540 -0.1687  0.3018
22926W        W39060  18.006  13.880  15.331  0.2355  0.1290  0.2544
22927W        W39061   3.836  12.597   1.148 -0.0719 -0.1233  0.1153
22928W        W39062  17.600  14.753   4.706  0.1344  0.0765  0.0544
22929W        W39063  16.120   8.716   0.256 -0.0538  0.2618  0.0136
22930W        W39064   8.803  13.029   1.602 -0.1633 -0.2652 -0.1403
22931W        W39065   4.131  17.187   4.485  0.1456  0.1197  0.0174
22932W        W39066   9.191   1.466  15.315  0.1401 -0.0332 -0.2641
22933W        W39067   8.742  15.421  11.836 -0.2006 -0.3263  0.0067
22934W        W39068   5.356  12.104  11.487  0.1473  0.0614 -0.2054
22935W        W39069   7.966   1.477  13.207 -0.1734 -0.1344  0.2922
22936W        W39070  13.803  17.688  14.945  0.0860 -0.0336 -0.0760
22937W        W39071  16.217   0.759   5.104  0.3726 -0.3237 -0.0529
22938W        W39072   8.666  12.072  14.968  0.2382  0.0705  0.0867
22939W        W39073  12.210  15.733  10.573 -0.1592 -0.0403  0.0445
22940W        W39074  14.369   4.735  16.022 -0.2353  0.1480  0.2488
22941W        W39075  11.139  11.305   3.975  0.3245 -0.0264 -0.4853
22942W        W39076   0.042  13.751   3.037  0.1764 -0.0862  0.0196
22943W        W39077   0.123   1.009  14.519 -0.3567 -0.0550  0.1806
22944W        W39078  15.949   0.560   0.589 -0.0722  0.0782 -0.2327
22945W        W39079   6.945   4.609  13.125 -0.0591 -0.0294  0.0416
22946W        W39080   8.140   8.825  13.718 -0.0086 -0.3375 -0.0179
22947W        W39081   8.274   2.798   6.225  0.0351 -0.2079  0.2923
22948W        W39082   0.554  14.666   0.052  0.0806  0.2486  0.1741
22949W        W39083   0.015   6.779   4.485 -0.1672  0.0137  0.1007
22950W        W39084   8.408   6.042   5.670  0.0272 -0.2750 -0.0673
22951W        W39085   0.274   3.791   0.376 -0.2838 -0.0891 -0.1142
22952W        W39086   0.225  17.511  14.180  0.0605 -0.3475 -0.1070
22953W        W39087  14.012   5.724   3.235 -0.1219  0.2139  0.0359
22954W        W39088  15.999   8.963  11.673  0.1300 -0.2695  0.1714
22955W        W39089   1.258  13.208   1.198  0.2496 -0.0271  0.3232
22956W        W39090  10.354  13.202   2.743 -0.3377  0.0942 -0.0732
22957W        W39091  15.618   8.885   5.550  0.0022 -0.2375 -0.0022
22958W        W39092   4.109   2.530  15.987 -0.0141 -0.1002 -0.0829
22959W        W39093  18.091  14.704   4.871  0.1870 -0.1724 -0.2086
22960W        W39094  10.762   4.568  14.719  0.2014  0.2960  0.1507
22961W        W39095  13.184   3.107   4.991  0.0473  0.0751  0.0955
22962W        W39096  10.599  10.213   3.071  0.1474  0.2214 -0.1241
22963W        W39097   4.375  16.363  15.866  0.0948  0.0217 -0.0058
22964W        W39098   3.589   4.745  13.028  0.0096  0.1783  0.0423
22965W        W39099   4.466   2.716  11.287 -0.0826 -0.0669 -0.3027
22966W        W39100   6.446   2.413   5.135  0.1101 -0.3183 -0.2651
22967W        W39101   2.141  17.352   5.046 -0.3389 -0.1875  0.1626
22968W        W39102  14.094  10.067   1.628 -0.1002 -0.4071 -0.3135
22969W        W39103  14.440   4.775   4.348  0.0267 -0.1548 -0.1579
22970W        W39104   8.900  18.330   0.095 -0.1680  0.0794  0.3499
22971W        W39105   1.955  11.331  10.801 -0.0681 -0.0692 -0.2049
22972W        W39106  17.754   2.243  16.007 -0.1463  0.0144  0.3734
22973W        W39107   4.672   5.586   1.042 -0.0826  0.1160  0.0562
22974W        W39108   7.681  10.858   2.873  0.2406 -0.2457 -0.0860
22975W        W39109   6.435  11.493   1.229  0.0176 -0.0440 -0.2012
22976W        W39110  14.171   5.306  12.425 -0.0874 -0.0740  0.0522
22977W        W39111   9.594   3.746   3.112  0.1483 -0.0527 -0.0228
22978W        W39112  10.257  16.175  16.065 -0.1111 -0.2201  0.3432
22979W        W39113   7.439   6.080   4.576  0.0171 -0.0307 -0.0323
22980W        W39114   4.611   3.976  14.375  0.2449  0.0430  0.0986
22981W        W39115   2.063   7.305  13.387 -0.0585 -0.3443  0.1650
22982W        W39116  15.986  10.323   1.298 -0.3472 -0.1694 -0.0506
22983W        W39117   7.844   9.463   2.949 -0.1115  0.1869  0.0837
22984W        W39118  16.558   0.203   2.594  0.0616 -0.1816 -0.1923
22985W        W39119   4.548   0.786   2.392  0.3105 -0.0753  0.3566
22986W        W39120  10.514  12.886   1.568 -0.1606 -0.0420  0.2136
22987W        W39121   4.550  13.300   4.337  0.3384  0.0712 -0.2064
22988W        W39122   1.509   1.101   4.319  0.0438  0.1761  0.2086
22989W        W39123   8.510  12.969  12.220  0.0346  0.0945 -0.0592
22990W        W39124   5.224   7.638  13.780 -0.0709  0.0042  0.0027
22991W        W39125  11.157  17.095  13.680 -0.4458 -0.0180  0.0395
22992W        W39126  15.260   8.092   3.723  0.1609 -0.1443 -0.0093
22993W        W39127  16.879   8.804   4.805 -0.1212 -0.0128  0.0417
22994W        W39128  17.101   4.467  14.283  0.3020  0.0273 -0.0898
22995W        W39129  14.047  16.498  15.747 -0.1126  0.0871  0.1378
22996W        W39130  14.429   7.439   2.450 -0.0196 -0.0443  0.0490
22997W        W39131   2.376   2.504  15.934 -0.1005  0.2273 -0.0253
22998W        W39132   4.127   7.392  11.984 -0.1719 -0.2860  0.0440
22999W        W39133   3.601   6.758   2.818  0.2251 -0.1719 -0.2669
23000W        W39134   2.708  13.023  13.794 -0.0235  0.0118  0.1659
23001W        W39135   7.708   0.280  16.068 -0.0376  0.1812  0.1618
23002W        W39136   7.557  17.583  15.715  0.2250 -0.2107 -0.0620
23003W        W39137  15.875  15.134   0.501  0.0828  0.3469  0.1469
23004W        W39138  11.111   4.119   4.469 -0.0480  0.0963 -0.0870
23005W        W39139  12.919  13.280   5.177  0.0726  0.1489 -0.1397
23006W        W39140  16.208  11.687  13.542 -0.1161  0.0690  0.3845
23007W        W39141   8.169  15.598   4.513 -0.0355 -0.1878  0.0915
23008W        W39142  15.630   5.596  15.153 -0.3722  0.1154  0.0244
23009W        W39143  17.275   9.664   0.293 -0.2014 -0.0337  0.2736
23010W        W39144  10.543  14.917   3.414  0.0675  0.1818 -0.1132
23011W        W39145  15.604   5.812  14.591 -0.2500  0.0556  0.1805
23012W        W39146  14.556   4.722  15.082 -0.3333  0.3318  0.0067
23013W        W39147   4.699   9.632  12.259 -0.0615  0.1343 -0.0253
23014W        W39148   4.538  10.025  11.980  0.0329  0.3646 -0.1952
23015W        W39149   3.636  14.402  10.557  0.0981 -0.3417 -0.0168
23016W        W39150   4.628   8.826   3.326  0.0844  0.0340 -0.3310
23017W        W39151   1.156   8.256  11.345 -0.2141  0.0213  0.3373
23018W        W39152   8.145   3.404  11.502  0.2490 -0.3721  0.2355
23019W        W39153   4.057   5.617  14.847 -0.0115  0.1662  0.0514
23020W        W39154  17.735  14.739   2.879 -0.0232 -0.0207 -0.1626
23021W        W39155  18.327   5.646   9.672 -0.1806  0.3827  0.2316
23022W        W39156   1.565   0.711   2.063  0.1481  0.4619  0.0888
23023W        W39157   4.149   6.914   3.476 -0.3884  0.1077 -0.0001
23024W        W39158   0.378   3.329  11.492 -0.1575 -0.5917 -0.0236
23025W        W39159   2.120  11.548   2.425 -0.2019 -0.0472 -0.1955
23026W        W39160  12.121  17.280   0.823 -0.0365 -0.2155 -0.0461
23027W        W39161   5.351   5.268  13.050  0.0580  0.2069  0.2223
23028W        W39162   2.017  15.015   3.283  0.0878  0.3073  0.0560
23029W        W39163   2.676  15.896  13.697  0.2940 -0.1705  0.1299
23030W        W39164  12.999   5.740   1.387 -0.2455  0.0568 -0.3069
23031W        W39165   7.262   6.201   2.978 -0.0383 -0.3913  0.0095
23032W        W39166  10.548  16.678  10.640  0.0157 -0.0779 -0.0301
23033W        W39167  14.650   8.276  14.260  0.1035 -0.0958 -0.1505
23034W        W39168   1.659  11.869   2.253 -0.0940  0.1018  0.0792
23035W        W39169  18.172   3.269   4.202  0.0888  0.1170  0.1085
23036W        W39170   8.819  14.848  14.096 -0.2474 -0.0317 -0.0426
23037W        W39171   0.221  11.699  11.894  0.0569  0.2342 -0.0604
23038W        W39172  18.383  12.901   3.140 -0.0938 -0.2274  0.2427
23039W        W39173   5.558   8.491  10.659 -0.1404  0.0646  0.4041
23040W        W39174   9.173   0.514   2.270 -0.0592  0.0347 -0.3063
23041W        W39175  10.674   8.172   3.020 -0.1227  0.2923 -0.1226
23042W        W39176   6.146  13.942  11.258 -0.0088  0.1781  0.2027
23043W        W39177   2.269   4.631   1.851  0.1658 -0.0551  0.2508
23044W        W39178   6.603   9.146  15.196 -0.4742 -0.2767 -0.0749
23045W        W39179  17.641  12.180   0.786 -0.1324 -0.0713  0.0321
23046W        W39180  13.337  11.666  14.891  0.1498 -0.0895 -0.1084
23047W        W39181  16.384   5.341  14.146  0.0906 -0.0235  0.1736
23048W        W39182  13.206   9.144  13.564  0.1617 -0.1056 -0.1266
23049W        W39183  13.926  13.565   0.611  0.0107 -0.0366  0.2507
23050W        W39184  11.217   8.783  11.457  0.0965 -0.1549  0.0862
23051W        W39185   3.091  10.571  11.790 -0.1208 -0.3502 -0.0133
23052W        W39186  15.037  15.139  15.597 -0.1205  0.0167 -0.0164
23053W        W39187   2.713   8.514   4.906 -0.1149  0.1107 -0.3306
23054W        W39188   1.383   4.804  14.159 -0.1245 -0.0456 -0.0257
23055W        W39189   3.639  15.888  13.136  0.2715 -0.2407  0.0139
23056W        W39190   1.171   6.357  11.308 -0.0069 -0.1852 -0.0944
23057W        W39191  16.290   9.509  12.186 -0.2232  0.3296  0.2702
23058W        W39192  15.029   5.089  14.846 -0.0522  0.0279  0.2645
23059W        W39193  11.539   9.965  14.131  0.0371 -0.0681  0.2691
23060W        W39194  11.607   8.260   5.877  0.2598  0.2731 -0.1062
23061W        W39195   2.722   2.324  11.443 -0.0844 -0.1545  0.2188
23062W        W39196   6.624   4.500   3.204 -0.2440  0.1889  0.2429
23063W        W39197   4.776   6.374   4.252  0.1809 -0.0235  0.1303
23064W        W39198   0.551   4.465  12.297 -0.0802  0.2348 -0.0778
23065W        W39199  11.614  17.402   2.265  0.0718 -0.2553 -0.2166
23066W        W39200   7.661  16.792   3.807  0.2290  0.0903 -0.0239
23067W        W39201   9.165   4.844   2.460  0.1252 -0.1916  0.0769
23068W        W39202   8.084   0.216   2.466 -0.3883 -0.0159 -0.0953
23069W        W39203  12.276   0.558   2.963  0.2570  0.0013  0.0915
23070W        W39204   4.635   4.212   4.101 -0.0437  0.0345  0.1815
23071W        W39205  17.213  18.438  12.603  0.0065  0.0317 -0.0970
23072W        W39206  12.371  10.876  15.453  0.1299 -0.3720 -0.0640
23073W        W39207   1.717  14.865   4.249 -0.0097  0.3275 -0.1265
23074W        W39208  13.256  16.882  11.282 -0.1387 -0.3674 -0.3377
23075W        W39209   7.440   5.414   5.631  0.1576  0.1398  0.2554
23076W        W39210   7.277   4.634   3.324 -0.0251  0.0094 -0.2750
23077W        W39211   6.998   3.620   5.908  0.2345  0.1641 -0.1289
23078W        W39212   9.376  17.907   1.488 -0.2855  0.0995 -0.3217
23079W        W39213  16.548  13.255  14.564  0.2167  0.0364  0.0701
23080W        W39214   2.866  12.713  14.952  0.0741  0.2949  0.2753
23081W        W39215  10.903  12.323   4.221 -0.0314 -0.0267  0.0647
23082W        W39216   0.440   2.401   1.758  0.0523 -0.1507  0.1227
23083W        W39217  12.535   6.294   3.830 -0.3549 -0.2676  0.3082
23084W        W39218   6.241   8.439  13.635  0.0943  0.0808  0.0255
23085W        W39219  10.006   8.095   6.319  0.1829 -0.0110  0.0303
23086W        W39220   0.850  16.643  15.285 -0.0014 -0.1170 -0.0420
23087W        W39221  17.246   2.115  14.829 -0.0593  0.1602 -0.1483
23088W        W39222  18.406  13.707  15.603 -0.1281 -0.2155 -0.1807
23089W        W39223   1.083  13.523   0.779 -0.0507 -0.0388  0.0801
23090W        W39224  16.503  18.279  14.078 -0.0171 -0.0441 -0.1050
23091W        W39225  15.359   3.208  12.508 -0.0589 -0.0326  0.1763
23092W        W39226  14.165   5.177   1.498 -0.2001 -0.0804  0.2044
23093W        W39227   3.507  11.880   3.436 -0.1165 -0.1063  0.1093
23094W        W39228  12.141   5.872  15.847 -0.0371  0.3027  0.0390
23095W        W39229   9.484   9.037   4.809 -0.0858 -0.0968  0.2989
23096W        W39230  16.635  12.620  15.511  0.0680 -0.0433  0.2126
23097W        W39231  15.768   0.706   5.338  0.2743  0.0831 -0.1367
23098W        W39232   4.679   3.214  14.671 -0.0848  0.1449  0.0206
23099W        W39233  10.390   1.536  12.955  0.1405  0.0738 -0.1705
23100W        W39234  16.914  13.997  12.167  0.1036  0.3175  0.3055
23101W        W39235  11.607   9.639  11.922 -0.0220  0.0153  0.0745
23102W        W39236  11.527   6.533  12.316  0.0616 -0.5071  0.2110
23103W        W39237  15.669   6.117  11.847  0.2026  0.0031  0.0302
23104W        W39238   4.527  18.457   3.905  0.3015  0.1342  0.2034
23105W        W39239   6.978   2.287   2.157  0.1842 -0.2494  0.2004
23106W        W39240   3.931   5.802   3.765 -0.1503 -0.2353 -0.0760
23107W        W39241  10.242  17.603   5.754  0.1092  0.6685 -0.1248
23108W        W39242  12.413  17.132   2.876  0.2061 -0.1829 -0.2262
23109W        W39243  14.461  14.489  15.854  0.0156  0.1463 -0.0987
23110W        W39244  10.544   2.136   3.325  0.2011 -0.1773 -0.0162
23111W        W39245  18.336  18.081   1.854  0.0079 -0.0440  0.0579
23112W        W39246  17.949  11.824   4.589 -0.1067  0.1566 -0.0311
23113W        W39247   3.486  11.871  13.416  0.0484 -0.0131 -0.0574
23114W        W39248   2.780   9.925  13.578  0.0724 -0.0932  0.2174
23115W        W39249  10.670   2.231   4.357 -0.1385  0.0457  0.0010
23116W        W39250  10.587   3.611  11.848 -0.3375 -0.1576  0.1065
23117W        W39251   8.143  12.451   3.658 -0.0900  0.1236  0.1253
23118W        W39252   6.839  10.627   1.336 -0.2222 -0.0141 -0.2859
23119W        W39253  16.146   7.097   4.490  0.0283  0.2496 -0.1140
23120W        W39254   2.296   4.702  13.595  0.0951 -0.5255  0.1342
23121W        W39255   0.570  13.466   2.193  0.4217  0.1614  0.1044
23122W        W39256   1.093  12.118   2.356  0.1797  0.1732 -0.0566
23123W        W39257  17.027  17.941  11.198  0.1025  0.2840 -0.0017
23124W        W39258   2.832  11.080  14.789 -0.0656 -0.1950 -0.1259
23125W        W39259   3.135  12.272   0.988 -0.0070  0.2197  0.0027
23126W        W39260   7.405  15.962   2.459  0.0045  0.1793  0.1657
23127W        W39261  15.708   4.978  11.110  0.1228  0.1259 -0.0526
23128W        W39262  11.980  13.021   5.375 -0.0889  0.0182  0.0392
23129W        W39263  15.140   6.825  15.515 -0.1948 -0.0113 -0.1788
23130W        W39264   1.578  15.086  10.312 -0.0331  0.0210 -0.0292
23131W        W39265  10.789  15.017   6.312 -0.2423  0.0241 -0.2839
23132W        W39266  13.753  16.788  14.205 -0.1330  0.2265  0.0607
23133W        W39267   9.303   6.506  12.940 -0.0820  0.0884 -0.2490
23134W        W39268  14.183   0.004   0.191 -0.3187  0.1424  0.2682
23135W        W39269   4.111  13.606  14.376  0.1950 -0.0457  0.1582
23136W        W39270   3.567  15.803   1.212  0.1809 -0.0730 -0.0200
23137W        W39271  10.181   3.762   4.298 -0.2002  0.1537  0.0998
23138W        W39272  16.692   2.828  14.434 -0.2993 -0.0942 -0.1280
23139W        W39273   4.438   9.393  15.170 -0.0236 -0.1618  0.1061
23140W        W39274   1.217   1.512   2.676  0.0727 -0.0756 -0.2622
23141W        W39275  11.181   8.647  14.392  0.0768 -0.0501 -0.0106
23142W        W39276  10.900   7.095  14.979 -0.1517 -0.0699 -0.1981
23143W        W39277  15.771   7.891   2.471 -0.5092  0.0496  0.1597
23144W        W39278   2.662   0.412   3.868 -0.0520 -0.1307 -0.0498
23145W        W39279  17.550  10.514   3.762 -0.2091 -0.1032  0.0852
23146W        W39280  16.429  12.396   2.019 -0.3028  0.0965 -0.0617
23147W        W39281  18.464   9.960  14.363 -0.1837  0.0488 -0.3984
23148W        W39282   1.969  12.077  15.222  0.1307  0.1009  0.1381
23149W        W39283   9.096  16.278   2.796 -0.2448 -0.0822  0.0856
23150W        W39284  13.828   4.137   4.138 -0.0001  0.0826  0.1486
23151W        W39285  18.120  14.454  13.861  0.1151  0.0977 -0.2578
23152W        W39286  13.734   9.191  12.431  0.5705  0.0200 -0.1072
23153W        W39287  10.674   9.693  11.667 -0.0102  0.1566  0.2864
23154W        W39288  12.076   2.516  15.382 -0.1448  0.0138  0.3565
23155W        W39289   2.717   1.329  11.168 -0.0923  0.0221  0.0570
23156W        W39290   9.945  14.354   4.822 -0.2946  0.1719 -0.3720
23157W        W39291   9.398  12.049  15.165 -0.1417  0.1594  0.0495
23158W        W39292  16.501   4.236   2.454 -0.0391  0.0608  0.4341
23159W        W39293  17.554  17.883  11.310 -0.0854 -0.1573  0.1873
23160W        W39294  18.253  16.495  13.421  0.4014 -0.0603  0.0182
23161W        W39295  11.150  18.374   3.145  0.1770  0.6673  0.2234
23162W        W39296   5.350   8.280  14.911 -0.2064  0.1439  0.0145
23163W        W39297  15.308  14.851  15.265  0.1563 -0.0770 -0.2216
23164W        W39298   1.553   6.243  16.052  0.1032  0.0872  0.1978
23165W        W39299   9.051  12.985   0.710 -0.0925 -0.1455 -0.0881
23166W        W39300  17.386  14.628  15.514  0.1668 -0.3190 -0.0421
23167W        W39301  16.437   3.467   0.592  0.3074  0.0308 -0.0224
23168W        W39302   6.977   1.572   3.194 -0.1853 -0.0739  0.2780
23169W        W39303  16.813   3.523  13.083 -0.3180 -0.1133 -0.2587
23170W        W39304  17.325   4.930  11.281  0.0025  0.2465 -0.1724
23171W        W39305   3.235   5.017  11.839  0.1184 -0.0178  0.2993
23172W        W39306   5.620   6.959   2.153  0.1275 -0.0671 -0.3616
23173W        W39307   3.797  12.832   3.442 -0.0659 -0.1375 -0.2213
23174W        W39308  15.170  11.066   4.994 -0.0961  0.2103  0.0750
23175W        W39309   0.872   4.720  15.664  0.0312 -0.0655  0.0435
23176W        W39310  14.919   9.629  11.232  0.1430  0.2056 -0.0382
23177W        W39311  10.244  14.142  14.392  0.0757 -0.0829  0.1387
23178W        W39312  18.334  17.800   5.101 -0.1235  0.1448 -0.0430
23179W        W39313   3.755   4.804   1.382 -0.4914  0.1247 -0.0168
23180W        W39314   2.283   6.742   4.794  0.0805  0.3709  0.2321
23181W        W39315   4.431   1.355  14.093 -0.0232  0.0107 -0.1466
23182W        W39316  15.929   7.736  11.664  0.1782 -0.0127 -0.0782
23183W        W39317   9.345  13.350  12.683  0.1640 -0.2481 -0.0124
23184W        W39318   8.224  17.837  15.583 -0.2744 -0.0109 -0.1315
23185W        W39319  17.190  17.661  10.143 -0.1149 -0.1998  0.1784
23186W        W39320  10.974  18.253  15.377 -0.3440 -0.0614  0.2470
23187W        W39321   0.093  13.851   0.004 -0.0893  0.1076  0.0669
23188W        W39322  13.094  14.740   5.054  0.1997 -0.2187 -0.0975
23189W        W39323   7.757  12.926   2.387 -0.0252 -0.0589 -0.0291
23190W        W39324  14.019  11.103   3.646  0.1861  0.0864  0.1733
23191W        W39325   1.074   2.793   0.676  0.1422 -0.0668 -0.1126
23192W        W39326   5.145   1.302  12.306  0.0608  0.1072  0.0873
23193W        W39327   8.870   7.776   4.941 -0.0343 -0.0792  0.1539
23194W        W39328   5.897   2.551  14.968  0.0482  0.1033 -0.0362
23195W        W39329   3.424  11.853  10.764 -0.2375 -0.1038  0.4608
23196W        W39330  16.950   3.205   3.425 -0.2494  0.2508 -0.2460
23197W        W39331  18.182   5.725   4.616 -0.1338 -0.2521  0.0876
23198W        W39332  11.136  16.579   0.183  0.1537 -0.2312 -0.1981
23199W        W39333  11.673  11.495  15.663  0.1484 -0.0319 -0.0569
23200W        W39334  10.027   7.227   5.570  0.5246  0.0206  0.2368
23201W        W39335   1.459   9.824   4.794  0.0930  0.0273  0.3008
23202W        W39336  13.108  16.932  12.931  0.0238 -0.2682  0.0376
23203W        W39337  16.886   9.880   3.286  0.0492  0.0969 -0.0351
23204W        W39338   7.537   9.768   4.994 -0.2941  0.0332  0.2022
23205W        W39339   5.954  11.149  12.096  0.2804 -0.2598 -0.1283
23206W        W39340   1.679  11.472  15.356 -0.4750 -0.1658 -0.0925
23207W        W39341  14.016   0.999   6.022 -0.1769  0.0242 -0.1659
23208W        W39342   6.522   7.367  14.479 -0.0681  0.2917  0.0965
23209W        W39343  17.899  10.450  14.616 -0.0682  0.2378 -0.2073
23210W        W39344   0.923  10.448  11.276 -0.0897 -0.1218 -0.0255
23211W        W39345   7.824   4.583  12.041  0.0847  0.4429 -0.1118
23212W        W39346   1.783   0.076  12.359  0.0589 -0.0391 -0.1678
23213W        W39347   1.053  11.389   9.952 -0.0686  0.0938 -0.1652
23214W        W39348   4.915   4.389  14.944  0.0613 -0.0829 -0.0265
23215W        W39349  18.270  18.096  12.609  0.0024 -0.1323 -0.1357
23216W        W39350  15.128   3.368  12.917 -0.2413  0.0371 -0.0798
23217W        W39351  16.064   8.824   0.870  0.2828  0.1529 -0.2078
23218W        W39352  12.342   9.275   1.972 -0.2033 -0.0617  0.1213
23219W        W39353   8.404  17.206   4.393  0.1381  0.0882 -0.1339
23220W        W39354  12.019   0.206  14.187  0.0200  0.0443  0.0161
23221W        W39355   8.166  17.972   0.847 -0.0957 -0.3833 -0.0194
23222W        W39356  14.156  13.970   2.377  0.0183 -0.0638 -0.0682
23223W        W39357   4.194   9.437  13.361  0.0586  0.0121  0.0424
23224W        W39358  12.528   2.714   6.133 -0.0699 -0.1079  0.2627
23225W        W39359   3.574   2.394   2.637 -0.0747  0.4369  0.0520
23226W        W39360  16.924  18.474  11.844 -0.0128  0.1566 -0.0777
23227W        W39361   0.460   3.934   3.470 -0.0806  0.6368 -0.1292
23228W        W39362   1.080  17.626   1.821  0.3946 -0.0443 -0.2952
23229W        W39363  18.354   0.267  15.090  0.3323 -0.0284  0.0662
23230W        W39364   2.415   8.767   2.224  0.4951  0.1702  0.1454
23231W        W39365  14.325   9.639  12.386  0.0807 -0.0473  0.1641
23232W        W39366  13.573  14.198  11.305 -0.0411  0.1757  0.0672
23233W        W39367   3.855   2.310  13.079  0.0498 -0.0524  0.1318
23234W        W39368   9.952   4.778  14.773  0.6201  0.3156  0.0315
23235W        W39369   9.753  17.662  11.774 -0.1462 -0.1459  0.0045
23236W        W39370   7.109  14.570   1.356 -0.1640 -0.1454  0.2104
23237W        W39371  14.623   4.154  13.510 -0.1012 -0.0928 -0.0313
23238W        W39372  10.474  11.946   1.174 -0.3259  0.0772  0.0160
23239W        W39373   7.021  14.477   5.864  0.2819  0.0767  0.0767
23240W        W39374   1.033  17.226  12.364  0.1635  0.0018  0.0974
23241W        W39375   3.126   1.409  12.994 -0.5285 -0.0088  0.0471
23242W        W39376   6.523  16.790   1.743 -0.1772 -0.1817  0.0324
23243W        W39377   4.248  15.948   4.562  0.0577  0.0689  0.0074
23244W        W39378   6.594   7.214   3.378 -0.1880 -0.0600  0.4093
23245W        W39379   1.759   6.181  14.010  0.0320  0.2802 -0.2178
23246W        W39380  12.637  16.452   0.184 -0.0045 -0.0186  0.2045
23247W        W39381   5.601   4.222   4.172  0.2594 -0.3625 -0.0679
23248W        W39382  17.981  16.049  12.216  0.0172  0.0530  0.3468
23249W        W39383   6.408  18.243  13.106  0.2089  0.2464 -0.0727
23250W        W39384  16.961  17.209   5.021 -0.3006 -0.1099 -0.2234
23251W        W39385  11.777   0.927  11.977  0.2091 -0.1235 -0.1899
23252W        W39386   0.944  14.203   4.163 -0.1065 -0.2568  0.0871
23253W        W39387   1.364   1.562   4.133  0.0059  0.0630  0.0090
23254W        W39388  16.574  11.548  15.590  0.1606 -0.2981  0.0226
23255W        W39389   7.372   4.505   3.907  0.1881  0.3363 -0.1564
23256W        W39390   5.920  16.140   4.989 -0.1092  0.0396  0.2816
23257W        W39391  10.892  10.062  11.390  0.0213  0.0019  0.0677
23258W        W39392   6.115   7.939  13.131  0.0558  0.3134 -0.0563
23259W        W39393   4.611   0.485  13.940 -0.0079  0.1024  0.3248
23260W        W39394  15.021  18.482   4.781  0.1999 -0.0071  0.1625
23261W        W39395   5.945  10.084  13.854 -0.0269 -0.1989  0.1165
23262W        W39396  12.317   7.978  14.300  0.1176  0.3520  0.3169
23263W        W39397  13.342   2.806  13.060  0.0614 -0.1184  0.2181
23264W        W39398   5.549   0.253  13.144 -0.0261  0.1359  0.3661
23265W        W39399  14.529   2.128   5.612  0.1206  0.0949 -0.0275
23266W        W39400   4.125   7.227  14.006  0.0915 -0.1551  0.1124
23267W        W39401   2.637   3.283  11.992  0.1915 -0.0041  0.4447
23268W        W39402  14.348  18.489  15.220  0.0924 -0.2351  0.0554
23269W        W39403  13.243   7.870   1.575 -0.1598  0.1917  0.0658
23270W        W39404  17.155   0.354  11.121  0.0323  0.4279 -0.1832
23271W        W39405   1.541   1.012  14.239 -0.0832  0.0397  0.2047
23272W        W39406  15.215  17.050   1.207  0.0039 -0.0704  0.0743
23273W        W39407   7.794  18.069   4.141 -0.0156 -0.0715  0.2097
23274W        W39408   3.183  15.140  12.231  0.0200 -0.3769  0.0945
23275W        W39409   4.531   2.179   4.121  0.1562 -0.0919 -0.2027
23276W        W39410   5.937   0.385  11.653  0.1105  0.2032 -0.2785
23277W        W39411   5.558  12.661  13.046  0.3703  0.0923  0.1765
23278W        W39412   0.975  12.231   1.165  0.0960 -0.0870  0.0136
23279W        W39413   6.969  14.282  13.199  0.2120  0.0837  0.0391
23280W        W39414   5.198  12.273   0.136  0.0487  0.0154 -0.3139
23281W        W39415   6.592  17.180  15.915  0.0544 -0.0593  0.0333
23282W        W39416   5.355   3.331  15.847  0.2497 -0.0267  0.0135
23283W        W39417   9.129  14.417   3.906 -0.0694 -0.0618 -0.0296
23284W        W39418   5.975  16.820   1.071  0.0373 -0.2826 -0.0811
23285W        W39419  17.583   9.218   1.407  0.1393 -0.0826  0.0298
23286W        W39420   0.233  13.867  14.816  0.0941 -0.1513  0.0501
23287W        W39421   6.670  15.550  15.024 -0.0233  0.0556 -0.0654
23288W        W39422  13.440   6.084  11.758 -0.0053 -0.1351 -0.0128
23289W        W39423  17.064   8.557  15.174 -0.1282 -0.1146 -0.5566
23290W        W39424   7.153  17.017   3.080  0.1442 -0.2486 -0.2414
23291W        W39425  17.286   6.691   0.228  0.0633 -0.1108 -0.0333
23292W        W39426  17.372  12.932   1.339 -0.1798  0.2853 -0.0802
23293W        W39427  10.746  15.881   3.467 -0.0436  0.2011  0.1153
23294W        W39428   8.899  15.231  12.791  0.1033  0.0638 -0.1340
23295W        W39429  14.620   6.892  11.047 -0.2522  0.0497 -0.1557
23296W        W39430  18.050   3.223   2.444  0.0242 -0.0598  0.1321
23297W        W39431  14.978   0.826   1.544 -0.0242  0.0588  0.4670
23298W        W39432  10.905   7.535  15.545 -0.3403 -0.1610  0.0187
23299W        W39433   4.305  15.909   2.090  0.1778 -0.3206 -0.0314
23300W        W39434   6.317  17.572   4.732  0.0798  0.2230 -0.0857
23301W        W39435  12.667   5.936   1.054 -0.0304 -0.3519  0.1154
23302W        W39436   8.431   8.785  14.713 -0.0102 -0.0426 -0.1076
23303W        W39437   7.263   2.101  14.157 -0.1581 -0.1174  0.2196
23304W        W39438  10.362   8.263   2.631 -0.0596  0.0323 -0.1198
23305W        W39439   5.063  16.274   0.288  0.0154 -0.0546  0.1079
23306W        W39440   3.247  14.114   4.650 -0.1201  0.1382  0.0946
23307W        W39441   9.864  13.499   4.530 -0.0940  0.1339 -0.0721
23308W        W39442   4.160  11.805   2.281 -0.2446  0.3476 -0.0315
23309W        W39443  15.113   8.701  11.522 -0.0872  0.0746 -0.0440
23310W        W39444  16.792   6.747  11.869 -0.0789 -0.1516 -0.2236
23311W        W39445   4.340  10.776   3.436 -0.0003  0.4525 -0.0121
23312W        W39446  10.631   6.734  12.375 -0.1574  0.0946  0.1128
23313W        W39447  14.892   5.578   1.741  0.1881  0.2617 -0.3478
23314W        W39448  10.203  14.514  12.326  0.0622 -0.0092  0.1364
23315W        W39449  12.285  11.833  11.480  0.0223  0.0128 -0.1200
23316W        W39450   9.988  11.517   3.538  0.1230 -0.1876  0.0213
23317W        W39451   0.419   9.319   5.424 -0.2093 -0.1398 -0.1675
23318W        W39452  16.932   1.923   2.098 -0.0212 -0.1996  0.3151
23319W        W39453  15.514  15.022   3.068 -0.0391  0.2611  0.0160
23320W        W39454   3.541  13.533  13.501 -0.4917 -0.3920 -0.0685
23321W        W39455   3.649  10.655   5.583 -0.0923 -0.0252 -0.0756
23322W        W39456   1.820   1.377  10.984 -0.0861  0.1480 -0.1026
23323W        W39457   9.415  14.610  15.290 -0.4764 -0.1300  0.0955
23324W        W39458   6.341   2.829   2.048  0.2319 -0.0234 -0.0231
23325W        W39459   5.441  13.219  15.106 -0.0884  0.0952  0.0407
23326W        W39460   1.923   2.363   2.742 -0.1894 -0.1922 -0.3193
23327W        W39461   8.426   2.074  15.687  0.0389 -0.2081  0.0596
23328W        W39462  12.665   1.034   4.308  0.1060  0.0206  0.2985
23329W        W39463  16.370   7.284  15.124  0.0538 -0.3228 -0.2953
23330W        W39464  14.953   2.863  11.259 -0.3176 -0.2503 -0.0103
23331W        W39465  15.232   9.058   1.895  0.1994 -0.0159 -0.0809
23332W        W39466   8.462   7.101   0.963 -0.2233 -0.4676 -0.0646
23333W        W39467   6.448  15.836   0.907  0.3321  0.1035 -0.0204
23334W        W39468  18.132   9.916  15.365  0.0368 -0.1887  0.3043
23335W        W39469  16.406   3.815  13.007  0.0982 -0.2579 -0.0985
23336W        W39470  10.017   7.081  15.473  0.2116 -0.3053 -0.1168
23337W        W39471  11.652   3.154   3.219  0.1225 -0.0025 -0.0419
23338W        W39472  13.930   7.215   0.776  0.2043  0.0302  0.1530
23339W        W39473   0.576  13.107  12.091  0.0790 -0.0391 -0.1192
23340W        W39474  12.088   8.772   5.284  0.2593  0.0419 -0.1187
23341W        W39475  10.005  16.465   4.790  0.1032 -0.0572 -0.1879
23342W        W39476  12.614  16.982  13.106 -0.0178 -0.2636  0.2911
23343W        W39477  11.403   9.527  12.985  0.2415  0.0360 -0.1287
23344W        W39478  10.304   9.773  15.593  0.1201 -0.3299  0.1128
23345W        W39479   3.377  13.135   0.364 -0.0749  0.1509  0.2027
23346W        W39480   8.095  18.358  14.035  0.0661  0.0698  0.0319
23347W        W39481  16.387   4.541   1.532 -0.4325 -0.0749 -0.0667
23348W        W39482   5.827   3.961  15.258 -0.2072 -0.1592 -0.0403
23349W        W39483  13.416   4.511   5.305  0.1772 -0.1778 -0.0588
23350W        W39484   4.027  16.425  14.447  0.0955  0.0069 -0.1368
23351W        W39485   0.697   5.775   0.539  0.4970  0.0447 -0.2391
23352W        W39486   8.248  11.985   1.818 -0.0751 -0.0703  0.2553
23353W        W39487   7.549  10.722   3.972 -0.0479  0.2499  0.2335
23354W        W39488   6.471  15.779  15.921  0.0885 -0.1049 -0.0036
23355W        W39489   8.129  12.554  12.510 -0.0522 -0.2073  0.0246
23356W        W39490   2.180  16.637  11.179 -0.0588 -0.1041  0.0478
23357W        W39491   7.198  15.729  10.503 -0.1850 -0.2767 -0.4469
23358W        W39492   8.096   4.032   4.582  0.5732 -0.0899 -0.0766
23359W        W39493  17.598  18.329   4.982 -0.0259  0.1551 -0.2711
23360W        W39494  13.311  15.029   4.688 -0.0017  0.0003  0.1944
23361W        W39495   4.221  17.064   3.167  0.3336 -0.1499 -0.0674
23362W        W39496  11.843  11.652   3.353 -0.0912 -0.1700  0.0097
23363W        W39497  11.667  15.764  13.540  0.0373  0.0535  0.4871
23364W        W39498   6.361   0.975   3.713  0.1416  0.1034  0.0595
23365W        W39499   8.112   8.583   0.436 -0.2046  0.0798 -0.1462
23366W        W39500   1.485   2.586  11.103 -0.0308 -0.1631  0.1319
23367W        W39501  15.582   1.609  12.444  0.1402  0.0029  0.0947
23368W        W39502  11.982   5.450   3.843 -0.1701 -0.1464  0.0440
23369W        W39503  14.945   0.937   2.798  0.0103  0.1443 -0.1256
23370W        W39504   9.089   5.722   2.455  0.2834  0.0313 -0.0732
23371W        W39505  18.070  17.347  14.088 -0.2955 -0.0578  0.0426
23372W        W39506   4.089   6.902  15.066 -0.1785 -0.0369 -0.1106
23373W        W39507   4.170  16.888   0.808 -0.1042  0.1155 -0.1583
23374W        W39508  16.903  11.741  14.226  0.3562  0.0004  0.1284
23375W        W39509   7.730   5.735  13.223  0.0057  0.0067 -0.1638
23376W        W39510   3.449   7.850  13.335  0.2756  0.0979  0.0003
23377W        W39511   9.697  15.267  13.478  0.0557 -0.1360 -0.2727
23378W        W39512  17.681   5.536  12.418  0.0123 -0.0328  0.3228
23379W        W39513  17.691   0.403   4.299 -0.0237 -0.0598  0.2888
23380W        W39514   4.999   6.979   3.259 -0.3030 -0.1424 -0.1331
23381W        W39515  15.982   9.878   4.410 -0.0006  0.0843 -0.1816
23382W        W39516   3.296  16.001  11.087 -0.1885 -0.0048  0.3262
23383W        W39517   4.518  12.413   0.381 -0.1281  0.0517  0.0665
23384W        W39518  13.128   9.205   3.718 -0.4104 -0.1063  0.2422
23385W        W39519   0.106   7.218   1.432  0.0349  0.2696  0.0556
23386W        W39520   2.841   3.265  11.323 -0.0134  0.1308 -0.2678
23387W        W39521  10.974  15.064   5.297 -0.1329  0.1469  0.0510
23388W        W39522   7.058  15.129   3.914  0.3527 -0.0268  0.2132
23389W        W39523   3.281   4.497   4.297  0.1002  0.0166  0.0046
23390W        W39524   9.629  12.116   1.236 -0.2845 -0.0588  0.1508
23391W        W39525  12.721   3.403  13.726  0.3049 -0.1773  0.0414
23392W        W39526  11.124  13.090   1.843 -0.0550 -0.1127  0.0939
23393W        W39527   7.331   4.267   2.029  0.3749  0.1298 -0.0603
23394W        W39528   5.931  16.614  15.630  0.0637  0.0259 -0.0276
23395W        W39529   6.031  17.971  16.041  0.0221 -0.1188  0.1024
23396W        W39530  17.958  11.240   0.622  0.2314  0.5199  0.1849
23397W        W39531   5.614   0.320  14.398  0.3646  0.0689  0.1193
23398W        W39532   9.595  11.410   2.566 -0.3414 -0.0796 -0.2973
23399W        W39533   1.725  11.295   2.134 -0.1912 -0.1205 -0.4539
23400W        W39534   7.596  11.553   4.387  0.4682 -0.3283 -0.0961
23401W        W39535  16.837   1.187   2.640  0.1188 -0.0053 -0.1537
23402W        W39536   5.454  13.481  12.258 -0.2139 -0.2047  0.2398
23403W        W39537   7.399   4.479  12.906  0.2570  0.0191  0.0703
23404W        W39538   2.241   2.990   4.388  0.1346  0.0005 -0.0514
23405W        W39539  13.521  15.791  12.099  0.2583 -0.2882 -0.1447
23406W        W39540   8.899   7.774   4.082  0.1283  0.0608 -0.2723
23407W        W39541  16.349  15.028  15.638  0.0379 -0.2130 -0.1512
23408W        W39542  15.723   1.060  15.853 -0.2112 -0.2046  0.0918
23409W        W39543   8.173   0.888  14.519  0.0559 -0.0251 -0.1447
23410W        W39544   2.567   7.677  11.017 -0.0022  0.1394 -0.0671
23411W        W39545   3.252  15.564  13.844  0.0695 -0.0689 -0.1955
23412W        W39546  10.357   3.168  12.246 -0.2192 -0.1932  0.1790
23413W        W39547   5.629   9.624  15.719  0.1070 -0.2385  0.0425
23414W        W39548   2.456   8.197   3.917 -0.0459 -0.0827  0.1551
23415W        W39549   1.506  14.203  15.524 -0.2270 -0.0751  0.1297
23416W        W39550   5.243   7.519   0.684  0.1389 -0.2397  0.3592
23417W        W39551   0.756   7.108  14.636 -0.2865 -0.0340 -0.1344
23418W        W39552   2.857  17.880  10.450 -0.2157  0.0621 -0.1095
23419W        W39553   4.273   1.875   3.845 -0.1156 -0.1399 -0.2930
23420W        W39554   5.040  17.791   1.867  0.0468  0.1691 -0.0764
23421W        W39555   6.881  13.666  14.741  0.0199  0.1121 -0.0430
23422W        W39556  11.499  15.984  14.694 -0.4963  0.1620 -0.1347
23423W        W39557  12.482   2.739   1.585 -0.0203  0.0621 -0.0095
23424W        W39558   9.447  15.309   2.567  0.0656 -0.1468  0.1300
23425W        W39559   4.454  12.093   3.368 -0.0602  0.0667  0.1179
23426W        W39560  12.458  11.348   0.559 -0.2806 -0.0280  0.2034
23427W        W39561  12.151   5.850  12.578 -0.1955 -0.1220 -0.0437
23428W        W39562  16.234  10.956  14.353 -0.0112  0.0736 -0.0122
23429W        W39563   5.043   7.676  11.887  0.3848 -0.1813  0.0947
23430W        W39564   3.130   1.616   1.934 -0.1420 -0.4303  0.3187
23431W        W39565   4.219   0.536   4.107 -0.0338  0.1573 -0.0107
23432W        W39566   0.683   5.664   1.412 -0.0126  0.0216 -0.3066
23433W        W39567  17.919  14.950   1.530 -0.2970  0.1888  0.1799
23434W        W39568   0.430   8.567   1.284  0.2370  0.0770 -0.1632
23435W        W39569  10.322   3.923   1.202  0.1110  0.1469  0.1249
23436W        W39570  13.683  16.241   4.115  0.0971 -0.0404  0.1630
23437W        W39571   7.668  11.692   0.231 -0.1645  0.0943 -0.0975
23438W        W39572   3.366  16.835   0.276 -0.0166  0.2242 -0.1691
23439W        W39573  18.047  11.656  14.553 -0.1313 -0.1768  0.2931
23440W        W39574  14.746   9.455  12.793 -0.2236 -0.1761 -0.1942
23441W        W39575   5.687   9.092   4.545 -0.1952  0.1866  0.2692
23442W        W39576   8.899   4.535  15.323 -0.3980 -0.1408  0.1071
23443W        W39577   9.521  17.249  13.364 -0.0693  0.1948 -0.1130
23444W        W39578  16.251   4.900  10.973  0.1097  0.0394 -0.3885
23445W        W39579  14.322   2.930  15.889  0.1445  0.3051  0.0061
23446W        W39580  12.766   0.513  12.770  0.3364 -0.3070  0.0150
23447W        W39581   0.901   6.356   3.638  0.1126  0.1824  0.2409
23448W        W39582  16.257   7.230  15.700 -0.0172  0.0489 -0.2428
23449W        W39583  16.701  16.558  14.363 -0.1435 -0.0551 -0.1023
23450W        W39584  17.045  14.968  12.040 -0.1019 -0.1398  0.1363
23451W        W39585   6.146   2.933   0.403 -0.1369  0.0003 -0.1424
23452W        W39586   9.969  11.382   1.633  0.2910 -0.3536 -0.1787
23453W        W39587  16.491  11.904   1.921 -0.1296 -0.2725 -0.1949
23454W        W39588  15.972   2.004  14.308 -0.2008  0.1013  0.0072
23455W        W39589  16.888  11.167  13.137 -0.1522  0.1750  0.1281
23456W        W39590  10.420  17.110   4.184  0.2734 -0.2184  0.1515
23457W        W39591   3.461  17.998   1.317 -0.2664  0.1427 -0.1193
23458W        W39592   9.197   6.993   5.542  0.0588 -0.0121 -0.2168
23459W        W39593   0.086  14.718   2.476 -0.0152  0.0346  0.3673
23460W        W39594   4.294   8.812  11.855 -0.0106 -0.1075 -0.1214
23461W        W39595  11.624   5.779   5.780 -0.0342  0.0872  0.0290
23462W        W39596   8.533  17.673  12.382  0.0719 -0.1707 -0.2647
23463W        W39597   2.855   3.911   1.118 -0.0678  0.0826 -0.0059
23464W        W39598   2.406   5.468   5.423  0.1064 -0.3425 -0.0631
23465W        W39599  14.862   7.697   4.313  0.1524 -0.3055  0.1651
23466W        W39600   0.200  13.220   1.937  0.1001 -0.0310  0.1220
23467W        W39601   4.241   0.208  14.214 -0.0125 -0.1275 -0.0321
23468W        W39602  11.263  15.099  15.400 -0.3784  0.1141  0.0742
23469W        W39603   5.819  10.709   0.881 -0.1444 -0.0801  0.0175
23470W        W39604   0.641   1.551  15.690 -0.0795  0.0725 -0.0737
23471W        W39605   9.658  13.597   0.101  0.2574  0.0102 -0.2213
23472W        W39606  12.939   7.541  12.184  0.0932  0.0376  0.1432
23473W        W39607   9.044   7.970   1.016 -0.1289 -0.1396  0.1302
23474W        W39608   2.205   1.535  13.230  0.0999 -0.1626 -0.2652
23475W        W39609   9.283  12.505   4.761  0.0567 -0.2886  0.3334
23476W        W39610  12.840   1.243  14.000 -0.0210 -0.3275  0.0253
23477W        W39611  15.894   8.794   5.011  0.3463  0.0063 -0.1734
23478W        W39612   2.268   2.603  11.459  0.0335  0.0040  0.0090
23479W        W39613   5.205   7.601  12.913 -0.1533 -0.2845 -0.1542
23480W        W39614  12.304   7.539   2.982 -0.0605 -0.0466 -0.1122
23481W        W39615  11.091  12.195   0.038 -0.1076  0.3050  0.2438
23482W        W39616   6.299  12.887  11.648 -0.2058 -0.0814 -0.0112
23483W        W39617  11.497   8.469  12.262 -0.0206  0.2749  0.3836
23484W        W39618   3.980   6.750  13.858  0.1614  0.3460  0.2442
23485W        W39619  13.097   0.236   2.824  0.1836 -0.1338  0.2822
23486W        W39620   4.292  15.142   3.157 -0.0176 -0.0381  0.2204
23487W        W39621  18.006   7.815  14.082 -0.2374 -0.0228  0.0499
23488W        W39622  15.825   7.776   1.489 -0.3311  0.2325 -0.3565
23489W        W39623  10.872   7.583   2.088  0.1979 -0.2469  0.1271
23490W        W39624   6.064   7.587   0.813 -0.1170  0.0562 -0.2579
23491W        W39625  11.053   7.211   1.501 -0.2231  0.0221 -0.2344
23492W        W39626  10.117  17.931   5.204 -0.2073 -0.0030  0.1207
23493W        W39627  11.665   6.745   1.292  0.0431 -0.0717 -0.0769
23494W        W39628   4.971   3.360   3.500 -0.1180  0.1268  0.1682
23495W        W39629   9.383   0.950  15.249  0.0556 -0.0802 -0.1682
23496W        W39630  16.974  11.752   0.642  0.0748  0.1603  0.1858
23497W        W39631  17.114  13.612   3.905  0.1121 -0.1288  0.1229
23498W        W39632   5.024   1.464  13.008 -0.2412 -0.1099  0.0680
23499W        W39633   6.750  12.778  11.915 -0.0334  0.3978  0.1569
23500W        W39634   9.711  17.418  14.085  0.0013 -0.1238  0.1174
23501W        W39635  16.452   1.896  14.277 -0.2765 -0.1278 -0.2647
23502W        W39636  11.306  16.360   4.496  0.3329  0.1488 -0.1953
23503W        W39637  11.472  10.057  16.009 -0.1878 -0.0183 -0.2901
23504W        W39638   4.418   4.299   1.109  0.3102 -0.2127 -0.1241
23505W        W39639   0.798   5.921  12.192 -0.0091 -0.0677 -0.5465
23506W        W39640   3.209  13.634   2.570 -0.0370 -0.0907  0.0668
23507W        W39641   5.576  10.704   4.855  0.0645 -0.0987  0.2234
23508W        W39642   7.885  13.358   1.509 -0.0306 -0.2124  0.2062
23509W        W39643  18.068  18.088  13.066  0.0515 -0.0012 -0.1065
23510W        W39644   4.814  14.938   5.072  0.0488  0.1200  0.1642
23511W        W39645   5.522  14.447  12.029 -0.0527  0.1034 -0.1099
23512W        W39646  13.274   1.612  11.324 -0.1326 -0.1531 -0.0901
23513W        W39647  11.342  10.414   3.303 -0.2612 -0.0085  0.6095
23514W        W39648   3.821   1.617   0.068 -0.2424  0.0299 -0.0251
23515W        W39649  15.374   0.526  15.435 -0.0369 -0.0409 -0.0504
23516W        W39650   7.778  11.298  14.241 -0.1393  0.2464 -0.0835
23517W        W39651  11.546  10.192  15.445 -0.1645 -0.1213 -0.1985
23518W        W39652   2.085  14.159  13.770  0.0079  0.1623  0.2800
23519W        W39653   2.556  10.302  14.278 -0.3588  0.0459  0.2342
23520W        W39654  18.396  12.641   4.812  0.0975 -0.0612 -0.3318
23521W        W39655   7.300   5.537  15.351 -0.0295 -0.0492  0.0116
23522W        W39656  18.404   4.144  15.278  0.1984 -0.2166 -0.3002
23523W        W39657   9.554   9.758   5.190  0.0422  0.1445 -0.0206
23524W        W39658   6.780  12.531   3.393  0.2415  0.2629 -0.0318
23525W        W39659  10.622  11.245   6.213  0.0880  0.0390  0.0359
23526W        W39660   3.581   8.519   1.396  0.0679  0.2040  0.2669
23527W        W39661  15.568   4.588   0.448 -0.0055 -0.0354 -0.0842
23528W        W39662   8.057  14.317   0.442 -0.0569 -0.2311  0.0607
23529W        W39663   5.201  15.629  11.212 -0.0267 -0.1047  0.2239
23530W        W39664  14.070   0.953   0.506 -0.1143  0.0641  0.1436
23531W        W39665  16.314   1.818  15.660 -0.0993  0.2258  0.2300
23532W        W39666   1.427   1.874   1.419  0.0004 -0.0959 -0.4214
23533W        W39667  18.484  15.562   0.010 -0.3436  0.2106  0.1844
23534W        W39668   2.830   9.714   3.641 -0.1670 -0.2985  0.0958
23535W        W39669   5.943   1.455   0.620 -0.1741  0.1397  0.1765
23536W        W39670   3.840  17.568  13.764 -0.1325  0.2125  0.0655
23537W        W39671   7.044   0.271   5.033  0.1582  0.1763 -0.2930
23538W        W39672  13.207  12.739   5.099  0.0212  0.2435  0.1350
23539W        W39673  14.561  16.064   5.304  0.1888 -0.1681 -0.1814
23540W        W39674   6.769  12.114  13.959  0.2080 -0.0322 -0.3437
23541W        W39675   1.520  13.590   2.409  0.2067 -0.3421  0.3825
23542W        W39676   2.524  14.489   2.720 -0.1767  0.0743  0.2874
23543W        W39677   2.559  13.938  14.473 -0.0173  0.0306 -0.1131
23544W        W39678  15.592  10.204  14.991  0.1935 -0.3105  0.1774
23545W        W39679   3.446   7.918   3.649 -0.0675  0.3189  0.0103
23546W        W39680   0.783   8.863   0.201 -0.2167 -0.1610 -0.4335
23547W        W39681  17.901   3.718  10.104  0.0165  0.4375  0.1862
23548W        W39682  11.155  13.357   5.626 -0.1468 -0.3462 -0.0392
23549W        W39683  15.023   3.509  14.738 -0.1169 -0.2651  0.0801
23550W        W39684   6.491   6.999   0.102  0.1951 -0.0734 -0.1109
23551W        W39685   0.960   7.134  13.862 -0.0306  0.0879  0.1000
23552W        W39686  13.767   9.206   1.781  0.0530  0.1857  0.1215
23553W        W39687   0.841   2.595  10.763 -0.0210 -0.1196 -0.3251
23554W        W39688   0.299  17.586  11.817 -0.2120 -0.0657  0.2170
23555W        W39689  14.597   7.740  13.090 -0.2136 -0.1633  0.0595
23556W        W39690   5.927   7.989  12.244 -0.2129 -0.4786  0.1147
23557W        W39691  15.570   8.154  12.332  0.1769  0.3250  0.1973
23558W        W39692  14.162   9.477  15.632  0.0510 -0.1303  0.3180
23559W        W39693   5.312   4.387  13.744  0.0765  0.0593 -0.0674
23560W        W39694  17.566   2.919  15.306  0.1466 -0.0806 -0.0619
23561W        W39695  14.651   4.724   0.302  0.1923  0.0350 -0.1455
23562W        W39696   3.419   1.421  14.818 -0.0775 -0.1433 -0.1564
23563W        W39697  18.451   5.674  11.062  0.0570 -0.0772 -0.1587
23564W        W39698  11.860   5.593   0.119 -0.1175 -0.1869 -0.2511
23565W        W39699   9.152  15.782  11.829 -0.1365  0.1269 -0.0914
23566W        W39700   6.420  13.534  14.522  0.1539  0.0571 -0.2844
23567W        W39701   5.152   0.013   0.802  0.1257 -0.0050  0.1389
23568W        W39702   1.978   2.691  15.747 -0.1990 -0.1145 -0.3811
23569W        W39703  11.429  15.565  12.081  0.0142 -0.0404  0.1450
23570W        W39704   8.828  18.140  14.764 -0.0028 -0.0305 -0.0765
23571W        W39705   2.611  12.446  10.325 -0.0248 -0.1309  0.0753
23572W        W39706   2.589  12.958  14.297  0.1214 -0.1254  0.0047
23573W        W39707  12.451  13.336   3.630  0.1279 -0.3239  0.3258
23574W        W39708  10.359  17.000   3.673 -0.0269 -0.0238 -0.1148
23575W        W39709  10.799   0.128   4.383 -0.0346 -0.1187 -0.1263
23576W        W39710   9.563   7.427  13.520  0.0760 -0.2853  0.1046
23577W        W39711  14.587  11.459  13.884 -0.4106  0.3064  0.1026
23578W        W39712   9.181   0.160   4.565  0.0152 -0.2014 -0.1171
23579W        W39713  13.532   3.449  13.025  0.3530  0.1051 -0.1019
23580W        W39714   5.854   0.357  16.086 -0.0273 -0.4082  0.0662
23581W        W39715   3.042   4.749  11.404 -0.1363 -0.0587  0.1311
23582W        W39716   9.381   4.692   5.202  0.2579 -0.0078 -0.0041
23583W        W39717   8.453   4.195   1.234  0.0611  0.1795  0.2731
23584W        W39718  13.772   9.802   1.081  0.0152  0.2736 -0.0444
23585W        W39719   2.152   2.447   3.330  0.1854 -0.3004 -0.1826
23586W        W39720  10.991   8.490   1.749 -0.1675  0.0624 -0.0041
23587W        W39721  16.880   5.615  11.012 -0.3001  0.1980 -0.1212
23588W        W39722  15.916  12.581   1.862 -0.0922  0.2390  0.2071
23589W        W39723  11.589  16.062  13.158 -0.2938  0.0302  0.3051
23590W        W39724   2.808  18.408   4.138  0.5383  0.2265 -0.0330
23591W        W39725  13.875   7.490   2.324  0.0550 -0.0291  0.3224
23592W        W39726  15.808  13.737   4.396 -0.0539  0.1267  0.2259
23593W        W39727   1.163   3.241   3.900  0.3426  0.1119  0.0680
23594W        W39728   0.633  10.347   0.480  0.0564 -0.0498  0.1381
23595W        W39729   6.284   1.207   1.717  0.1741 -0.0504 -0.1691
23596W        W39730   5.034  10.891  15.496 -0.1135  0.1343 -0.1840
23597W        W39731  16.854  18.455   0.640  0.0207  0.2254  0.1168
23598W        W39732   8.490  13.756  14.071 -0.2372  0.0395  0.0850
23599W        W39733  14.635   2.058  15.442  0.2600  0.3493  0.1488
23600W        W39734  13.676  12.578  12.021 -0.0837  0.0874 -0.0239
23601W        W39735   3.563   7.387   0.666  0.2091  0.1090 -0.2045
23602W        W39736  10.180  18.286  13.025 -0.1121 -0.3035  0.1476
23603W        W39737   3.406  15.669  12.088 -0.1234 -0.2928 -0.0180
23604W        W39738   7.568   3.921   1.581  0.1254 -0.1060  0.0500
23605W        W39739   5.119  18.126  14.643  0.0223  0.1466  0.1483
23606W        W39740  16.679   5.550  15.758 -0.2011  0.0478  0.0172
23607W        W39741  12.635   2.731  10.816  0.2775 -0.2732  0.1182
23608W        W39742   4.516  12.024   4.679 -0.0965  0.2568  0.0593
23609W        W39743  14.950   1.270  13.380  0.0729  0.0437 -0.0046
23610W        W39744   3.241  14.670  15.398  0.3062  0.0883  0.2559
23611W        W39745  18.492   1.514   5.611  0.1036  0.0677  0.1900
23612W        W39746  12.306   7.933  13.799 -0.1064 -0.0237 -0.1103
23613W        W39747  17.922  10.555   3.397 -0.2198 -0.2653 -0.0113
23614W        W39748  10.638   5.844   5.013  0.0217  0.0307  0.2779
23615W        W39749  10.596   2.571   3.656 -0.0757  0.0475  0.4436
23616W        W39750   6.253   0.619  12.874  0.3029 -0.2712  0.0536
23617W        W39751   7.117   9.951  13.823  0.1310 -0.1143  0.2953
23618W        W39752  15.992  16.383  10.808 -0.4030 -0.0345  0.0741
23619W        W39753  13.307   8.588  15.073 -0.1329  0.2956 -0.1382
23620W        W39754   2.460  11.038  11.494  0.1799  0.0848 -0.1179
23621W        W39755  14.333   9.085  15.973 -0.0278  0.0743 -0.1219
23622W        W39756   3.972   6.948   5.356  0.1586  0.1743 -0.2943
23623W        W39757   8.749   4.876   0.671  0.1168 -0.1384  0.2203
23624W        W39758  12.322   0.740   5.332  0.4461 -0.0903  0.0022
23625W        W39759   0.750  14.471  13.537  0.1041 -0.0125  0.2805
23626W        W39760   9.661   5.082   3.476  0.1392  0.2210  0.2691
23627W        W39761   0.464   3.078  11.064  0.0024  0.2025  0.2044
23628W        W39762  14.322  12.412   4.279 -0.1543 -0.0577  0.1125
23629W        W39763   5.352  15.973  15.632 -0.0542  0.0584  0.0869
23630W        W39764   1.184  16.833  12.140 -0.1508 -0.1735  0.0405
23631W        W39765  15.007   2.439  13.991 -0.2520 -0.3691  0.0968
23632W        W39766   8.789   9.430  12.305 -0.0157 -0.1334  0.0101
23633W        W39767   2.426   6.074  15.842  0.1537  0.3199  0.2103
23634W        W39768   7.416  13.727   3.549  0.0282  0.2142 -0.1295
23635W        W39769   1.089  18.118   5.286  0.3329  0.1313  0.1809
23636W        W39770  17.928  15.153   0.097  0.1538 -0.1546  0.0320
23637W        W39771  16.306  17.106   5.304  0.2108  0.4300 -0.3342
23638W        W39772   4.706  17.976  12.265  0.2929 -0.1406 -0.3287
23639W        W39773  14.660  13.106  11.283 -0.0819  0.2865  0.0529
23640W        W39774   8.554   6.909   3.383  0.1877  0.1181 -0.4006
23641W        W39775  17.733  14.547  12.533  0.2511 -0.3039  0.1744
23642W        W39776   1.664  13.843  11.763 -0.2682  0.2460  0.0262
23643W        W39777  17.577   2.203  12.007  0.1271 -0.2430  0.2494
23644W        W39778   0.085  14.160  12.097  0.1591 -0.0449 -0.0414
23645W        W39779   1.879  10.618   4.068 -0.1522 -0.3072 -0.1708
23646W        W39780  15.312  15.714   4.987 -0.1994 -0.0335 -0.0103
23647W        W39781   0.940   7.049   5.323  0.1046  0.1256  0.0214
23648W        W39782   6.620  14.982  14.817  0.0307  0.2039  0.0120
23649W        W39783   9.177   4.548   2.867 -0.0397  0.0133 -0.1458
23650W        W39784   6.558  15.497   1.370  0.1560 -0.0248 -0.3093
23651W        W39785  13.487  10.105   0.758 -0.0771 -0.0287 -0.3143
23652W        W39786  12.382  13.547  12.983 -0.0276 -0.1173  0.0405
23653W        W39787  10.257  12.800  15.073  0.1649 -0.1593  0.2344
23654W        W39788  10.193  13.992   4.509  0.4639  0.4048  0.1311
23655W        W39789  18.023   4.725   0.503 -0.2292  0.2530  0.0262
23656W        W39790  12.492  18.178   5.481 -0.0865  0.4013  0.0095
23657W        W39791   7.743   5.847   3.384 -0.4292  0.0290  0.1112
23658W        W39792   9.503   2.562  14.604  0.0353 -0.1843 -0.3330
23659W        W39793   5.159   8.102  10.663 -0.2465 -0.0315 -0.0840
23660W        W39794   8.751   7.163   1.828  0.0873 -0.1058  0.2136
23661W        W39795   3.664  11.933  14.659  0.1139 -0.0042  0.0593
23662W        W39796  12.772  13.531   4.763 -0.0290 -0.2607 -0.2462
23663W        W39797  11.108  15.974  14.987  0.0062  0.0204 -0.1011
23664W        W39798   4.186  17.261   2.426 -0.0466 -0.0799 -0.3417
23665W        W39799   4.273  17.767   2.338  0.1125 -0.0670 -0.1826
23666W        W39800  14.754  10.448  13.508 -0.0180  0.1493 -0.2412
23667W        W39801  14.699   9.950  11.568 -0.1944 -0.4140  0.1830
23668W        W39802   9.520   8.381  13.399 -0.0268 -0.0321  0.1114
23669W        W39803  16.688   4.584  14.638 -0.0252 -0.0580 -0.1265
23670W        W39804   7.522   9.337  11.358  0.1888 -0.0423 -0.1463
23671W        W39805   0.680   1.911  14.953 -0.1600 -0.0562 -0.3601
23672W        W39806   9.781   3.818  13.843  0.2564 -0.2821  0.1918
23673W        W39807   0.050  10.189   1.448 -0.6246  0.3773 -0.2291
23674W        W39808   7.756   7.314  11.589 -0.0518 -0.0496  0.2814
23675W        W39809   5.508  12.847  10.932  0.4348 -0.2615  0.2693
23676W        W39810  17.340   8.071   1.000  0.2854 -0.0521  0.0161
23677W        W39811  15.330   2.036   0.526  0.5700 -0.3640 -0.1815
23678W        W39812   0.895  16.055  11.731 -0.2537  0.2576 -0.0696
23679W        W39813   9.956   1.241  13.112 -0.1550  0.2953 -0.0987
23680W        W39814   3.244  14.072  12.663  0.0948  0.2412  0.0720
23681W        W39815  14.368   7.064   4.756  0.0316 -0.0032 -0.0006
23682W        W39816  12.185   7.521  16.042  0.0542 -0.1437  0.2632
23683W        W39817   8.484  11.448  12.061  0.2127  0.1573 -0.0403
23684W        W39818  17.688  16.057  15.690  0.1352 -0.1021 -0.2489
23685W        W39819   0.399  11.127  14.067 -0.2242  0.0463 -0.1040
23686W        W39820   6.823   2.656   1.167  0.1023 -0.3387 -0.0104
23687W        W39821  11.437   0.560  15.388  0.4278  0.0271  0.0675
23688W        W39822  12.157  16.885   1.149 -0.1272  0.1294  0.1139
23689W        W39823   7.586  11.486  11.907  0.2238  0.1893  0.0339
23690W        W39824   3.010   7.139  11.946  0.0274 -0.0236 -0.0678
23691W        W39825  14.719  16.079  11.265 -0.4397 -0.2676  0.0903
23692W        W39826   5.563  18.290  14.704 -0.3391  0.0288 -0.1557
23693W        W39827  13.241   6.000  13.718  0.0126  0.1155  0.0955
23694W        W39828   3.235  16.146  14.537  0.0498 -0.2937 -0.0164
23695W        W39829   5.792   4.719  15.919 -0.1306 -0.0318  0.1280
23696W        W39830  18.202   1.542  10.893  0.1396  0.2653 -0.1553
23697W        W39831   0.330   3.490   3.652 -0.0770  0.1952  0.1922
23698W        W39832   0.679  13.639  11.057 -0.5850 -0.2894  0.0755
23699W        W39833  15.551   2.240   2.102  0.1299 -0.0977 -0.0612
23700W        W39834   1.519  12.419   4.240 -0.2510  0.1647  0.0568
23701W        W39835   7.097  14.031   3.301  0.3633 -0.0453  0.1385
23702W        W39836   5.420  17.479   2.480  0.0878 -0.2783 -0.1584
23703W        W39837   2.285   5.110  16.037 -0.0252  0.0805  0.1673
23704W        W39838  15.123  14.534   5.353 -0.1150  0.6148  0.3451
23705W        W39839   5.814  10.142   3.059 -0.0764  0.0637 -0.2805
23706W        W39840  11.106  11.354  15.576 -0.0937  0.0489  0.1401
23707W        W39841  12.223   7.040  13.293  0.3081 -0.0169 -0.1474
23708W        W39842   9.156  15.643   0.482  0.0279  0.2871  0.1331
23709W        W39843  13.953  11.084  14.041  0.0937  0.1123 -0.2023
23710W        W39844   3.631  13.826  10.558  0.0561 -0.1718  0.0095
23711W        W39845  11.742   4.596   3.702 -0.2261 -0.0167 -0.0143
23712W        W39846   1.036   8.219   1.456  0.0067  0.2079 -0.2366
23713W        W39847  13.466   9.532  15.136 -0.0764 -0.2803 -0.0684
23714W        W39848   6.358   6.935  14.624 -0.1339 -0.2757 -0.0513
23715W        W39849  17.100   2.805   4.978 -0.0468 -0.2735 -0.3792
23716W        W39850   7.197  13.388  11.706 -0.0325 -0.0948 -0.1788
23717W        W39851  18.198   4.158   2.667  0.0855 -0.3354 -0.1214
23718W        W39852   1.166  17.582   2.428 -0.0785  0.1161  0.4947
23719W        W39853   1.559  17.411   1.784  0.0351 -0.0129 -0.2040
23720W        W39854  11.353   1.005  12.857  0.1442 -0.2658  0.0248
23721W        W39855   5.871   0.987   1.561 -0.0232 -0.0198  0.1145
23722W        W39856  14.429   3.558   5.619 -0.2255 -0.1993 -0.0628
23723W        W39857   5.656   7.088   2.708 -0.1396  0.2260 -0.0504
23724W        W39858   1.422  17.016   4.089  0.0707 -0.0953  0.0584
23725W        W39859  11.736   4.656  13.080  0.3375 -0.0136 -0.2629
23726W        W39860  17.843   0.039   0.455  0.0147 -0.0885  0.0674
23727W        W39861  14.808   9.160   4.783 -0.0062 -0.3210  0.0455
23728W        W39862   0.236   2.869  12.475  0.0961  0.0152 -0.1220
23729W        W39863   5.240  16.521   2.169  0.0365 -0.0569 -0.2377
23730W        W39864   5.141  11.104  13.359 -0.3189  0.0463  0.0199
23731W        W39865   5.323   1.104   0.023  0.1640 -0.0767  0.2084
23732W        W39866  11.564   7.542  12.486 -0.1641 -0.0228 -0.1382
23733W        W39867   3.570  11.880   3.960  0.0072 -0.0549 -0.2575
23734W        W39868   9.578   4.933   1.492 -0.0566 -0.0210 -0.0381
23735W        W39869   8.193  14.468   3.930 -0.1980 -0.0072  0.3588
23736W        W39870  16.679   3.543  12.616 -0.0682  0.0129  0.0382
23737W        W39871  17.973  10.826  14.265  0.2258  0.1019  0.2457
23738W        W39872  18.342   9.221  12.498 -0.0728  0.0200 -0.2257
23739W        W39873   4.866  16.906  14.140 -0.1124  0.3945  0.1780
23740W        W39874  14.048   4.828  14.011 -0.2381 -0.0025 -0.0649
23741W        W39875  12.026  17.697  12.189 -0.2893 -0.0540 -0.0374
23742W        W39876  12.348   7.143   4.374 -0.0224 -0.3163  0.2125
23743W        W39877  12.828   6.858   0.322  0.3799 -0.0539  0.0908
23744W        W39878   7.053   1.770  11.352 -0.2408 -0.0589  0.2335
23745W        W39879  12.472   7.605   2.505  0.2158  0.0067  0.0735
23746W        W39880  15.147   0.327   2.760  0.0448  0.1323  0.2340
23747W        W39881  15.584  18.371   0.881 -0.0207 -0.1555 -0.3246
23748W        W39882   7.212  12.269  13.523  0.0487 -0.0500 -0.1078
23749W        W39883  15.047  11.349   0.865 -0.1290 -0.1246 -0.0295
23750W        W39884  10.530   1.639   2.013 -0.2099 -0.0605 -0.0926
23751W        W39885   6.175   6.405  14.599  0.0029  0.3970 -0.3772
23752W        W39886   0.443  13.771  11.935 -0.0238 -0.4239 -0.2187
23753W        W39887  15.929   6.748  12.252  0.0335 -0.1538 -0.0932
23754W        W39888  17.652   5.592  15.487 -0.2089  0.0420  0.3691
23755W        W39889  10.454  18.386  13.873 -0.2377 -0.1374  0.1483
23756W        W39890  13.065   8.341   1.226 -0.1101 -0.2668 -0.0413
23757W        W39891  15.561  12.117  12.985 -0.1134 -0.2714  0.0952
23758W        W39892  16.802  13.582   0.872  0.4137  0.1234  0.3719
23759W        W39893   5.651   8.631   3.964 -0.0629 -0.0586  0.2556
23760W        W39894   6.618   2.841  11.175  0.1768 -0.2543 -0.1092
23761W        W39895   9.723  10.892   0.645 -0.0073 -0.2264  0.3096
23762W        W39896   3.346  11.396   3.984  0.2849 -0.1559 -0.0229
23763W        W39897   8.659   7.134  15.574  0.0819 -0.0474 -0.1651
23764W        W39898   7.093  14.686  11.642 -0.0966  0.1899  0.1054
23765W        W39899   3.489   0.940  12.042  0.2734  0.2725 -0.0377
23766W        W39900   0.361   5.980   1.740 -0.1416 -0.0042  0.3747
23767W        W39901   8.205  16.511   2.693  0.0117  0.0245 -0.2171
23768W        W39902  15.220  16.557   5.858 -0.0651  0.0698  0.0434
23769W        W39903  10.954  14.021  13.086  0.0528  0.3720  0.2364
23770W        W39904   1.871  12.358   2.991  0.1565 -0.1660  0.0471
23771W        W39905   2.897  16.515  14.663  0.1207  0.1894  0.0243
23772W        W39906   7.995  16.795   4.927  0.1035 -0.0520 -0.2252
23773W        W39907  14.338   5.619  15.074  0.1103  0.1498  0.0650
23774W        W39908   0.520  17.021   3.265  0.5074  0.0078 -0.1816
23775W        W39909   7.329   3.481  11.394 -0.2680 -0.1006  0.0584
23776W        W39910   1.631   3.274   9.974 -0.4696 -0.2078  0.3421
23777W        W39911   0.786   0.012   2.122 -0.2047 -0.0852 -0.3485
23778W        W39912   1.611   1.289  14.665  0.1025  0.1045  0.2575
23779W        W39913  15.760   8.930   3.870 -0.0512 -0.2095  0.1676
23780W        W39914  13.468   5.281  15.526 -0.0707 -0.0905 -0.0034
23781W        W39915   5.519   2.840  15.896  0.1577  0.2458  0.1556
23782W        W39916  14.723  15.848  15.831  0.0416 -0.3169  0.2444
23783W        W39917   1.713   1.885  12.614  0.0576 -0.0838  0.3678
23784W        W39918  14.437  13.006  15.049  0.1268 -0.0976 -0.1270
23785W        W39919   8.002  17.236  12.289 -0.1295  0.2123  0.1615
23786W        W39920   4.443   2.346   1.485 -0.0086  0.3634 -0.2019
23787W        W39921   3.816  14.937  14.414  0.1270 -0.0236  0.1334
23788W        W39922   5.379  17.496   1.015  0.0908 -0.2194  0.0186
23789W        W39923  12.931   4.283   0.497 -0.1854 -0.4393 -0.3965
23790W        W39924   5.378   3.533  12.412 -0.0609 -0.1649  0.0818
23791W        W39925  10.350   6.446  14.909  0.1003  0.1701  0.0848
23792W        W39926  10.768  16.010  12.509  0.0679  0.1647 -0.1676
23793W        W39927   2.375   2.913  14.523  0.0297  0.1419  0.2258
23794W        W39928  17.786  14.252  11.669  0.1212 -0.1802 -0.0156
23795W        W39929   9.882   5.203  14.843  0.0589  0.0887  0.0076
23796W        W39930   7.069  17.038  12.251  0.1195 -0.2049 -0.2159
23797W        W39931  10.549  17.867   1.081  0.0413  0.0117  0.1981
23798W        W39932  15.010   2.120  14.507 -0.5199 -0.1206 -0.1053
23799W        W39933   3.788   0.399   0.983  0.2728  0.3477  0.2715
23800W        W39934  13.415  12.621  12.542  0.0826  0.0292 -0.4721
23801W        W39935  10.288  16.725   5.432  0.1808 -0.1056  0.4364
23802W        W39936  18.382   1.448  13.705 -0.1900 -0.1213 -0.1715
23803W        W39937   0.291  18.021  11.438 -0.0765 -0.0591  0.3402
23804W        W39938   9.817  10.054   6.415  0.1656  0.1701  0.5155
23805W        W39939  17.101  12.106  13.348  0.1284  0.0205 -0.0203
23806W        W39940   1.289  15.813   1.985 -0.1678  0.1614  0.1587
23807W        W39941  17.218  15.860  10.387 -0.0906  0.1693  0.0403
23808W        W39942  18.229  12.155  14.791  0.0551 -0.1453 -0.0723
23809W        W39943  12.751  12.606  15.684 -0.0827 -0.0949  0.1552
23810W        W39944  16.852   0.645  11.357 -0.0445  0.0523 -0.0518
23811W        W39945   6.134  13.533   1.068  0.0298  0.0443  0.1079
23812W        W39946   5.757  15.299   2.492 -0.0501  0.3561  0.1222
23813W        W39947  11.837   5.510   5.399 -0.1894  0.2093 -0.3051
23814W        W39948  18.314   0.091   1.963  0.1235 -0.0849  0.1045
23815W        W39949   7.272  14.514   0.123  0.2411 -0.0810 -0.0543
23816W        W39950  13.572   4.241  14.181 -0.0413 -0.2342  0.0301
23817W        W39951   1.001   9.477   0.212 -0.0678 -0.0689  0.2605
23818W        W39952   0.026   9.121   4.525  0.1332  0.0866  0.1190
23819W        W39953   5.303   0.219   4.082  0.2787  0.1637  0.2257
23820W        W39954  13.733  10.603  14.545  0.1560 -0.1813 -0.0423
23821W        W39955   2.571  11.256  13.185  0.2471 -0.1283 -0.1629
23822W        W39956  13.374   4.271   1.369  0.3204 -0.0075 -0.2306
23823W        W39957  10.281  13.816  13.955 -0.1706 -0.1380 -0.0783
23824W        W39958  11.220  11.031   1.751 -0.0529 -0.0944  0.1122
23825W        W39959  14.533  16.270   0.787 -0.2966  0.2284 -0.0919
23826W        W39960  13.441  13.327   3.513 -0.0962  0.2229 -0.2010
23827W        W39961   0.693  13.475   0.132 -0.0401  0.2024  0.1615
23828W        W39962  11.934  15.682  14.912  0.0123 -0.4071 -0.2243
23829W        W39963  13.190   2.717  16.017 -0.0454  0.1252 -0.1687
23830W        W39964  15.969   4.479  10.602 -0.1574  0.3928  0.0760
23831W        W39965  13.673  16.189  11.752  0.2213  0.1106  0.0808
23832W        W39966  12.898  16.968  11.663 -0.0766 -0.2307 -0.3479
23833W        W39967   2.144   1.180   3.898 -0.1194 -0.4288  0.0148
23834W        W39968   7.040   8.003   5.169 -0.1395  0.1141 -0.0685
23835W        W39969   9.301   8.622  11.132  0.0987  0.3429 -0.2955
23836W        W39970   9.763  16.152   0.120  0.1330 -0.1987 -0.0206
23837W        W39971  14.463   6.102   4.775  0.3385 -0.2921 -0.2128
23838W        W39972  13.361  11.753  12.401  0.2435  0.1550 -0.3403
23839W        W39973   3.511  11.175   1.510  0.2769  0.3028 -0.0742
23840W        W39974  15.712  12.859   2.212  0.2454 -0.0120 -0.0391
23841W        W39975  13.997   5.925   4.950  0.0236 -0.0116 -0.1189
23842W        W39976  10.395   5.203   4.284 -0.0289 -0.1660  0.1305
23843W        W39977  12.479  15.480  15.067  0.0431 -0.0193  0.0544
23844W        W39978   4.291  12.823  15.535 -0.1290  0.1265 -0.4215
23845W        W39979   3.331   1.734   0.394  0.0427  0.0990 -0.0130
23846W        W39980  16.512   6.498   4.941  0.2798 -0.3196 -0.0891
23847W        W39981  10.970   7.903  14.652  0.1854 -0.0053 -0.1647
23848W        W39982  18.452   6.188  13.437  0.0621 -0.2798 -0.1047
23849W        W39983  16.288  10.544   5.095  0.4858  0.1729  0.1890
23850W        W39984   8.321   5.041  14.017 -0.4053 -0.1520 -0.2753
23851W        W39985   1.059   3.546  13.614 -0.2348 -0.1750 -0.2855
23852W        W39986   4.476  11.758  14.419  0.3606 -0.0135 -0.4268
23853W        W39987  14.020  17.901   4.975  0.0380  0.2885 -0.2114
23854W        W39988  18.238   4.518   0.112  0.1848  0.0908  0.0698
23855W        W39989   0.550   0.176   2.560  0.1781 -0.0630 -0.0980
23856W        W39990  15.982   6.151   3.608  0.2298 -0.1382  0.1113
23857W        W39991   0.515   4.179   4.412  0.0497 -0.2477  0.1090
23858W        W39992   5.786   4.454   3.782  0.0684 -0.4594  0.2796
23859W        W39993   1.695  12.888   4.139  0.3811 -0.3603  0.1513
23860W        W39994   8.642   0.923  13.628  0.0197 -0.1030  0.3706
23861W        W39995   3.167  13.630  10.237 -0.1994  0.0468 -0.2814
23862W        W39996   3.133   4.955  14.525  0.0660 -0.0603  0.0581
23863W        W39997   0.531   4.483  14.660  0.0561  0.0175 -0.1368
23864W        W39998   8.057   1.399   1.313  0.2312  0.2198  0.2238
23865W        W39999  16.821   2.652   2.606 -0.4652  0.0714 -0.3045
23866W        W40000   6.979  12.261   2.468  0.1804  0.0786  0.0473
23867W        W40001   0.732   9.567   1.163  0.3337 -0.0557 -0.1525
23868W        W40002   8.715   4.868  14.904 -0.2484  0.2398 -0.1766
23869W        W40003  12.988  12.358  11.632  0.1605  0.0437 -0.3496
23870W        W40004  13.536   3.093   2.492  0.0240 -0.0421  0.0596
23871W        W40005   4.729   8.533   0.170 -0.0670  0.0624 -0.1652
23872W        W40006   4.780  13.314  13.202  0.0219 -0.0367 -0.1384
23873W        W40007  14.533   0.435  11.914 -0.0223  0.2045  0.1238
23874W        W40008   5.912  13.680  12.304 -0.1191  0.2047 -0.2832
23875W        W40009   1.131  17.602  12.624 -0.0588 -0.2865  0.1014
23876W        W40010  15.428  12.247  15.906  0.0108  0.0913 -0.1077
23877W        W40011  10.187  14.703   4.535  0.0032 -0.1827  0.0928
23878W        W40012  13.444  15.526  14.299  0.1665 -0.0496  0.1297
23879W        W40013   1.082  10.433  11.793  0.1507  0.1339 -0.0472
23880W        W40014  18.279   2.471  11.530  0.2557 -0.1273  0.1177
23881W        W40015  10.413   4.777   6.333  0.0556  0.0371  0.2805
23882W        W40016   5.060   1.049  12.795 -0.2698 -0.2124 -0.7038
23883W        W40017   4.165   5.423   1.214 -0.2191 -0.0212  0.0873
23884W        W40018   8.486   6.225   0.277  0.0946 -0.0017 -0.0379
23885W        W40019  16.077   4.349  13.245  0.1420 -0.0899 -0.2435
23886W        W40020  17.462   7.020   4.048 -0.2128  0.3133  0.2747
23887W        W40021  18.281  15.072   4.240 -0.2716 -0.0655  0.0615
23888W        W40022   2.978  13.017  12.887  0.1945 -0.0745 -0.3862
23889W        W40023  11.383   5.319   3.527 -0.3439 -0.0112 -0.1887
23890W        W40024  13.879  12.968  11.728 -0.2143  0.0309  0.1226
23891W        W40025  18.019   9.329  15.402 -0.3465  0.2030  0.1774
23892W        W40026  16.002  13.704   4.854  0.0726 -0.0281 -0.1355
23893W        W40027  17.021   7.982  14.265  0.0911 -0.0558 -0.2447
23894W        W40028  14.543  18.227   4.816  0.3836 -0.2246  0.1188
23895W        W40029   8.433  13.039  15.239  0.0192  0.3410  0.2063
23896W        W40030   6.884  18.116  13.243 -0.1927 -0.3739 -0.2320
23897W        W40031  10.755  16.213   5.394  0.2009  0.2237 -0.2831
23898W        W40032  16.331  17.847  14.045  0.0805  0.1561 -0.0522
23899W        W40033   8.631   2.901   0.120  0.0329 -0.2912  0.5749
23900W        W40034   5.907  14.506  15.341 -0.0852 -0.2157 -0.0844
23901W        W40035  12.324   1.789  12.754  0.2150  0.1040  0.1130
23902W        W40036  10.145   5.618   1.019 -0.1779 -0.0908  0.1023
23903W        W40037  14.111   3.830   4.944 -0.2362 -0.3640 -0.0480
23904W        W40038   3.013   7.434   9.760  0.4000 -0.1117 -0.1370
23905W        W40039   2.432   1.483   2.221  0.2498  0.1284 -0.1523
23906W        W40040  10.196  11.705  10.528 -0.0449 -0.0815  0.0334
23907W        W40041   8.550   9.400  13.618 -0.0650 -0.0181  0.0418
23908W        W40042  14.028  10.617   4.479 -0.0425  0.1071  0.4654
23909W        W40043   8.047  14.515  13.569  0.0772 -0.0033 -0.1082
23910W        W40044  10.658  12.503   3.815  0.2122 -0.0628 -0.2314
23911W        W40045   8.130  12.590  13.512  0.5068  0.1257  0.0497
23912W        W40046  13.230  15.683   1.100 -0.2093 -0.0534  0.1059
23913W        W40047   6.767  12.509   2.847 -0.0600 -0.0629 -0.0798
23914W        W40048  17.173   7.642  13.881 -0.4129  0.3526 -0.3517
23915W        W40049   2.380   8.936  12.887  0.4574 -0.0993  0.0634
23916W        W40050   8.192   1.116  15.884  0.2630  0.0570  0.2837
23917W        W40051   8.508  13.174   3.356  0.1825 -0.0263 -0.2078
23918W        W40052  12.635  13.668   1.163 -0.1671 -0.0197 -0.1902
23919W        W40053  10.385  16.346   5.112 -0.1601  0.3942  0.3649
23920W        W40054   5.316   2.055   2.193 -0.0436 -0.0582  0.1220
23921W        W40055  17.164   1.464  10.954  0.0490  0.0810 -0.0728
23922W        W40056  13.362   8.121   0.351  0.0811 -0.1810  0.1519
23923W        W40057  14.939  13.095  11.926  0.0337 -0.2644  0.3218
23924W        W40058   7.003   4.257   4.266  0.2096 -0.0290 -0.0476
23925W        W40059  14.429   2.969   0.299  0.2344  0.0420  0.3387
23926W        W40060  15.907   8.128  12.927 -0.2313  0.2054 -0.0846
23927W        W40061  14.387   3.867   3.365 -0.3486 -0.4014 -0.1123
23928W        W40062  17.256  15.274  11.342 -0.1496  0.0743 -0.0003
23929W        W40063   3.359  11.418  10.983  0.1657  0.1615 -0.1772
23930W        W40064  15.059   4.672  12.353  0.2343 -0.2106  0.1116
23931W        W40065   8.397  17.396  11.925 -0.3058 -0.1777  0.0205
23932W        W40066   4.718   1.796  15.175 -0.0515 -0.0343 -0.2082
23933W        W40067   8.580   0.217   0.268  0.0857 -0.0032  0.1781
23934W        W40068   9.859   9.731   6.034 -0.2902  0.3670 -0.2230
23935W        W40069  17.135   9.688   2.389 -0.0727 -0.0139 -0.1882
23936W        W40070  10.171  15.153  11.621  0.1912  0.0763  0.2480
23937W        W40071  13.997   9.038   1.366 -0.4014  0.1151 -0.2438
23938W        W40072  12.805   8.939  13.750 -0.2520 -0.1851  0.1251
23939W        W40073   7.872   7.973  12.868 -0.4614 -0.0207  0.1174
23940W        W40074  14.690   5.185  15.200 -0.1061 -0.1169 -0.1016
23941W        W40075   7.588   4.447   5.451  0.1508 -0.3645  0.0413
23942W        W40076  15.844   4.925   4.333  0.0208 -0.1523 -0.1752
23943W        W40077   6.120   8.017   3.403  0.1750  0.2132  0.0434
23944W        W40078  12.353  16.768   0.702 -0.1118 -0.0912 -0.0755
23945W        W40079   4.394   3.982   1.572  0.0509 -0.0121 -0.0017
23946W        W40080  10.733   9.862  13.777  0.0516  0.1254  0.0053
23947W        W40081  15.270   1.174   5.073 -0.0981  0.2505 -0.1430
23948W        W40082   3.673   2.699   0.811 -0.1007 -0.2637  0.0667
23949W        W40083   0.338   0.764   3.516  0.2442 -0.4105 -0.1573
23950W        W40084   9.342   2.133   3.187  0.1517 -0.1643 -0.0551
23951W        W40085  11.586  16.343   4.113  0.0589  0.2583 -0.1630
23952W        W40086   4.336   0.524  14.640  0.3885 -0.3509 -0.2358
23953W        W40087   7.590   1.942  11.238  0.0459 -0.0675  0.1543
23954W        W40088  10.676  10.491  13.169  0.1008  0.3513 -0.2804
23955W        W40089   1.812   7.510   2.722 -0.1146 -0.0902  0.0228
23956W        W40090   8.784   7.893  13.711 -0.1351  0.1061  0.0294
23957W        W40091  17.616   8.230   1.397 -0.2447  0.0814  0.2576
23958W        W40092  16.036  14.331  11.258 -0.0555 -0.1090 -0.2005
23959W        W40093   5.587   3.038  13.642 -0.5891 -0.0127 -0.1605
23960W        W40094  18.096   4.311  15.683  0.1063  0.0804  0.0402
23961W        W40095   2.103   5.123   1.018 -0.1934  0.0522  0.2317
23962W        W40096  13.303   9.033  12.112  0.1958 -0.1648  0.0412
23963W        W40097  12.770  15.468  12.803 -0.0854 -0.0182 -0.1256
23964W        W40098  16.268   4.799  14.088  0.0305  0.1495  0.2507
23965W        W40099   4.768   1.581  14.742  0.1338 -0.0542 -0.1954
23966W        W40100  16.716   0.612   4.128  0.0038 -0.0894 -0.0635
23967W        W40101  16.811   6.145   2.967 -0.1007 -0.0517  0.2256
23968W        W40102  17.851  16.055  14.645  0.1563  0.2682  0.0645
23969W        W40103   3.343  14.866   0.964 -0.2051  0.0334 -0.1380
23970W        W40104  17.865  17.419   4.921 -0.0241  0.1157 -0.0826
23971W        W40105   3.432  12.945  10.001 -0.0288  0.1799 -0.3443
23972W        W40106   5.798   7.660   4.927  0.1175 -0.0168 -0.0530
23973W        W40107  18.146   7.648  15.623 -0.0015 -0.1376 -0.1150
23974W        W40108   8.864  13.284  12.419  0.1353 -0.3077  0.2060
23975W        W40109   4.212  16.433  10.051 -0.1546  0.1270 -0.2676
23976W        W40110  11.341  13.575   2.443  0.0539  0.4401 -0.0881
23977W        W40111  13.423  11.056   5.016  0.3720  0.0734 -0.0760
23978W        W40112  14.855   6.031   1.549 -0.1807  0.3171  0.0897
23979W        W40113   6.918  16.046  14.095 -0.4411 -0.0460  0.1401
23980W        W40114   9.227  10.142   4.387 -0.1735  0.2663  0.3056
23981W        W40115  17.649   5.878  13.704 -0.3109  0.0717 -0.3292
23982W        W40116  15.407  11.419   5.771 -0.3354 -0.2607  0.1102
23983W        W40117  14.450  17.678  13.755 -0.0030 -0.2049 -0.3404
23984W        W40118   7.133   0.202   3.845 -0.1027  0.0079 -0.1726
23985W        W40119   2.364   5.338   4.169 -0.0254 -0.0006 -0.0380
23986W        W40120  18.467   9.291  11.707  0.2937 -0.0306 -0.2581
23987W        W40121   8.370  17.318  14.060 -0.0157 -0.2293  0.2148
23988W        W40122   1.148  16.661  14.712 -0.3715  0.3352 -0.2425
23989W        W40123  18.276  13.198  12.488 -0.0859 -0.0033  0.1058
23990W        W40124   1.489  15.811   0.318 -0.1049 -0.0617  0.2332
23991W        W40125  10.295  17.134  11.169 -0.0549 -0.1312 -0.0111
23992W        W40126   6.349  10.342   3.056  0.0552 -0.0037 -0.0015
23993W        W40127   5.424  12.755  15.460 -0.0497  0.2231 -0.2253
23994W        W40128   7.362  10.612  12.374 -0.1391  0.2549  0.1679
23995W        W40129   0.750  10.985  10.017  0.0746 -0.2204 -0.0551
23996W        W40130   5.335  13.519  11.734  0.0970 -0.1314  0.1328
23997W        W40131  13.730  10.082   6.126 -0.1599  0.0063 -0.1613
23998W        W40132  13.972  18.421   5.369  0.2519 -0.0732  0.1686
23999W        W40133   8.696  12.556   2.308 -0.0834 -0.0751 -0.1404
24000W        W40134  17.813   7.500   2.846  0.1817  0.2906 -0.2765
24001W        W40135   8.714   1.079  15.922 -0.0453  0.0765  0.2028
24002W        W40136   5.543  14.848   2.295  0.2970 -0.1549  0.1016
24003W        W40137  16.141  13.082   1.933  0.0459  0.4241 -0.2823
24004W        W40138   4.026  13.822   1.810 -0.0726  0.0573 -0.2605
24005W        W40139   6.871   6.139   0.704  0.0747 -0.0561  0.0471
24006W        W40140  16.963   6.224  11.298 -0.1545 -0.0175  0.0558
24007W        W40141  15.050   4.109   4.731 -0.1076 -0.0537 -0.4435
24008W        W40142   5.844   6.208  13.430  0.0647  0.1145 -0.1720
24009W        W40143  12.791  14.121   5.511 -0.0369 -0.0498 -0.1872
24010W        W40144  17.736  11.199  12.296 -0.0496  0.1169  0.1202
24011W        W40145  15.480   2.241  13.239 -0.2370 -0.0581 -0.2215
24012W        W40146   7.651   2.752  14.911  0.0162 -0.3437  0.0526
24013W        W40147   5.231   2.597   4.696 -0.2749  0.4858  0.1806
24014W        W40148   0.729  12.700   4.261 -0.0188 -0.2417  0.1441
24015W        W40149  14.398   8.102  15.368  0.4151 -0.0773 -0.1579
24016W        W40150  14.584   9.339  15.327 -0.0079 -0.0469  0.5145
24017W        W40151  16.014  17.010  14.825 -0.0588  0.1123  0.0211
24018W        W40152   5.404  10.690   1.420 -0.2713 -0.0590 -0.0007
24019W        W40153  11.539   0.982  14.623  0.0018  0.0107  0.1541
24020W        W40154   0.180  13.246   2.691 -0.1083 -0.1472  0.2153
24021W        W40155   3.133  17.002  12.861 -0.2505 -0.5952 -0.0025
24022W        W40156  14.163  14.621  12.073 -0.0891 -0.1346 -0.0268
24023W        W40157   5.153  16.633  12.394  0.2040  0.1850 -0.1866
24024W        W40158   1.946   4.963   3.381 -0.2176 -0.1420  0.2077
24025W        W40159   0.664   7.446   4.971 -0.1608  0.1842 -0.1172
24026W        W40160   5.086   8.610   3.116  0.2571 -0.0756  0.1813
24027W        W40161   5.062   6.026   4.089 -0.0734  0.3702  0.1251
24028W        W40162  10.131   4.446   5.340  0.0015  0.1835  0.0998
24029W        W40163   4.992  16.514   5.502  0.0032 -0.2029  0.3232
24030W        W40164  11.657  12.189  14.105  0.1268 -0.0105  0.0230
24031W        W40165  17.442   9.812  10.511  0.0026 -0.0090  0.0537
24032W        W40166   2.627  17.404   4.630 -0.1062 -0.0318  0.0491
24033W        W40167   6.566   8.319   0.293 -0.1783 -0.1773  0.0185
24034W        W40168  16.129   2.838  15.166 -0.0872  0.2375  0.1031
24035W        W40169   8.537   9.083   1.743  0.0719  0.3518  0.1179
24036W        W40170   0.220  15.657   1.542  0.0856 -0.1611 -0.1600
24037W        W40171   6.950  11.284   2.201  0.2804 -0.0507  0.0249
24038W        W40172   3.211   9.477  13.991  0.0260 -0.2821  0.3891
24039W        W40173   2.475  11.572  11.405 -0.3365 -0.1433 -0.0806
24040W        W40174  18.098  12.007   0.548  0.2138  0.1207  0.1114
24041W        W40175   2.085   8.182  11.744 -0.2592 -0.1721  0.2219
24042W        W40176  13.267   8.771  12.710 -0.3133 -0.2739  0.0674
24043W        W40177   4.663  11.917  12.893  0.3939 -0.2716  0.1155
24044W        W40178   2.120  11.927   1.431 -0.2922 -0.2301  0.2039
24045W        W40179  12.293  11.670   1.046 -0.0667  0.1444 -0.2254
24046W        W40180  13.101   6.163  12.117  0.0304 -0.1558 -0.1064
24047W        W40181   5.116   6.808   2.756 -0.2187  0.0695  0.1094
24048W        W40182   4.307  11.178   4.487  0.0451 -0.1572  0.4684
24049W        W40183  14.609   0.299   0.745  0.3585  0.2857  0.1995
24050W        W40184  14.312   7.979  14.019  0.0669 -0.0486  0.0518
24051W        W40185  11.265  12.507  14.152 -0.0751  0.0666  0.0126
24052W        W40186  18.313   1.750  15.508 -0.3972  0.0154  0.4243
24053W        W40187   7.790   0.259  15.035  0.1756  0.1979 -0.2557
24054W        W40188   1.329  10.478   1.184  0.0009  0.1027  0.1392
24055W        W40189   5.776   1.711   2.174 -0.0512 -0.3490 -0.3578
24056W        W40190  11.859  15.310  12.784  0.1750  0.0334  0.2506
24057W        W40191  14.073  15.948  13.118 -0.1455  0.0116 -0.2833
24058W        W40192  16.204  14.657   1.219 -0.3404  0.0932 -0.0407
24059W        W40193  15.171   4.497  12.851 -0.0252 -0.3014 -0.0162
24060W        W40194   9.704   5.233   6.004  0.2568  0.1359 -0.3292
24061W        W40195  14.547   1.202  14.619 -0.1164  0.1112  0.0891
24062W        W40196   1.894   7.657   0.307 -0.2180 -0.0977 -0.0830
24063W        W40197  10.324  17.385   2.115  0.0737  0.5339  0.0244
24064W        W40198   8.269  10.336  13.711 -0.3504 -0.0715 -0.1780
24065W        W40199   1.298  13.449  13.535  0.1010  0.1604  0.1507
24066W        W40200  18.288   0.479   0.084  0.2518  0.2521 -0.0299
24067W        W40201   1.143  16.791  13.688  0.0190  0.1562 -0.0685
24068W        W40202  13.987   3.286   2.451  0.0669  0.0329 -0.2355
24069W        W40203   1.182   8.965  11.089 -0.1306 -0.2575 -0.0244
24070W        W40204  12.043   0.998  14.644 -0.1024 -0.0396 -0.1201
24071W        W40205  10.086  11.072   4.790 -0.0095  0.0074  0.1598
24072W        W40206  10.416  16.836  13.353  0.6136 -0.0555  0.2966
24073W        W40207   5.737   9.599   5.674 -0.0630  0.1984 -0.0090
24074W        W40208  16.330   3.557  11.612 -0.4675  0.0203 -0.2474
24075W        W40209  14.163   7.364  15.932 -0.0847  0.0523 -0.1317
24076W        W40210  13.252   5.501   3.908  0.1842  0.1923  0.2293
24077W        W40211   2.792  10.445  15.198 -0.1724 -0.0202 -0.2359
24078W        W40212   8.449  14.913   0.088  0.0110 -0.0678  0.0614
24079W        W40213  18.029  16.195   4.451 -0.0849  0.1907  0.0810
24080W        W40214   1.961   9.578   2.731 -0.2696  0.0473 -0.0379
24081W        W40215   0.912  11.766   4.271  0.0772  0.0095  0.1356
24082W        W40216  13.163   5.502   2.913 -0.0495 -0.0764  0.1098
24083W        W40217   8.325   1.535  11.484 -0.0552 -0.2314  0.1157
24084W        W40218   6.286   9.976  11.674 -0.0623  0.0446 -0.1016
24085W        W40219   0.996  16.151   3.940  0.0179 -0.2226 -0.0377
24086W        W40220   3.501  17.019   1.956 -0.0924  0.1533  0.1304
24087W        W40221   1.383   8.200   1.816 -0.0146 -0.0792 -0.1523
24088W        W40222  12.122  18.176   3.215  0.1963 -0.2608 -0.1496
24089W        W40223   4.327  10.815   2.670 -0.0225  0.0511 -0.0098
24090W        W40224  10.349  17.131  15.659 -0.0195 -0.2035 -0.0985
24091W        W40225  11.989  15.326  10.768 -0.0054 -0.0216 -0.0127
24092W        W40226  17.724   4.650  16.000 -0.0251  0.0159  0.1802
24093W        W40227   3.363   9.159   5.372 -0.1346 -0.0266  0.0975
24094W        W40228   8.939   1.365  12.918  0.3454  0.0535 -0.1921
24095W        W40229   4.293  17.615  12.303  0.2778 -0.0948 -0.0479
24096W        W40230   8.503  14.443   2.764 -0.0737  0.0148  0.0803
24097W        W40231  14.643   1.273   2.582  0.0010  0.4783 -0.1262
24098W        W40232   9.666  16.367   3.891  0.2228 -0.4838 -0.0533
24099W        W40233   6.942   6.305  13.924  0.0328  0.1342 -0.1179
24100W        W40234   2.584   6.562   0.865 -0.2284  0.1191 -0.1303
24101W        W40235   7.680   9.628   1.803  0.2324  0.0254 -0.2839
24102W        W40236  12.203   8.839   3.127 -0.0118 -0.3803 -0.1367
24103W        W40237   5.684  14.189  11.144  0.1452 -0.2854 -0.0482
24104W        W40238   3.574  13.751   4.106  0.0283 -0.3210 -0.1170
24105W        W40239   7.611   4.326  15.395  0.0068  0.1560 -0.0163
24106W        W40240   7.425  17.660  13.685  0.1083 -0.2252  0.4028
24107W        W40241   2.744   9.897   5.043 -0.0166 -0.2735 -0.0484
24108W        W40242  16.712  16.578   0.717 -0.2817  0.1221  0.0200
24109W        W40243   0.310   8.092   0.752 -0.1005 -0.1708 -0.1391
24110W        W40244  14.933  10.147   4.783  0.0107  0.3255 -0.2977
24111W        W40245   3.310   0.997   2.723  0.0745 -0.0009  0.0848
24112W        W40246  13.823   8.742  14.256  0.0052 -0.0111  0.0468
24113W        W40247   6.328   5.494   4.636  0.3636  0.1844 -0.1516
24114W        W40248   9.404   3.621   4.012  0.0858  0.2361 -0.1744
24115W        W40249   0.001  10.097   3.975  0.1029 -0.1588  0.3818
24116W        W40250   8.840   7.388   5.901 -0.0417  0.1382 -0.0988
24117W        W40251  10.928   8.861   1.105  0.0405 -0.1551  0.0010
24118W        W40252   7.910  14.288   2.980 -0.2637  0.0247  0.0262
24119W        W40253  10.953  16.278   6.025 -0.1923 -0.2500  0.2632
24120W        W40254  10.912  18.414  12.277 -0.1867  0.1748 -0.0044
24121W        W40255   0.991  11.241  10.441 -0.1982 -0.1673  0.2775
24122W        W40256   1.423   3.069  15.778 -0.3635  0.1913 -0.0063
24123W        W40257  11.985  12.066  12.578 -0.0256 -0.2555  0.2146
24124W        W40258   7.700  16.857  12.627  0.1077 -0.2735  0.2387
24125W        W40259   6.322  12.415  11.816  0.1110 -0.0597  0.2642
24126W        W40260   2.428  14.053  12.061  0.0144 -0.1677  0.3549
24127W        W40261   3.488   1.010  14.512  0.1517  0.1047  0.1422
24128W        W40262   3.855  10.505  12.558 -0.1316 -0.2935  0.1455
24129W        W40263   7.364   9.280  14.682 -0.1987  0.3324  0.1068
24130W        W40264  18.024   2.044   3.338 -0.0357  0.2342  0.0341
24131W        W40265  17.410   7.656   3.062 -0.1256 -0.3806  0.0768
24132W        W40266   1.253  11.362   1.196  0.0801  0.2040  0.2182
24133W        W40267  12.524  15.563   1.684 -0.0936  0.2101  0.0562
24134W        W40268  12.186  11.612   2.905  0.2071  0.2461  0.0545
24135W        W40269   5.947   6.415   6.292 -0.1583 -0.2297 -0.3781
24136W        W40270   4.934   5.425   5.736  0.3100  0.2403 -0.2646
24137W        W40271  12.416   3.840  12.645 -0.0705  0.0399  0.2083
24138W        W40272  10.423   5.556   2.436 -0.2159 -0.1554 -0.2198
24139W        W40273   1.771   2.972   1.942  0.2534  0.1122 -0.1569
24140W        W40274  17.192  13.868   5.181 -0.1246  0.0300 -0.1055
24141W        W40275  14.853   0.645  12.943  0.0233  0.2983  0.1112
24142W        W40276   1.063   4.411   3.623 -0.0072  0.0464 -0.1437
24143W        W40277  10.438   9.304  15.663 -0.1264  0.2469  0.0347
24144W        W40278   4.258   6.399  12.716 -0.3387 -0.2196  0.2351
24145W        W40279  12.518   6.148   2.118  0.1216  0.1306 -0.1098
24146W        W40280  12.731   3.479  15.783 -0.0108 -0.4363  0.0841
24147W        W40281   6.896  11.697   0.016 -0.1458  0.2087 -0.2887
24148W        W40282   4.416  11.112   3.896  0.0039  0.1161 -0.1847
24149W        W40283   9.438  10.084   0.370  0.3704 -0.3480  0.0256
24150W        W40284   1.738  13.801   4.598  0.1305 -0.1470  0.0127
24151W        W40285   4.216  12.296   5.012 -0.3076  0.3717 -0.0604
24152W        W40286   7.859   9.009   0.299 -0.1757  0.0936  0.1091
24153W        W40287  12.300   1.573  15.384 -0.2304 -0.1025  0.1696
24154W        W40288   6.277  16.452  15.271 -0.0057 -0.0511 -0.0146
24155W        W40289  18.106  11.626  14.024 -0.1020  0.1349  0.3152
24156W        W40290  14.948   6.132  11.976  0.1093  0.0111  0.2764
24157W        W40291   6.345   5.206   4.136 -0.1088  0.0302  0.0847
24158W        W40292  17.464  13.850  12.870  0.0755  0.0361  0.2693
24159W        W40293  10.559   3.643   0.864 -0.1993  0.1897  0.2692
24160W        W40294  11.628   7.348  14.248  0.1357 -0.3213 -0.2728
24161W        W40295   9.728  13.318   1.525  0.0991  0.1169  0.1323
24162W        W40296   5.249   4.173  11.694  0.2022 -0.2053 -0.1062
24163W        W40297  16.152  14.132   0.133 -0.1650 -0.0629 -0.0727
24164W        W40298  14.913  15.077  12.331 -0.0192 -0.0021  0.4178
24165W        W40299   3.170   6.237   0.730 -0.0563  0.1207 -0.2065
24166W        W40300   8.694   4.591   6.313 -0.3338 -0.0090  0.2335
24167W        W40301   2.940  18.074   0.645 -0.0951 -0.2039  0.3105
24168W        W40302  16.640   1.136  12.218 -0.0228 -0.0229 -0.2386
24169W        W40303   7.862   6.805  15.502  0.0626 -0.2556  0.0216
24170W        W40304  11.644   8.130  11.841  0.0949 -0.1344  0.0571
24171W        W40305   5.521   9.209  11.744  0.0057  0.0074 -0.4488
24172W        W40306   6.525  10.942  15.569  0.2451 -0.0868  0.0881
24173W        W40307  10.826   4.916   3.316 -0.0374 -0.2085 -0.0696
24174W        W40308   9.982  17.248  14.690 -0.1036  0.1955 -0.2235
24175W        W40309   7.439   1.766  15.645 -0.0703  0.0321 -0.1976
24176W        W40310   5.801  12.848  14.521 -0.0808  0.2459  0.0477
24177W        W40311  18.245   6.708  13.437 -0.0647  0.0419 -0.0691
24178W        W40312  14.834   0.640   3.706  0.0754  0.2922 -0.1273
24179W        W40313   5.422  16.778  14.382 -0.0834 -0.3027 -0.0429
24180W        W40314  10.192  15.987  13.391 -0.1669  0.2543  0.2360
24181W        W40315   8.315  10.854   4.440 -0.2688  0.0232  0.0129
24182W        W40316  17.101   8.536  10.620  0.1824 -0.0739  0.3617
24183W        W40317  15.450  10.178   4.323  0.1032  0.1425 -0.0304
24184W        W40318   5.544   9.532   2.498  0.0386 -0.1531  0.1413
24185W        W40319  17.665   3.034   2.158 -0.0221 -0.0479  0.0312
24186W        W40320  13.152   9.236   1.289  0.0477 -0.0609 -0.2497
24187W        W40321  16.333  14.820   5.771 -0.0622 -0.0930 -0.0284
24188W        W40322  14.636   1.603   5.271  0.1949  0.1425 -0.2040
24189W        W40323   8.741   8.309   5.015  0.1198  0.1156  0.0235
24190W        W40324  16.066  10.891  11.444  0.0359  0.0231 -0.1758
24191W        W40325  11.461  11.461   3.071  0.1095 -0.0362  0.2790
24192W        W40326   9.187   5.148   1.789  0.1785  0.2198  0.0573
24193W        W40327   3.935   3.244   3.594  0.0946  0.0866  0.0099
24194W        W40328   5.942   3.312   5.758 -0.4359 -0.0848 -0.1370
24195W        W40329  11.383  12.392   1.786 -0.0595 -0.2209 -0.2294
24196W        W40330   8.047   9.178  11.494  0.3663  0.1395  0.0141
24197W        W40331  16.918   2.572   0.875  0.1531 -0.2448  0.0695
24198W        W40332   7.808  18.245  12.152  0.0684  0.3418  0.3632
24199W        W40333  16.675   5.104   4.785  0.1344 -0.3217 -0.3478
24200W        W40334   4.697   2.129   1.902  0.0388  0.3097 -0.2332
24201W        W40335  16.904   0.963   1.679 -0.3048  0.0865  0.0683
24202W        W40336   6.997   3.014   2.587 -0.5042  0.0324  0.1523
24203W        W40337  15.676  15.887   4.045  0.2990 -0.2315 -0.0442
24204W        W40338  13.424   9.818   2.143  0.0673  0.1408  0.0789
24205W        W40339  16.382  18.123  13.569 -0.1127  0.3875 -0.2617
24206W        W40340   3.253  15.418   0.039 -0.0178  0.1093 -0.2930
24207W        W40341   6.014  16.865   4.042  0.0130  0.1152 -0.0810
24208W        W40342  16.585   0.669  13.755 -0.0332  0.0277  0.1033
24209W        W40343   2.273  15.438   4.880  0.2591  0.0344 -0.1590
24210W        W40344   9.883   3.436   3.916  0.3054  0.2233 -0.1760
24211W        W40345   6.219   8.991   2.667  0.0691  0.3704 -0.1078
24212W        W40346   2.261   0.432   2.629 -0.3833  0.3612  0.1317
24213W        W40347  13.004  15.084  11.944  0.1097  0.0114  0.1164
24214W        W40348  11.317   0.486   2.151  0.0258 -0.1565  0.0115
24215W        W40349  13.953  15.679  11.912  0.0792  0.0428 -0.1415
24216W        W40350   0.478   8.381  15.894  0.5293  0.0707  0.0397
24217W        W40351   9.658   1.672  14.533  0.3663 -0.2529 -0.0182
24218W        W40352  15.671  13.051  11.543 -0.2920 -0.2204 -0.0579
24219W        W40353  11.698  15.341  16.050 -0.3630 -0.0900 -0.1155
24220W        W40354   8.360  10.103  14.180  0.1993 -0.0452  0.0595
24221W        W40355   3.730   0.794  13.917 -0.0520  0.2253  0.0994
24222W        W40356  13.573   7.973  15.671  0.2458 -0.0953  0.0703
24223W        W40357   9.007   4.586   3.642  0.2224  0.0300  0.0027
24224W        W40358  11.975  12.878  15.260  0.0589  0.1909  0.0958
24225W        W40359   9.529   4.916   0.896 -0.2366  0.0325 -0.0843
24226W        W40360   9.676  13.670   3.723  0.0949 -0.0844  0.1589
24227W        W40361  10.130  15.732  14.979  0.2254 -0.0021 -0.0219
24228W        W40362  14.622   2.703  13.336 -0.1364  0.2066 -0.2593
24229W        W40363  12.102  16.577  14.483 -0.1247 -0.0081  0.0131
24230W        W40364  13.013   5.145  12.282  0.0701  0.2276 -0.1586
24231W        W40365  16.968  18.414   2.689  0.0768  0.0951 -0.1565
24232W        W40366   1.614  12.799   1.350 -0.2834 -0.0863  0.0474
24233W        W40367  18.403   6.033  10.069 -0.1663  0.0185  0.0123
24234W        W40368  12.553  11.068  12.928 -0.1583  0.0842 -0.2996
24235W        W40369  12.940   5.578   0.225  0.1103  0.2257 -0.0543
24236W        W40370   4.902  18.115  12.910  0.0233  0.2489  0.0100
24237W        W40371   9.918  17.192   4.231 -0.0032  0.0538  0.1770
24238W        W40372  14.951  12.377   1.010  0.0712 -0.0313  0.3481
24239W        W40373  14.764   6.600   2.324  0.0910  0.0245  0.4130
24240W        W40374   0.831  13.717   4.276  0.0335  0.2408 -0.2269
24241W        W40375   1.665   6.929   9.399  0.0972 -0.3701 -0.0263
24242W        W40376   8.620  15.747  13.758 -0.3260  0.2370 -0.1289
24243W        W40377   4.320  11.436  12.635 -0.1924  0.0624  0.0167
24244W        W40378  10.621   6.139   5.876 -0.0223 -0.2619  0.1012
24245W        W40379   5.523   3.478   2.328 -0.0258  0.1025  0.0933
24246W        W40380  18.002   8.807  15.197 -0.0730 -0.1497  0.4068
24247W        W40381   6.349   2.448  14.885  0.1263  0.0211 -0.3273
24248W        W40382   7.548  15.237   5.492 -0.0194  0.1674  0.3989
24249W        W40383   5.717  12.995   1.584 -0.0585  0.0058 -0.0154
24250W        W40384   1.168  16.301   0.082  0.0795  0.0141 -0.4288
24251W        W40385  12.589   7.916   5.994 -0.1216 -0.1180  0.0842
24252W        W40386   0.863  10.840  15.407 -0.3416 -0.1193  0.0964
24253W        W40387   0.292   5.356  15.876  0.1768 -0.1162  0.1626
24254W        W40388   6.744   6.862   4.976 -0.0650  0.0486  0.2163
24255W        W40389   1.514   4.624   3.454 -0.1943 -0.1411  0.0774
24256W        W40390  18.334   7.340   3.938 -0.0729  0.1132  0.1887
24257W        W40391   5.065  14.907   1.521  0.2243 -0.0318 -0.0944
24258W        W40392  11.010   9.958  11.905 -0.1584 -0.2833 -0.4705
24259W        W40393   4.440   8.777   0.569  0.2586 -0.1591 -0.1278
24260W        W40394  12.155  13.639  12.514 -0.0630 -0.0743  0.0131
24261W        W40395   9.188   4.064  12.446  0.0697 -0.0009  0.0980
24262W        W40396  13.164   1.534   4.485 -0.0288  0.0081  0.2025
24263W        W40397  12.258  15.848   5.729 -0.0217 -0.1927  0.2077
24264W        W40398  17.279  10.258  16.055 -0.0156 -0.3716 -0.1666
24265W        W40399  12.661   5.090   5.477 -0.1236 -0.0653  0.2649
24266W        W40400   1.426   9.523  15.949 -0.1378  0.1297  0.3887
24267W        W40401   6.749   3.126  14.388 -0.0905 -0.0087  0.0883
24268W        W40402  15.290   9.538  14.047  0.0240 -0.2657  0.0467
24269W        W40403  15.300  16.259   4.072  0.3716  0.1988 -0.1005
24270W        W40404   6.979  10.207  12.393 -0.1530 -0.1208  0.1945
24271W        W40405   4.886  10.185   4.058  0.1897  0.1580 -0.0365
24272W        W40406   6.051   5.289  14.650 -0.3288 -0.1137 -0.1661
24273W        W40407   8.030  18.136   5.038  0.0137 -0.3122 -0.0810
24274W        W40408  18.276   3.355   4.891  0.1200  0.1368 -0.0171
24275W        W40409   1.225   9.603   0.682  0.0645 -0.0865  0.0037
24276W        W40410  15.889   7.782   0.848 -0.0214 -0.2999 -0.0517
24277W        W40411   4.734   6.201  15.418 -0.1268 -0.0076  0.2429
24278W        W40412   0.645   1.123  14.418 -0.0497 -0.0299 -0.3196
24279W        W40413   9.267  18.101  13.034  0.1217 -0.1580 -0.0342
24280W        W40414   7.102  15.526  12.192  0.0003  0.0339  0.0914
24281W        W40415  16.661  14.817  14.875  0.1796 -0.0366 -0.0346
24282W        W40416   1.692   6.630  11.073 -0.0907  0.0874  0.4359
24283W        W40417   1.160  10.081  14.607  0.0375 -0.0165  0.0715
24284W        W40418  14.122   5.003   3.120 -0.1068  0.0437 -0.1930
24285W        W40419   9.586   6.297  12.486 -0.1849  0.1380 -0.4256
24286W        W40420  12.261  14.809   2.318 -0.1661 -0.3601 -0.2348
24287W        W40421   9.091  14.788   4.819  0.1779 -0.1138 -0.2394
24288W        W40422   9.475   8.032   2.705 -0.0423 -0.2525 -0.2716
24289W        W40423   4.972  16.518   0.695 -0.0396  0.0765 -0.0238
24290W        W40424  14.202   1.432  15.820 -0.0522 -0.1466  0.1005
24291W        W40425   9.796  12.237  14.163  0.1676  0.0695  0.0929
24292W        W40426   4.050   2.546  13.486  0.0355  0.0322 -0.1974
24293W        W40427   7.781  11.177  13.426  0.2023 -0.1086  0.2349
24294W        W40428  12.576   7.332  12.553 -0.1503  0.2031  0.4471
24295W        W40429   8.312  12.383   2.129  0.0230  0.0086 -0.3159
24296W        W40430   9.593   9.064  15.398  0.1082  0.1987  0.0814
24297W        W40431   2.709  13.243  13.322  0.2388  0.3964 -0.2787
24298W        W40432   4.492  14.582  12.944  0.1064 -0.1982  0.0045
24299W        W40433   2.307  10.257  12.389 -0.0600 -0.0736  0.0527
24300W        W40434   6.940   6.046   4.625  0.1909 -0.2187 -0.1232
24301W        W40435   7.622  12.725  13.619  0.1431 -0.3754  0.0053
24302W        W40436  15.411  11.919   4.403 -0.2635 -0.2137  0.2430
24303W        W40437  12.506   2.749  11.343  0.0760  0.1327  0.3976
24304W        W40438   6.240   3.749   2.028  0.0755  0.1973 -0.2163
24305W        W40439  11.343   5.068   2.484  0.3745  0.3647  0.1687
24306W        W40440   9.888   3.607   5.765  0.2135 -0.1818  0.3003
24307W        W40441   7.810   2.314   0.200 -0.1290 -0.3138 -0.1518
24308W        W40442  16.456   7.507   2.388  0.1157  0.0077 -0.1875
24309W        W40443   0.683   9.128  14.454  0.2480  0.0769  0.2654
24310W        W40444   4.441   5.996   4.079  0.4206  0.1838 -0.3524
24311W        W40445   5.961   8.109  14.746  0.0842  0.1106 -0.0999
24312W        W40446   9.654  11.832   1.733 -0.0197  0.0154  0.1114
24313W        W40447   4.799  15.891   3.371 -0.3072 -0.3050 -0.0789
24314W        W40448   5.611   0.839   3.325 -0.0523  0.0877 -0.0553
24315W        W40449  11.928  17.687   2.993  0.0175 -0.1196  0.1055
24316W        W40450   2.767   7.193  14.313  0.0606  0.0799 -0.2650
24317W        W40451  10.062  16.515  14.202  0.1432  0.0225  0.0424
24318W        W40452  14.553  16.784   3.693  0.0149  0.0316  0.1331
24319W        W40453  11.140   2.551  16.064 -0.1606 -0.0618  0.3494
24320W        W40454  13.066   3.821   4.274  0.0278  0.1372  0.2081
24321W        W40455  17.810   5.640  14.374  0.0890  0.2816  0.2102
24322W        W40456   5.305  13.099  14.237  0.0083 -0.1494  0.1388
24323W        W40457  14.263   6.864  15.638  0.1489 -0.0004  0.1782
24324W        W40458  13.007   9.351  14.025 -0.4809 -0.1990  0.3173
24325W        W40459   2.653  12.861   4.597 -0.0675 -0.0766  0.0399
24326W        W40460   9.544  15.913  12.613  0.0556  0.0505 -0.0076
24327W        W40461  10.387   1.171   3.203  0.0020 -0.3632 -0.0999
24328W        W40462  17.383  17.246   3.697 -0.1037 -0.2760 -0.3220
24329W        W40463   4.342  17.088  12.054 -0.2322 -0.2109 -0.0460
24330W        W40464   8.484   1.598   3.192 -0.3211  0.1991 -0.3498
24331W        W40465  15.607   5.031   0.714 -0.1259  0.1925 -0.0589
24332W        W40466   3.369   0.939   1.908 -0.1532 -0.2146  0.5143
24333W        W40467   8.929  12.660  11.916 -0.1123  0.0142 -0.2414
24334W        W40468   2.760   7.098  13.650  0.1513 -0.0064 -0.3493
24335W        W40469   9.505  15.054   5.716  0.0883  0.0055  0.0348
24336W        W40470   4.696   6.857  10.957 -0.0925 -0.1431 -0.0260
24337W        W40471   5.005  13.595  15.671 -0.0184 -0.1781 -0.0608
24338W        W40472  12.294   0.757   0.956 -0.1140  0.1797  0.2118
24339W        W40473  15.873  12.925   3.900  0.0428 -0.1504 -0.0493
24340W        W40474   7.780  12.376  13.895  0.2399  0.2689 -0.1118
24341W        W40475  11.664  15.987   4.433 -0.2091  0.2282  0.1098
24342W        W40476  14.369   1.267   3.538  0.1459  0.0561 -0.3368
24343W        W40477   3.171   4.498  15.595  0.0751  0.0278  0.0876
24344W        W40478  14.684  12.269   2.383  0.3400  0.1894 -0.0504
24345W        W40479   1.548  12.646   9.170 -0.0339 -0.3178  0.2593
24346W        W40480   5.715   2.654   0.327 -0.0724 -0.1322 -0.0734
24347W        W40481   7.270  12.011  13.998  0.2507  0.1832 -0.0188
24348W        W40482  18.427   8.957   4.061 -0.1540  0.0738 -0.0849
24349W        W40483  15.469  16.747  14.024  0.3452  0.2196  0.3808
24350W        W40484   8.804   4.336   5.827  0.1029  0.0070  0.2185
24351W        W40485   3.965  14.559   3.841 -0.3144  0.3211  0.2539
24352W        W40486  13.758   7.407  13.867 -0.0371  0.2103 -0.2263
24353W        W40487   3.739  16.242  15.167  0.1285 -0.1508  0.0775
24354W        W40488   8.209  10.795   3.047  0.3043  0.1514  0.0340
24355W        W40489  14.459   2.537   3.489  0.1113  0.1852  0.1261
24356W        W40490   6.441   9.877  13.871  0.1342  0.0608  0.2189
24357W        W40491  18.211   9.202  14.098 -0.0598 -0.1757 -0.0210
24358W        W40492  13.857   3.982   0.300 -0.1582 -0.3553  0.1250
24359W        W40493  13.603  16.478   2.768  0.1037  0.2380 -0.0088
24360W        W40494  16.080   7.298   2.693 -0.0166  0.2029 -0.4326
24361W        W40495   6.296  17.156   0.507 -0.1446  0.0021 -0.0497
24362W        W40496   2.482   1.111  13.391  0.0060  0.1614 -0.1072
24363W        W40497   1.302  11.417   5.215  0.1644 -0.1199 -0.2504
24364W        W40498   3.404   9.353   1.210  0.1092 -0.1646  0.3663
24365W        W40499   0.161   2.780   3.636 -0.0097  0.1383  0.3139
24366W        W40500   4.370  10.751  14.967  0.1751 -0.0711  0.4707
24367W        W40501  16.331  12.733   5.735  0.0066  0.0440 -0.0939
24368W        W40502   3.846  10.499   2.768  0.3896  0.0171  0.3941
24369W        W40503   7.492  15.445  14.609  0.0184 -0.4016  0.1393
24370W        W40504   2.780  15.168   0.109 -0.0145 -0.1071  0.0392
24371W        W40505  11.249   8.906  15.398  0.0058 -0.0248  0.2461
24372W        W40506  16.877   3.352  15.024  0.0319  0.2370  0.0292
24373W        W40507  16.226   0.442   4.277  0.0893  0.2456 -0.0193
24374W        W40508  14.044   3.935   1.230 -0.0549  0.0937  0.1158
24375W        W40509   8.728   1.798   1.350  0.0282 -0.0884 -0.3939
24376W        W40510  15.885  13.847   0.645 -0.1617 -0.0954  0.1212
24377W        W40511  16.451  10.218   0.368  0.3857 -0.0732  0.1040
24378W        W40512   0.598   2.503   4.998 -0.0054 -0.3046 -0.0621
24379W        W40513   9.093   7.590  12.246 -0.0337 -0.0635  0.1237
24380W        W40514   5.296   2.586   3.756  0.0847  0.0935 -0.3333
24381W        W40515   6.302   5.236  13.137 -0.0747 -0.0906 -0.1738
24382W        W40516  15.004  17.758   3.368 -0.2979  0.0711 -0.1249
24383W        W40517   1.045  13.008  11.765  0.0696 -0.1327 -0.1904
24384W        W40518   4.748  14.578  15.911 -0.0280 -0.3079 -0.0236
24385W        W40519  12.762  14.474  14.311 -0.0791  0.1183 -0.1513
24386W        W40520  12.854  10.974   0.743 -0.0037 -0.0710 -0.1903
24387W        W40521   3.922   4.555   3.504 -0.1875  0.0240  0.1088
24388W        W40522   2.759   7.251   3.020 -0.1649 -0.1199  0.0138
24389W        W40523   5.697  11.336  14.726 -0.0754  0.2297  0.0244
24390W        W40524   6.986   9.594  14.649 -0.3810  0.1405  0.0071
24391W        W40525  13.792   2.715   3.466  0.3451  0.0482  0.0689
24392W        W40526   1.221   9.227  11.858  0.2337  0.0380  0.1064
24393W        W40527   3.050   4.546   2.829 -0.0222  0.0732 -0.1108
24394W        W40528   3.123  13.121  14.169 -0.2316  0.1630  0.3921
24395W        W40529   6.258   6.227  11.749  0.2518 -0.2257  0.0148
24396W        W40530  11.635   0.864   3.940 -0.1030  0.1394  0.0093
24397W        W40531  10.999  14.696  14.556  0.4079 -0.0155 -0.0850
24398W        W40532  11.564   7.569  13.781 -0.0617  0.1819  0.1987
24399W        W40533   4.017   6.960  14.458  0.3063 -0.0813 -0.2219
24400W        W40534  17.458   0.572  13.952 -0.1294 -0.0560  0.0725
24401W        W40535  16.895  14.100   0.657  0.0204 -0.1065 -0.0694
24402W        W40536  11.446   4.147   0.798 -0.0368  0.0368  0.0432
24403W        W40537   3.030  11.127   2.998  0.2804  0.1935 -0.1811
24404W        W40538  11.241   4.835  14.591  0.2139 -0.0329 -0.1917
24405W        W40539   3.322  16.138  11.940  0.2419 -0.3455 -0.2267
24406W        W40540  15.621   7.529  14.944 -0.0261  0.1328 -0.1479
24407W        W40541  12.375   1.379  13.577 -0.0169 -0.0368  0.0223
24408W        W40542   6.655   7.584   5.442  0.1168  0.0848 -0.0522
24409W        W40543   4.912   0.095   0.334 -0.1586 -0.0324 -0.0426
24410W        W40544   7.421   9.542   3.222 -0.3437  0.5253  0.3166
24411W        W40545  16.693  14.619  12.921  0.0616 -0.0187  0.1218
24412W        W40546   7.807   9.146  13.373  0.3524 -0.0061  0.2596
24413W        W40547   2.139  14.138  14.266 -0.1411 -0.2551 -0.4189
24414W        W40548  10.300  14.314  15.011  0.3243 -0.1018  0.0253
24415W        W40549  14.698   5.813  15.353 -0.1982  0.0260  0.3317
24416W        W40550  14.358  13.732   2.750 -0.1134 -0.0543 -0.3593
24417W        W40551  12.352   0.821  15.033 -0.0597 -0.0276  0.4185
24418W        W40552   1.299  16.518  11.195 -0.0139 -0.4059  0.1711
24419W        W40553   9.619   8.100   2.132  0.4094  0.3193  0.3893
24420W        W40554   5.309  10.634  15.173  0.1581  0.2932 -0.1839
24421W        W40555  17.996   1.950  10.808 -0.1010  0.0469  0.1036
24422W        W40556   5.420   1.471  14.584 -0.1796  0.2076 -0.1556
24423W        W40557   3.383  11.407   9.877 -0.0623 -0.2943  0.1968
24424W        W40558   4.511  12.330  15.048 -0.3445  0.0325 -0.1793
24425W        W40559  15.760   7.054   5.500  0.0470  0.3130  0.0434
24426W        W40560  15.617   7.394   1.766  0.2140 -0.1278  0.0423
24427W        W40561   7.484   5.041   2.166 -0.0017 -0.1028 -0.2102
24428W        W40562  11.900   5.453   2.673 -0.1882  0.0878 -0.1520
24429W        W40563  15.726   1.499   4.984 -0.1081  0.2014  0.1327
24430W        W40564   6.463  17.651   0.622 -0.2026 -0.3098 -0.2583
24431W        W40565   5.063   7.537  15.112 -0.1318  0.1524  0.1862
24432W        W40566   9.129  17.860   1.025  0.0470 -0.0346 -0.4034
24433W        W40567  16.943   8.871  12.299 -0.2702 -0.0472  0.0251
24434W        W40568  18.331   1.962   4.796 -0.1038 -0.1934  0.1412
24435W        W40569  12.059  10.046  15.550 -0.0897  0.0570  0.1457
24436W        W40570   0.679   4.034  11.937 -0.1465  0.3505 -0.2186
24437W        W40571   3.124   4.255  11.203 -0.4541  0.1429 -0.0079
24438W        W40572  10.392  15.013  12.581 -0.2792  0.5156 -0.3307
24439W        W40573   3.831   7.446  14.338 -0.0242 -0.2198 -0.2315
24440W        W40574   6.953   5.752  15.645  0.3607 -0.0728 -0.2423
24441W        W40575  10.621  17.705   5.419  0.1613 -0.1323 -0.2131
24442W        W40576  10.491   0.002   3.153  0.3663  0.1149 -0.1087
24443W        W40577  12.394  10.438   0.165  0.2030 -0.0271 -0.0038
24444W        W40578   1.131  12.265  12.948 -0.0454  0.1281  0.2306
24445W        W40579   7.370  18.348   3.581  0.0196 -0.0356  0.0873
24446W        W40580   3.323   0.776  12.900 -0.1173  0.2555  0.0199
24447W        W40581   9.838   0.701   0.591 -0.0677 -0.3275 -0.0053
24448W        W40582   3.865  18.062   0.417 -0.0145 -0.1873  0.0883
24449W        W40583  13.355  14.255  15.297  0.1439 -0.0189 -0.0356
24450W        W40584  13.254  12.335  14.050  0.1422  0.0192  0.0633
24451W        W40585  10.339  16.257   3.448 -0.0481  0.3090 -0.0749
24452W        W40586   4.676   7.983  10.643 -0.3013 -0.0501 -0.2090
24453W        W40587  15.946  14.783  11.121 -0.0649 -0.4086  0.1563
24454W        W40588  13.318  17.591  14.188  0.0196 -0.1939  0.1073
24455W        W40589   6.805   0.085  12.655 -0.3605 -0.1508  0.1575
24456W        W40590   4.652   3.948   2.519  0.2092  0.0791 -0.1192
24457W        W40591  13.754   1.831   3.552 -0.0198 -0.0862 -0.1022
24458W        W40592   0.404   7.975  12.289  0.1892  0.2865 -0.1561
24459W        W40593  17.361  12.393  12.615  0.1797 -0.0319 -0.2759
24460W        W40594   5.755  17.900   1.277  0.3303 -0.1823  0.1122
24461W        W40595  16.566   6.897   1.765 -0.2407 -0.1307  0.1398
24462W        W40596   6.562  11.210   4.771 -0.1765  0.1230 -0.3223
24463W        W40597  16.201   6.664   1.521  0.1653  0.2412 -0.1590
24464W        W40598  13.776  11.530   2.841  0.0700  0.1140  0.0028
24465W        W40599  16.095   4.139   1.566  0.0038  0.1477 -0.4559
24466W        W40600  11.743   0.791   1.677  0.1079 -0.0018  0.1300
24467W        W40601   4.895   0.011  14.051  0.1053  0.0217  0.1401
24468W        W40602   6.421   2.132  12.183 -0.0192 -0.3470  0.1055
24469W        W40603   7.881   0.327   0.744  0.0363  0.0020  0.1847
24470W        W40604  11.335   1.203  12.208 -0.1799 -0.1561 -0.1738
24471W        W40605   7.048  11.415  15.736  0.0410 -0.1171  0.0395
24472W        W40606  15.257  18.001  11.767 -0.0475  0.0694 -0.1068
24473W        W40607  16.499  17.680   3.234 -0.0107 -0.1703 -0.1196
24474W        W40608  13.341   8.131   2.915  0.2342  0.2432 -0.2702
24475W        W40609   6.867  15.025  11.326  0.1408 -0.0505  0.0228
24476W        W40610  10.918   8.045  12.529  0.0224  0.1938 -0.0326
24477W        W40611   5.068  17.121  12.681  0.0701 -0.0385  0.3305
24478W        W40612   7.197  17.904  15.456  0.0161  0.0050  0.0277
24479W        W40613   5.098  17.410   4.246  0.1236  0.0709  0.1342
24480W        W40614   2.077   0.434   5.214  0.0850 -0.0637  0.1064
24481W        W40615   7.305   2.441  13.758  0.3574  0.0403  0.0146
24482W        W40616   0.805  10.865   3.088 -0.1031 -0.1532 -0.0323
24483W        W40617  16.005  15.440  15.683 -0.1762  0.0574 -0.2670
24484W        W40618   1.599   4.622  11.044  0.1132 -0.3725  0.1752
24485W        W40619  17.048   8.835   1.480 -0.0635 -0.0318 -0.2505
24486W        W40620   5.246   0.365   2.278  0.0074  0.3235  0.0992
24487W        W40621  15.933   3.792   1.219 -0.2929  0.0597  0.0470
24488W        W40622  10.948   0.677  13.896  0.3627  0.0935 -0.2695
24489W        W40623   4.206   8.635  11.326 -0.0142  0.0797  0.1466
24490W        W40624   3.836  17.234   0.019  0.0543  0.0150 -0.0629
24491W        W40625   5.452  18.009  12.071  0.0469 -0.1265 -0.2239
24492W        W40626   9.376  14.387   3.263 -0.1346 -0.0528  0.2213
24493W        W40627  13.081  18.374  15.544 -0.2285  0.3115  0.1288
24494W        W40628  10.650   9.140   0.749  0.0063  0.0992 -0.1055
24495W        W40629  15.072  16.192   1.590  0.1599  0.0686  0.2566
24496W        W40630   4.466   9.010  15.444 -0.2625  0.1195  0.4834
24497W        W40631  10.236   1.957  13.768 -0.4595 -0.1919 -0.0004
24498W        W40632   1.851  10.933   3.096  0.0593 -0.2673 -0.1022
24499W        W40633   8.209   9.326  14.555  0.2077 -0.4713  0.0108
24500W        W40634   3.417  16.066   4.425 -0.3801  0.3677  0.0947
24501W        W40635   9.817   9.202   3.972 -0.0189  0.1131 -0.1935
24502W        W40636   9.846   7.130   0.936  0.0133 -0.0221  0.1150
24503W        W40637  11.974   2.438  12.289 -0.0775 -0.1856  0.1362
24504W        W40638   1.289  14.048   3.359  0.1096 -0.1154 -0.0026
24505W        W40639   9.369   9.407  13.106  0.4176 -0.2789  0.3248
24506W        W40640  14.587  18.365   1.989  0.0431  0.3252  0.1821
24507W        W40641   2.862  16.318  14.168  0.1267 -0.0627  0.0294
24508W        W40642   4.653   4.073  11.290  0.0243  0.0883 -0.2606
24509W        W40643   4.207  13.915  15.249 -0.1115  0.0544 -0.2693
24510W        W40644   5.976  13.561  13.787  0.1042 -0.0341  0.2739
24511W        W40645  12.597  15.281   4.443 -0.1351  0.1303  0.0719
24512W        W40646   1.869   5.326   2.419  0.0148 -0.0120 -0.3197
24513W        W40647  16.065  15.506   1.632 -0.1989  0.1390  0.0496
24514W        W40648   6.935  11.486   1.543 -0.4911 -0.2488 -0.2394
24515W        W40649   1.027  13.486   2.582 -0.2865  0.0053  0.1376
24516W        W40650  14.908   9.518   1.927 -0.0694 -0.0146  0.2865
24517W        W40651  17.180  12.800  11.182 -0.1520 -0.1393 -0.0891
24518W        W40652   9.077  12.329  14.777 -0.1103 -0.3721 -0.1587
24519W        W40653  12.261  16.714   4.597 -0.2763  0.0328  0.2996
24520W        W40654   9.289   7.064  13.768  0.2808  0.0443  0.1116
24521W        W40655   8.758   9.440   4.692  0.2377 -0.0659 -0.0879
24522W        W40656   0.606   2.646   9.712 -0.0026 -0.2365  0.2999
24523W        W40657  15.257  13.140   3.433 -0.0057  0.0113 -0.1343
24524W        W40658  18.250   8.695   3.608  0.4183 -0.1172 -0.0095
24525W        W40659  11.079   5.377  13.805 -0.0425 -0.3116 -0.0420
24526W        W40660  18.477   7.930  13.709  0.1791  0.1182  0.0994
24527W        W40661  17.594   2.324  10.980  0.2168 -0.2198 -0.0321
24528W        W40662   9.532  16.402  14.862 -0.0842 -0.2365 -0.1721
24529W        W40663   6.849   7.418   2.383  0.1116  0.1844  0.1875
24530W        W40664   4.372  16.823   4.045  0.2937 -0.2954 -0.1820
24531W        W40665  15.813   1.840  11.474  0.3774  0.1059  0.0888
24532W        W40666   0.341  16.981  14.533  0.0254  0.2021  0.1514
24533W        W40667  16.782   6.449   3.515  0.2428  0.3716 -0.0562
24534W        W40668   1.992   4.753   1.391  0.1168 -0.0457 -0.1065
24535W        W40669  12.498  15.276   0.088 -0.3426 -0.1989 -0.1902
24536W        W40670   0.629   0.837  11.778  0.0184  0.2026  0.0439
24537W        W40671   5.553   0.106   0.420  0.3151  0.1590 -0.0736
24538W        W40672   8.762   4.505   2.380 -0.1009  0.3795  0.0482
24539W        W40673   1.646  10.856  14.657 -0.0782 -0.0441  0.0115
24540W        W40674  16.283   1.541  13.986 -0.0033 -0.1126  0.3701
24541W        W40675   0.925   0.255  12.600 -0.0274  0.2980  0.2646
24542W        W40676   5.986   9.061  13.985 -0.3863 -0.2600 -0.3010
24543W        W40677   3.016  10.622  15.716 -0.2146 -0.2165 -0.0120
24544W        W40678   4.204  15.024  12.194  0.0948 -0.1582  0.0343
24545W        W40679  15.430   5.094   3.376 -0.1580 -0.0518  0.2694
24546W        W40680   1.869   0.853  10.623 -0.0050 -0.0862 -0.1903
24547W        W40681   7.402   8.923  13.078  0.0273  0.1360 -0.2217
24548W        W40682  18.443   6.011   3.409  0.0148 -0.1020 -0.0087
24549W        W40683   4.311   0.749   1.526 -0.3534  0.0863 -0.1453
24550W        W40684   4.629   9.888   2.512 -0.1001  0.2054  0.1974
24551W        W40685  11.918  12.385   4.613 -0.0340 -0.1308  0.0559
24552W        W40686  14.193   8.740   4.895 -0.2788 -0.3558  0.0105
24553W        W40687   3.300  15.436   0.819  0.0300  0.1465 -0.0598
24554W        W40688   5.669  10.387   4.431  0.2962  0.1132 -0.2588
24555W        W40689  15.916  14.375  10.801  0.2309 -0.4036  0.1437
24556W        W40690  13.720  12.536   1.341 -0.0553 -0.1835 -0.0575
24557W        W40691   0.622  14.446   2.707  0.1225 -0.0103 -0.0962
24558W        W40692   6.172   1.388   1.134 -0.2180 -0.0897 -0.0351
24559W        W40693   7.180  15.383   2.245  0.0006  0.2176  0.3110
24560W        W40694   2.723  16.175   1.829  0.0950 -0.1810  0.0232
24561W        W40695   0.174   9.057  14.206  0.3866  0.0715 -0.0813
24562W        W40696   2.322  13.068  11.465 -0.0328 -0.0097 -0.0856
24563W        W40697  17.714  13.139   1.804 -0.1801 -0.0223 -0.1975
24564W        W40698   5.138  12.294  14.658 -0.1318 -0.0404 -0.0054
24565W        W40699  15.476   4.917   1.899 -0.5301  0.1330  0.0801
24566W        W40700   9.799   1.001   3.796 -0.2907  0.0539 -0.0332
24567W        W40701   1.841   9.011  10.968  0.2560  0.1476 -0.0273
24568W        W40702   6.988  16.475  15.365  0.1645  0.1912 -0.0658
24569W        W40703   0.263   8.796   2.812  0.1197  0.0578 -0.1792
24570W        W40704  10.907   9.148   3.998  0.1964  0.0859  0.2641
24571W        W40705  14.426   2.283   3.909  0.0785  0.1225 -0.1556
24572W        W40706  13.857  15.826   3.503  0.0469 -0.1000  0.0561
24573W        W40707  15.143   1.956   2.994 -0.0734 -0.1086 -0.2390
24574W        W40708  11.602  17.660  13.261  0.2299  0.1248  0.0495
24575W        W40709   1.882   0.127  13.349  0.0888  0.0850 -0.0904
24576W        W40710   6.856   2.382   4.805  0.0458 -0.1231  0.0598
24577W        W40711  15.277  11.833  12.075  0.2669 -0.6268 -0.2253
24578W        W40712   2.874  11.700  15.975  0.1067  0.2380  0.1017
24579W        W40713   6.168  12.434  10.277  0.0480 -0.2493  0.1442
24580W        W40714  15.431   2.042  12.221 -0.0255 -0.0610 -0.0720
24581W        W40715  14.118  14.006   1.897 -0.1747  0.0104 -0.1250
24582W        W40716   4.985  15.494  14.972 -0.1889 -0.1066  0.0543
24583W        W40717   8.689  17.274  12.552 -0.0735 -0.2605  0.1263
24584W        W40718   0.770   7.460  13.488  0.1118  0.2069 -0.0817
24585W        W40719   5.872  15.819   3.128 -0.1110 -0.1063 -0.2572
24586W        W40720   1.768   6.523   4.655 -0.1948 -0.2795 -0.1164
24587W        W40721  15.456   8.487   2.640  0.2372 -0.1390 -0.1197
24588W        W40722   6.210  16.989   2.400 -0.1369  0.1658 -0.0291
24589W        W40723  12.798  12.461   1.273  0.1955  0.0282 -0.2104
24590W        W40724   0.428   3.658   5.691 -0.1224 -0.0028 -0.2904
24591W        W40725   9.015   1.938  11.838  0.0680 -0.1317  0.1287
24592W        W40726   0.766   6.699  11.358  0.0672 -0.0071 -0.2139
24593W        W40727  18.451   7.621  10.957  0.2146 -0.1782  0.2593
24594W        W40728   5.931  13.734  10.849  0.1092  0.0457 -0.2394
24595W        W40729  12.307   8.648  15.290 -0.1001  0.5609  0.2641
24596W        W40730   5.150  17.694   5.550 -0.1632 -0.1480  0.1145
24597W        W40731   0.733  14.948  14.711  0.1286 -0.0818  0.0465
24598W        W40732   9.018  10.385  14.431 -0.2083 -0.4518 -0.0534
24599W        W40733   5.339  14.279  15.813 -0.2490 -0.2092 -0.0998
24600W        W40734  12.146  11.198   5.264  0.0784  0.3021 -0.2172
24601W        W40735   4.654  15.069   2.816 -0.0682 -0.1670 -0.2824
24602W        W40736   1.512  17.014   3.606  0.2698 -0.1357  0.0141
24603W        W40737  18.189  16.735   4.242 -0.1975 -0.1933  0.0182
24604W        W40738  17.723   3.651   1.928 -0.0258  0.2222  0.2198
24605W        W40739   5.003   3.484  15.464 -0.0954  0.3396 -0.1141
24606W        W40740   5.556   3.846  11.392  0.1247 -0.0466 -0.4282
24607W        W40741  12.551  17.057  13.732  0.1591 -0.1746  0.1253
24608W        W40742   7.272  12.068   0.369  0.1719  0.2631 -0.0896
24609W        W40743   0.072  11.450   5.795  0.6130 -0.0655  0.2361
24610W        W40744   1.486   5.537  14.863 -0.1338  0.1424  0.2664
24611W        W40745   1.566   8.358  10.372 -0.0042 -0.0923 -0.0734
24612W        W40746   9.948   9.973   5.028  0.0387  0.0178 -0.0288
24613W        W40747   1.379  12.127  11.966  0.2365  0.1622 -0.0389
24614W        W40748   2.126   4.378  12.787  0.3016  0.2739  0.0484
24615W        W40749   8.664   1.707  14.209 -0.0246  0.0046  0.1405
24616W        W40750  14.575  14.557  13.025 -0.0986 -0.3484  0.0740
24617W        W40751   0.889   4.035   0.809 -0.5377 -0.1220 -0.2776
24618W        W40752  14.595  12.887  12.232  0.2739 -0.3220  0.2619
24619W        W40753  13.429  15.461   1.543  0.1511  0.1041 -0.0579
24620W        W40754   8.621   6.845   4.019 -0.0128  0.2579  0.2553
24621W        W40755   6.457  13.131   1.010 -0.1803 -0.0663 -0.2222
24622W        W40756  14.471  15.789   3.550  0.1153  0.2067 -0.1444
24623W        W40757  11.571  17.969   0.083 -0.0477 -0.2699  0.1085
24624W        W40758  12.573  13.830  11.647 -0.1140  0.0318  0.1001
24625W        W40759   6.234  14.350   3.799 -0.0631 -0.3633  0.1853
24626W        W40760  11.005   3.591   3.789 -0.0630 -0.3439 -0.0202
24627W        W40761   6.037  10.719  14.628  0.0031 -0.1298  0.3362
24628W        W40762  15.812   1.978   0.673 -0.2285 -0.1835  0.2533
24629W        W40763   2.488  16.251  15.737 -0.0047 -0.0300 -0.0857
24630W        W40764   7.819   0.862  14.156 -0.0558 -0.0424 -0.1133
24631W        W40765  12.575   0.781  16.047  0.0569  0.2102  0.0336
24632W        W40766  17.244   0.229   3.582 -0.3086  0.1852 -0.1361
24633W        W40767   4.672  17.840  13.916  0.0515 -0.0392 -0.3163
24634W        W40768   7.286  15.653   0.506  0.1094  0.0255  0.2188
24635W        W40769  10.065   8.258  13.507 -0.0738 -0.0806 -0.0406
24636W        W40770   4.858  13.966  10.160  0.0973  0.0704  0.1375
24637W        W40771  10.848   6.446  14.895 -0.1349  0.1261  0.0162
24638W        W40772  10.754   9.951   4.470  0.2604 -0.4432 -0.1366
24639W        W40773  16.040  10.423  11.302 -0.1539  0.0596 -0.3245
24640W        W40774   1.359  11.677   0.148 -0.2618  0.1300 -0.3917
24641W        W40775  15.864   7.884  13.807  0.1358 -0.0564  0.0826
24642W        W40776   1.526  10.260  14.264  0.0843  0.0194 -0.2490
24643W        W40777  17.120   8.239  15.577  0.1966  0.1637  0.1776
24644W        W40778  14.351   6.841  11.919 -0.2459 -0.0072  0.2188
24645W        W40779   1.935  14.989   2.773 -0.0905  0.3266  0.2096
24646W        W40780  10.205   7.141  11.746  0.0119  0.0347 -0.0934
24647W        W40781   7.239   0.672   3.707 -0.1551  0.2372  0.1564
24648W        W40782  17.724  17.147   4.359  0.0158 -0.1370 -0.4941
24649W        W40783  13.594  11.219   0.487 -0.3057  0.0116  0.0387
24650W        W40784   3.492   5.566   3.587 -0.0183 -0.3873 -0.1686
24651W        W40785   8.096  17.087   3.612 -0.3866 -0.2010  0.1330
24652W        W40786   4.617  15.817  15.020  0.3130  0.1670  0.5136
24653W        W40787  13.990  12.618  14.700 -0.1374  0.2342  0.1054
24654W        W40788   1.735  16.302   2.665  0.0099  0.0902  0.0503
24655W        W40789  13.689   6.672  15.796 -0.2655  0.1935  0.2363
24656W        W40790   0.602  11.786  15.159 -0.3230 -0.0021 -0.0509
24657W        W40791  13.568   1.212   4.747  0.0483 -0.0289 -0.0855
24658W        W40792   0.317   5.359  10.693  0.2790  0.1676 -0.5317
24659W        W40793  17.282   9.757  12.370 -0.2204 -0.0653 -0.0639
24660W        W40794  15.721  17.686  14.641  0.2043  0.0295  0.1964
24661W        W40795  11.056  16.934   3.493  0.1855  0.1975  0.1327
24662W        W40796   1.529  17.355  13.959 -0.0185  0.2971  0.1354
24663W        W40797   0.951  18.503   4.586  0.1326  0.1277  0.1358
24664W        W40798   7.033  12.893  11.447  0.0855  0.0124  0.0533
24665W        W40799  13.843   3.746  12.181 -0.0728 -0.2104 -0.3019
24666W        W40800   2.691   0.703   2.780 -0.0578 -0.0935 -0.1788
24667W        W40801   0.482   9.501  15.677  0.0728 -0.1697 -0.2166
24668W        W40802   4.081  17.863   3.304  0.0797  0.0341 -0.2753
24669W        W40803  16.349  17.506  11.641 -0.0807  0.1014 -0.1452
24670W        W40804  18.202   5.828   2.161  0.3584  0.3146 -0.0609
24671W        W40805   2.078   5.775   2.285 -0.3343  0.0049 -0.1702
24672W        W40806  17.051  16.846   3.444  0.2512  0.0892  0.0602
24673W        W40807  16.341  14.879   2.769 -0.0665  0.1981  0.1891
24674W        W40808   8.314  10.130  15.206 -0.2541  0.1121  0.2907
24675W        W40809   7.572   5.923   5.044  0.0042 -0.1898 -0.0840
24676W        W40810   4.220  14.731   1.553  0.1671 -0.0581 -0.2643
24677W        W40811   4.831   4.928   0.627 -0.2194 -0.1359  0.1388
24678W        W40812   2.403  14.533   4.897  0.1013  0.0284  0.2044
24679W        W40813  10.959  17.984  13.496  0.0718  0.2963  0.0987
24680W        W40814   5.115   9.263  12.122 -0.1224  0.1409 -0.0922
24681W        W40815  10.575   4.200   5.092  0.2871  0.1117 -0.0565
24682W        W40816  13.101  16.852   3.532 -0.1927  0.0561  0.0322
24683W        W40817   7.879   4.693  15.168  0.0799 -0.2318  0.0156
24684W        W40818   5.243   7.051   0.834  0.2094  0.1627 -0.1074
24685W        W40819  17.673  16.467   3.083 -0.1382  0.0665  0.1969
24686W        W40820   1.036   6.555   4.052  0.0687 -0.1523 -0.2029
24687W        W40821  10.859   4.662  11.923  0.5212  0.2295  0.0864
24688W        W40822   1.541   0.451   3.590  0.2627 -0.2878 -0.2030
24689W        W40823  14.059   9.483  13.823  0.0825 -0.0816  0.2420
24690W        W40824  11.264   0.860   1.392  0.1521 -0.2501 -0.0900
24691W        W40825   1.375   3.450   1.555  0.1322  0.0385 -0.1636
24692W        W40826  14.620   0.847   2.381 -0.0636  0.1843 -0.1786
24693W        W40827  17.563   8.173  11.491 -0.0001  0.1118  0.0116
24694W        W40828  14.149  12.201   1.416 -0.1571 -0.0445  0.0841
24695W        W40829   5.434   0.080   2.835 -0.3278  0.3417  0.0761
24696W        W40830   4.260   2.742  13.138  0.0511  0.2019  0.4198
24697W        W40831   3.881   6.147  12.008 -0.0473 -0.2187  0.3364
24698W        W40832   0.259  13.344  12.436  0.3109  0.4658 -0.0046
24699W        W40833  16.638  14.153   4.341  0.0046  0.2168 -0.0449
24700W        W40834   2.481   6.891   3.320 -0.0521 -0.1179  0.0744
24701W        W40835  11.245   8.228   0.002 -0.1440  0.1037  0.1824
24702W        W40836  14.087   0.883  10.278 -0.0396  0.0932  0.2353
24703W        W40837   2.820  18.182   3.227 -0.2470  0.0760 -0.1044
24704W        W40838   5.237  17.139  12.211  0.6473 -0.2317  0.2848
24705W        W40839  10.120   6.820  15.090 -0.0948  0.3456 -0.2009
24706W        W40840   4.431   7.875  11.872 -0.0448  0.0366 -0.3062
24707W        W40841   3.805  16.806   4.508  0.0711  0.4224 -0.1775
24708W        W40842   9.280   7.006   6.085 -0.1269 -0.1274  0.1315
24709W        W40843   3.612  16.668  14.837 -0.0441 -0.0714 -0.0554
24710W        W40844  13.009   3.314  13.193 -0.1035 -0.1899 -0.0747
24711W        W40845  12.487   5.785  11.560 -0.1197 -0.1635  0.0843
24712W        W40846   3.894   1.898   0.885 -0.2545  0.3980 -0.3463
24713W        W40847   6.534   3.375  13.994  0.0798  0.2944  0.2474
24714W        W40848  13.260   3.528   2.391  0.0456 -0.0728  0.1185
24715W        W40849   9.014  15.127   1.288 -0.0572  0.2517 -0.3348
24716W        W40850   5.663   2.984   3.048  0.0339 -0.1177  0.2965
24717W        W40851   8.193  13.440   4.890 -0.0836 -0.0703  0.0195
24718W        W40852   2.039   7.672  10.574  0.1080  0.0822  0.2147
24719W        W40853   5.950   5.381   6.120  0.0924 -0.0289  0.0242
24720W        W40854  14.819   6.572  13.020  0.0541  0.3730  0.0810
24721W        W40855  17.150   9.182  15.887 -0.0733 -0.2341  0.1258
24722W        W40856   8.775   4.205   3.315  0.2683 -0.2180 -0.3519
24723W        W40857   4.973  17.899  11.370 -0.0714  0.0418  0.1394
24724W        W40858   4.941   1.408   5.626 -0.3657  0.1343  0.3465
24725W        W40859  10.279   2.048   5.902  0.4431 -0.0622 -0.1090
24726W        W40860  16.146   3.422   2.600  0.1702  0.0630 -0.2909
24727W        W40861   6.953   8.970   4.400 -0.3929  0.2245 -0.0512
24728W        W40862  14.309  18.463  12.063  0.0426 -0.1651  0.2058
24729W        W40863   7.205   7.724   2.683 -0.1976 -0.1235  0.1189
24730W        W40864  15.169  12.239   2.590 -0.0650  0.0201  0.4371
24731W        W40865  17.790   1.318  14.859 -0.0196  0.0111 -0.3311
24732W        W40866   7.801  12.129   2.009  0.0605 -0.0107  0.3234
24733W        W40867   2.197   9.372   4.665 -0.4398 -0.0062  0.2505
24734W        W40868   7.291  10.878  10.285  0.2751  0.2617 -0.3669
24735W        W40869  14.319   1.025  12.484 -0.0109 -0.0395 -0.0023
24736W        W40870  10.728  11.766   4.103  0.1190 -0.2760  0.1753
24737W        W40871   0.445   1.817   1.656  0.1777  0.0963  0.0991
24738W        W40872   9.922   3.377   3.186  0.1871 -0.1855 -0.2339
24739W        W40873  14.640   4.557  15.562 -0.2332  0.2175  0.2035
24740W        W40874  16.862  11.955  10.892 -0.2052 -0.1428 -0.0144
24741W        W40875  11.461   2.059  12.063  0.0740  0.1939 -0.0051
24742W        W40876  12.884   9.784  13.700  0.0517  0.1037 -0.4636
24743W        W40877   2.430   3.904   4.258 -0.1525  0.1193  0.0913
24744W        W40878  10.701   8.281  11.299  0.0262  0.2959  0.1221
24745W        W40879   1.092   5.458  11.367  0.1877  0.0322 -0.0403
24746W        W40880   4.068   2.339   3.802 -0.0059  0.1440  0.0856
24747W        W40881  18.502   3.496  11.850 -0.0231  0.0105 -0.1318
24748W        W40882  10.404   1.055   4.839  0.1418  0.0191  0.2735
24749W        W40883   2.086  18.333   2.652 -0.1229 -0.1671  0.4531
24750W        W40884  14.409  14.571   3.455  0.1812  0.4386  0.1154
24751W        W40885   1.187  15.452   0.086  0.2562  0.1542  0.0254
24752W        W40886   4.494  13.694   3.913 -0.1142 -0.0305 -0.0614
24753W        W40887   0.218  11.002   1.124 -0.1085 -0.0311  0.0171
24754W        W40888   1.489   7.835   3.103  0.2682 -0.1640  0.2283
24755W        W40889  11.982  17.659   0.527  0.0762 -0.1361  0.0845
24756W        W40890   2.741  12.034  13.537  0.0106  0.2836 -0.3586
24757W        W40891  15.270  18.214   3.816 -0.0453 -0.0445 -0.1253
24758W        W40892   9.645   1.450   2.979  0.0907  0.0940 -0.0830
24759W        W40893  17.667   5.055   4.096 -0.0706 -0.0010  0.0959
24760W        W40894  13.157  18.020   3.993  0.0265 -0.1690 -0.2115
24761W        W40895  11.514   6.487  15.412 -0.2573  0.2178  0.2386
24762W        W40896   3.352   0.567  14.250 -0.2691 -0.1963 -0.1287
24763W        W40897   6.046   0.598  14.433  0.0952  0.0817  0.1592
24764W        W40898   1.642   9.034   3.408  0.2533 -0.1313  0.0953
24765W        W40899   8.542   7.567   0.734 -0.0329  0.1729  0.0606
24766W        W40900   3.552   9.781  15.717 -0.0178  0.0713  0.0635
24767W        W40901   9.917   6.604   1.726 -0.0001 -0.1189 -0.2701
24768W        W40902  11.841   9.626  14.504 -0.2222  0.3836  0.0613
24769W        W40903   7.310   4.094  14.965 -0.0752  0.1575  0.3556
24770W        W40904   9.752   2.823  14.259 -0.1917 -0.1249 -0.1280
24771W        W40905  12.927   4.791  13.136  0.3275 -0.0185  0.0107
24772W        W40906   6.972   3.600   3.418  0.0579  0.0146 -0.0650
24773W        W40907  17.987  17.825  15.234  0.2361  0.0824 -0.1954
24774W        W40908  14.896  12.305  14.801 -0.1309 -0.0682  0.1127
24775W        W40909  15.749   0.914   3.279 -0.0616 -0.0893  0.3319
24776W        W40910   2.981   1.906   5.312 -0.0769  0.3367 -0.4033
24777W        W40911  16.238  16.151  13.592 -0.0710 -0.0959 -0.1970
24778W        W40912   6.258   8.398  12.239  0.0809  0.0573 -0.1406
24779W        W40913   6.603  15.288  12.185  0.0180  0.3020  0.0523
24780W        W40914  14.913   8.288   4.108  0.2267 -0.1142 -0.1199
24781W        W40915   8.148   3.726   1.934 -0.2359 -0.1396  0.0520
24782W        W40916   4.748   3.286   3.967 -0.3244  0.0119 -0.2015
24783W        W40917  18.313  14.657   1.051  0.0163 -0.0722 -0.2191
24784W        W40918  10.221   7.338   1.829 -0.2812 -0.2425  0.0883
24785W        W40919   8.033  10.361  16.036 -0.0323 -0.0858  0.0446
24786W        W40920  13.619  11.121   6.257 -0.1674 -0.0937 -0.0741
24787W        W40921  17.008  18.418   1.165 -0.1985  0.0245  0.0431
24788W        W40922  10.737   2.338   0.101 -0.2224 -0.1774 -0.1966
24789W        W40923   9.455  10.296   4.855  0.1498 -0.0195 -0.1415
24790W        W40924   3.807  18.268  10.554  0.0297  0.1343 -0.2368
24791W        W40925   1.072  17.257   3.280  0.2572 -0.3210  0.0506
24792W        W40926  16.874  16.645  11.562 -0.0727  0.1294  0.1030
24793W        W40927   4.918  11.606  13.210  0.2434 -0.0786  0.1072
24794W        W40928   0.168   5.061   3.330  0.0924  0.1359  0.0623
24795W        W40929   7.536  14.023  16.030 -0.1884 -0.1017  0.0268
24796W        W40930  11.604  17.955  14.109 -0.1145  0.2151 -0.1479
24797W        W40931   4.765  14.173  10.723  0.4217  0.0225  0.0541
24798W        W40932  13.493  17.091   4.435  0.1816  0.0101 -0.1621
24799W        W40933  18.119   3.706  10.964  0.3571 -0.2724 -0.0482
24800W        W40934   4.670  13.624  15.315  0.0217 -0.0043 -0.3497
24801W        W40935   7.915  11.904   4.692  0.2109 -0.3850 -0.1601
24802W        W40936  15.459   3.129  14.496 -0.0584 -0.1325  0.2973
24803W        W40937   3.006   4.485   4.748  0.1367 -0.0979  0.0407
24804W        W40938   2.787  10.159  13.072 -0.0976  0.0962 -0.3328
24805W        W40939   8.591   6.692   4.570 -0.0036 -0.1238  0.2501
24806W        W40940   0.019   6.973   2.341 -0.0577 -0.0841 -0.1381
24807W        W40941   2.570   4.309   4.568 -0.1972  0.1718 -0.0414
24808W        W40942   8.345   7.441  14.961  0.0264  0.0639  0.1278
24809W        W40943   1.022  13.134  10.835  0.1014 -0.2465 -0.1352
24810W        W40944   7.154  15.404  15.190  0.1853 -0.3282  0.1182
24811W        W40945  11.307   2.808   2.163  0.0864  0.2698 -0.1707
24812W        W40946   2.655   8.373   2.496 -0.1565  0.2302 -0.1046
24813W        W40947   9.319   0.506   5.009  0.0716 -0.1692  0.2957
24814W        W40948   7.051   7.158  14.452  0.2466  0.2852  0.2335
24815W        W40949   4.210   3.082  13.515  0.1544 -0.0048 -0.2369
24816W        W40950   5.309  12.572   0.588  0.3319 -0.1253  0.0207
24817W        W40951  10.910  17.896  12.108  0.0373  0.0345 -0.1739
24818W        W40952   4.267   7.173   3.896 -0.4529  0.2775 -0.2794
24819W        W40953  13.295  10.045  13.533  0.0284  0.1715  0.1533
24820W        W40954  16.330   1.057  15.432 -0.0070 -0.1144 -0.0776
24821W        W40955  13.977   7.331   4.777 -0.1940 -0.2468 -0.0727
24822W        W40956   5.413  10.621  12.931  0.1777 -0.0127  0.4213
24823W        W40957  15.109   4.129   0.835 -0.0429  0.2594 -0.0322
24824W        W40958   0.449   2.117   0.655 -0.0460 -0.6689  0.2742
24825W        W40959   5.444   8.986   0.243  0.1315  0.2631  0.0065
24826W        W40960  14.033  10.006  15.722  0.0362 -0.2683 -0.0334
24827W        W40961  15.174  16.561   4.421  0.0580  0.1870 -0.1788
24828W        W40962  12.029  12.659  12.549 -0.2686  0.0990  0.1350
24829W        W40963  12.090   4.766  12.807  0.0819  0.1115  0.0983
24830W        W40964   7.564   8.079  15.306 -0.0204  0.0327  0.1930
24831W        W40965  10.439  15.440   4.698  0.0146  0.3152  0.2801
24832W        W40966   3.561  14.435  12.680  0.1460 -0.2100  0.1248
24833W        W40967   8.613  12.289   3.914 -0.0230 -0.0815  0.1049
24834W        W40968   6.455   9.601   3.455 -0.0009 -0.0161 -0.0128
24835W        W40969   9.938  11.640  12.684 -0.2375 -0.0616 -0.3196
24836W        W40970  14.090  18.416  11.134 -0.1897 -0.0885 -0.1145
24837W        W40971  12.684   9.077   0.555  0.2185  0.2319 -0.1171
24838W        W40972   7.599  13.712   1.271  0.1509  0.0562  0.3487
24839W        W40973   3.183  16.304  11.439 -0.0280 -0.0269 -0.0082
24840W        W40974   6.529   9.480  11.620 -0.1673 -0.1911 -0.2627
24841W        W40975  13.366   4.390  12.637 -0.1217  0.2851 -0.0245
24842W        W40976   6.311  18.442   2.156 -0.2477 -0.3059 -0.1376
24843W        W40977  14.197   5.575   3.938  0.4152  0.0760  0.0072
24844W        W40978   9.867  15.702   5.537 -0.4514 -0.0186 -0.2759
24845W        W40979   1.425   2.533   5.181 -0.1477 -0.0092 -0.1623
24846W        W40980   8.384   6.254   2.243 -0.1559 -0.1058  0.0092
24847W        W40981  12.704  17.758   0.031 -0.0740 -0.1416  0.2428
24848W        W40982  16.636   7.084  11.484  0.3193 -0.0903  0.3904
24849W        W40983  18.301  14.257   4.754 -0.2300  0.2007 -0.4218
24850W        W40984   3.668   7.322   2.672 -0.3936  0.2172  0.0114
24851W        W40985  18.501  15.563   3.777  0.0052  0.0421 -0.2114
24852W        W40986  14.089  17.029   0.992 -0.1348 -0.2499 -0.0578
24853W        W40987   4.694  10.574  15.723 -0.0591 -0.1370 -0.3175
24854W        W40988   9.315   1.890  14.286  0.0858 -0.0931 -0.1835
24855W        W40989   1.075  11.500  14.491 -0.3477  0.2697  0.1011
24856W        W40990  13.560  16.247   1.047 -0.0569 -0.2773  0.1615
24857W        W40991   6.650  11.605  12.835 -0.0770  0.2373  0.2876
24858W        W40992   7.510  13.797  14.403  0.1302 -0.0899  0.0414
24859W        W40993   1.746   9.934  10.156 -0.1843 -0.0593  0.0189
24860W        W40994   4.681   3.670   0.427  0.0265  0.0953 -0.0390
24861W        W40995  18.146   8.663  10.998  0.1109 -0.1797 -0.1258
24862W        W40996   1.669  18.282  14.684 -0.2071  0.0548  0.0140
24863W        W40997  17.633   7.834   3.721 -0.3379 -0.1511 -0.1136
24864W        W40998   9.238  16.102  14.579  0.2685 -0.2271 -0.0342
24865W        W40999  14.575   2.303  14.183  0.4588 -0.4507 -0.2981
24866W        W41000  11.331  12.865   2.785 -0.2430  0.1376  0.0004
24867W        W41001   2.968  14.398   4.268  0.0382 -0.0830 -0.1640
24868W        W41002  12.798  16.956   0.009 -0.2408 -0.1517  0.0786
24869W        W41003  12.913  15.881   5.140 -0.0487  0.0614  0.1128
24870W        W41004  13.521  15.002   0.301 -0.1617 -0.2956 -0.0088
24871W        W41005   8.808  14.264   5.009  0.0013 -0.0927 -0.1137
24872W        W41006   8.679   0.123  13.252 -0.0386  0.0694 -0.2385
24873W        W41007   7.022  13.363   1.964 -0.2135  0.0866 -0.1806
24874W        W41008   8.286  16.380  11.931 -0.2382  0.0280 -0.0208
24875W        W41009  11.749   8.407   3.992  0.1134  0.0789 -0.0789
24876W        W41010  16.899  10.907   1.260  0.2605 -0.0982  0.1281
24877W        W41011  14.671  17.989  15.383 -0.1587 -0.0562  0.3390
24878W        W41012  15.610   4.983   1.460 -0.1643  0.1338 -0.0164
24879W        W41013  15.975   7.927   0.347 -0.2728  0.2304 -0.0755
24880W        W41014   2.114  14.478  10.796  0.2200  0.3832 -0.1350
24881W        W41015  17.419   4.724   1.328 -0.0085 -0.1160  0.1411
24882W        W41016  11.771  10.655  13.585  0.0967  0.1348  0.2628
24883W        W41017  13.762   2.845  13.960 -0.4704  0.0849  0.0700
24884W        W41018  16.982   3.191   0.865 -0.1536 -0.1176  0.0898
24885W        W41019  13.723   3.054   1.586 -0.1118  0.0671 -0.2420
24886W        W41020   0.322  14.566   0.976 -0.0585  0.0261 -0.2020
24887W        W41021   4.260   1.235   4.423 -0.1143  0.2064  0.4371
24888W        W41022  13.622  13.433   3.066 -0.2599 -0.0185 -0.0359
24889W        W41023   6.644  18.426   5.715 -0.2736 -0.2702  0.1265
24890W        W41024   4.958  16.518   4.315 -0.0414  0.2080  0.1389
24891W        W41025  10.231  12.541  15.983 -0.0362  0.1050  0.1757
24892W        W41026  18.122   3.322  11.562 -0.4111 -0.0415  0.0995
24893W        W41027  16.148   6.815   1.000  0.2447 -0.2615 -0.1545
24894W        W41028   7.282  16.260   0.726 -0.2365  0.0240 -0.0694
24895W        W41029   0.119  16.333  14.896 -0.2387  0.0405  0.0647
24896W        W41030   7.774  16.076   2.110  0.0603 -0.2310  0.0653
24897W        W41031  12.610  14.779   0.010  0.0910 -0.0726  0.2631
24898W        W41032   3.646   7.823  14.043  0.0136  0.0615 -0.0853
24899W        W41033   4.189   4.561  14.953 -0.2662 -0.0996 -0.1222
24900W        W41034   0.192  16.809  12.550  0.0057 -0.0250  0.1198
24901W        W41035   8.630   9.096  14.311  0.1707 -0.0855  0.1421
24902W        W41036  15.624   6.480   1.398  0.0543 -0.2516  0.2819
24903W        W41037  11.816   1.988   0.867 -0.0439 -0.0442 -0.3870
24904W        W41038  11.303   8.841   3.806 -0.2191  0.0008  0.0891
24905W        W41039  12.721   7.821   1.649  0.2687  0.1461 -0.0411
24906W        W41040   4.456  17.564  16.055 -0.0701  0.1269 -0.1560
24907W        W41041   8.806   5.304   3.234 -0.3117 -0.5809  0.1212
24908W        W41042  18.280  11.129   1.234 -0.0518 -0.4787 -0.3041
24909W        W41043   6.376  10.824   5.528 -0.0246  0.0249 -0.3983
24910W        W41044  14.093   9.317  11.524 -0.2022  0.2499 -0.0391
24911W        W41045  12.546  13.318  12.426 -0.1131 -0.1917  0.1808
24912W        W41046   1.906  15.536  11.986  0.1776 -0.1611  0.0164
24913W        W41047  11.853   2.135   2.013 -0.0234 -0.1627 -0.0530
24914W        W41048   1.163   7.780  10.872 -0.1353  0.1676 -0.3276
24915W        W41049  18.160   9.512   0.951  0.1663  0.2286  0.1702
24916W        W41050   0.574   3.399  12.707 -0.4746 -0.3395 -0.2175
24917W        W41051   5.035   2.968   5.445  0.2518 -0.3033 -0.0103
24918W        W41052   8.319   3.584   1.302 -0.2997 -0.4096  0.0262
24919W        W41053  14.418  14.132  12.898 -0.3158 -0.1979  0.1904
24920W        W41054  15.083  16.834   0.760  0.0203 -0.2085 -0.2840
24921W        W41055   6.295   5.735   2.738  0.0100  0.2203 -0.0203
24922W        W41056  10.130   0.463  12.496  0.1696 -0.1018  0.1290
24923W        W41057   4.596  13.024   0.343 -0.1815 -0.1034  0.1430
24924W        W41058  16.178   8.575  12.885  0.2555  0.3507 -0.2491
24925W        W41059  13.742   4.612   3.647 -0.3337 -0.0052 -0.1157
24926W        W41060  14.557  17.519  15.190 -0.2501 -0.0544  0.1400
24927W        W41061   6.541  10.395  14.552  0.1572  0.0809 -0.0212
24928W        W41062  16.277  15.681   3.133  0.3048 -0.3992  0.0614
24929W        W41063  10.968   3.318   4.188 -0.0741  0.1550 -0.4432
24930W        W41064  16.022   2.671   4.241 -0.0828 -0.0189 -0.1237
24931W        W41065   9.817  17.437   1.282  0.0272 -0.1492  0.2621
24932W        W41066   0.879   3.555   0.613  0.0860 -0.2362 -0.2500
24933W        W41067   2.195   1.108  12.915  0.3556 -0.0368  0.3680
24934W        W41068  12.076  13.986   3.160  0.1384  0.1309 -0.1005
24935W        W41069   3.554   6.116  10.860  0.0731  0.2489  0.1094
24936W        W41070  15.329   3.042   5.418 -0.0138 -0.0468 -0.0095
24937W        W41071   9.970  16.842   3.322 -0.1848 -0.0002  0.0575
24938W        W41072  11.580   3.980   3.200  0.4515  0.1219  0.0396
24939W        W41073   3.254  11.945  10.288  0.1090  0.1211  0.2278
24940W        W41074   8.624  10.633   5.369 -0.2357  0.1614 -0.1493
24941W        W41075  11.884  16.498   3.708 -0.3530 -0.0408 -0.0445
24942W        W41076   4.591   0.167   0.695 -0.2471 -0.0649 -0.0925
24943W        W41077  15.261   8.143  10.444 -0.3840  0.5433  0.1964
24944W        W41078  11.570  17.187  15.604  0.1161 -0.1147 -0.2881
24945W        W41079   1.336   8.336  13.549 -0.1646  0.0953  0.2589
24946W        W41080  15.534  16.084   1.412 -0.0349 -0.0251 -0.1656
24947W        W41081  13.624   1.572  13.437 -0.1256  0.0015  0.0516
24948W        W41082  15.483  11.509  11.764 -0.1203  0.0084  0.0904
24949W        W41083  12.247  12.130   4.299  0.2103 -0.0360  0.1206
24950W        W41084   0.374   6.967   9.940  0.2689  0.4014  0.0220
24951W        W41085   2.257   6.370   2.760 -0.2132  0.0179 -0.0228
24952W        W41086  10.680   1.971  15.741 -0.0939  0.0944  0.0077
24953W        W41087   9.197   1.842   3.611 -0.1603  0.0009 -0.0685
24954W        W41088   9.476  16.703   3.528 -0.0898 -0.3898 -0.0718
24955W        W41089   3.376   4.159  12.162 -0.2058  0.0230 -0.0163
24956W        W41090  11.655   0.427  14.507  0.1046  0.1120  0.2242
24957W        W41091   2.334  16.221  15.098 -0.0118  0.0766 -0.0782
24958W        W41092   5.758  17.001  11.323 -0.0256 -0.1646  0.0674
24959W        W41093  12.487  12.391   3.229  0.1296  0.3749 -0.1256
24960W        W41094   4.143   8.086  13.805 -0.0210  0.2474  0.2371
24961W        W41095  16.722  12.734   3.968  0.0047  0.1063 -0.1905
24962W        W41096  18.304  15.216   1.574  0.3837  0.0921  0.1646
24963W        W41097   0.911   6.744   1.146  0.2631  0.2663  0.7041
24964W        W41098  12.264  18.120  12.647  0.0794 -0.0328 -0.2313
24965W        W41099  14.570  14.983  15.721  0.0031  0.1379  0.1289
24966W        W41100  16.942  15.339   4.229  0.1967  0.1640  0.1056
24967W        W41101   9.315  14.247  14.084  0.1514  0.0441 -0.1897
24968W        W41102  11.533  16.818   0.343 -0.1508  0.1710  0.1552
24969W        W41103   1.641   2.400  16.083 -0.0236 -0.0184  0.3032
24970W        W41104   5.277   2.396  14.781  0.1522 -0.1541  0.0369
24971W        W41105   7.791  18.331  13.192  0.2829 -0.2277 -0.0035
24972W        W41106   5.449   1.774   1.739 -0.1064  0.2728  0.0556
24973W        W41107  13.354   9.095   3.110 -0.0263  0.1598 -0.1562
24974W        W41108  12.970  17.234  13.952 -0.0334 -0.1996  0.2061
24975W        W41109  10.982   9.298  12.581 -0.2966 -0.2756 -0.1834
24976W        W41110   9.264  13.489   1.596  0.2648  0.0073 -0.0635
24977W        W41111   4.349  17.977   0.615 -0.0008 -0.0024  0.0251
24978W        W41112   8.073  15.639   2.464 -0.0352 -0.1239 -0.0881
24979W        W41113   2.751  11.046  12.549 -0.0316 -0.0695 -0.1286
24980W        W41114   9.340   2.900  15.653  0.0649 -0.1509  0.2658
24981W        W41115  16.130   0.859  14.935  0.0174  0.0465  0.1543
24982W        W41116   9.839   5.675  14.960  0.0836 -0.0824 -0.2536
24983W        W41117   0.403   1.902   1.140 -0.2605 -0.1032 -0.4460
24984W        W41118   1.204  16.358   4.759  0.0140 -0.1498  0.1153
24985W        W41119  12.821   8.161  14.521  0.1584 -0.0561 -0.1541
24986W        W41120   4.330   3.509   3.763 -0.2258  0.1038  0.1156
24987W        W41121   6.585   8.331   3.393 -0.0547 -0.2604 -0.0322
24988W        W41122  17.929   1.965  11.789  0.0555  0.0103 -0.0812
24989W        W41123   0.677   5.202  11.128  0.0084 -0.1705 -0.1186
24990W        W41124  18.152   3.588   3.362 -0.1069 -0.3098  0.0672
24991W        W41125   1.235   8.225  14.582  0.1642 -0.1515 -0.0420
24992W        W41126   6.154   1.342  15.172 -0.2001 -0.2091 -0.0317
24993W        W41127  10.163   1.023   2.371  0.2087  0.0716 -0.0534
24994W        W41128  18.289   5.582   1.669 -0.1763  0.2410  0.2507
24995W        W41129  11.332  17.040  16.023  0.0342  0.0795  0.1297
24996W        W41130  13.406  13.954   0.292 -0.0032 -0.0799 -0.1431
24997W        W41131   9.827   8.153   3.088  0.2717 -0.0260  0.2618
24998W        W41132  12.526   3.981  14.773 -0.0764 -0.1370  0.1451
24999W        W41133  11.372  10.009   5.297 -0.1423  0.1635  0.3657
25000W        W41134  12.392   5.701   3.832  0.0039  0.0146  0.2409
25001W        W41135   9.027  12.648   0.287  0.0992  0.0395 -0.0532
25002W        W41136   0.384  14.043  15.684 -0.0833 -0.2904 -0.3334
25003W        W41137   5.414   7.432  15.566 -0.0595 -0.1309  0.1283
25004W        W41138   3.963   5.540  12.060 -0.0386 -0.1617 -0.2480
25005W        W41139   5.672  13.399   0.875  0.0364 -0.3260  0.2938
25006W        W41140   6.539   2.634  15.674 -0.0747  0.1805  0.4219
25007W        W41141  11.425   4.958  11.910  0.2912 -0.0351 -0.2536
25008W        W41142  11.979  11.733   2.378  0.1529  0.1662 -0.1596
25009W        W41143  13.497   6.492   0.148  0.1663  0.0349  0.1112
25010W        W41144   6.780   0.755   4.024  0.1910 -0.1818 -0.0333
25011W        W41145  16.262  17.866   2.460 -0.1376  0.2211 -0.3004
25012W        W41146   3.139  17.663  15.561  0.1182 -0.0608  0.0662
25013W        W41147  13.569   2.959   2.027 -0.3475  0.1850  0.1349
25014W        W41148  12.344   0.044  14.714  0.0120  0.0453 -0.0293
25015W        W41149   9.463  18.301   4.891  0.1495  0.2764 -0.3005
25016W        W41150   4.060  10.384   0.291 -0.1552  0.2171 -0.2936
25017W        W41151   7.602  10.025  13.487 -0.2252 -0.1478 -0.0274
25018W        W41152   8.559  10.353   0.711 -0.0453  0.1359 -0.1043
25019W        W41153  14.015  18.160  11.570 -0.0301  0.2091 -0.0681
25020W        W41154  17.029   9.496   0.745  0.1210 -0.3716 -0.0581
25021W        W41155  16.598  12.991  11.112  0.0914  0.0109  0.1238
25022W        W41156   0.251  16.308  12.612  0.2745 -0.0197  0.1913
25023W        W41157   2.747   9.616   4.591  0.0517 -0.0323 -0.1377
25024W        W41158  14.979   6.833  13.424  0.1859 -0.0191  0.2145
25025W        W41159   5.822  13.214  12.966 -0.2352 -0.1325  0.0410
25026W        W41160   5.010   9.664  15.787 -0.2101 -0.2188 -0.0223
25027W        W41161  17.031  17.730   4.133  0.1144  0.0017  0.2007
25028W        W41162   5.430   7.915  13.421  0.2133 -0.0279  0.4453
25029W        W41163   5.961   2.091   5.070  0.1040  0.3901 -0.0394
25030W        W41164   1.708  17.767  13.934  0.0871  0.0631 -0.2039
25031W        W41165   0.735   3.039  11.728  0.0464 -0.1203  0.0477
25032W        W41166  17.340   1.326  13.992 -0.0955 -0.4302 -0.1155
25033W        W41167  15.622   3.949   3.384  0.1597  0.2588  0.1044
25034W        W41168   8.811  12.708   4.909  0.1989 -0.0752  0.1260
25035W        W41169   7.531   3.609  14.291  0.0686  0.2594  0.0411
25036W        W41170  12.007   4.190   2.442 -0.1789  0.3931 -0.1909
25037W        W41171   2.803  13.502  14.293  0.1188 -0.0199 -0.5063
25038W        W41172   1.837   9.413   1.287  0.1397  0.3209  0.0288
25039W        W41173   1.265   5.299   0.991 -0.3793  0.0565  0.0538
25040W        W41174   4.988  13.593  12.388 -0.0343 -0.1687  0.0753
25041W        W41175   5.183   7.659   2.339 -0.1571 -0.0384 -0.1874
25042W        W41176  11.518   9.253   4.558  0.5335 -0.2837  0.1354
25043W        W41177  12.446   6.580   4.757 -0.0805 -0.0968 -0.3804
25044W        W41178   2.650   0.870   3.598 -0.4111  0.0784 -0.2861
25045W        W41179  14.741  17.231   0.842 -0.2205 -0.1917  0.1623
25046W        W41180  13.164   6.538  13.958 -0.1502 -0.3385 -0.1705
25047W        W41181   4.380  10.196  14.369  0.1947 -0.0543  0.0160
25048W        W41182  14.891  14.798   0.018  0.1455  0.0879 -0.1219
25049W        W41183  16.885   6.455   2.528  0.1927 -0.1488  0.0571
25050W        W41184  17.327   4.893  10.768  0.3745  0.0864  0.0743
25051W        W41185   4.811  13.876  13.205 -0.1600  0.1123 -0.1102
25052W        W41186   3.296   0.035  15.470 -0.1005 -0.2507 -0.3346
25053W        W41187   5.192  16.782   5.085  0.1397 -0.0730  0.2427
25054W        W41188  11.825   4.406  14.463  0.0354 -0.0329 -0.0454
25055W        W41189   5.746  16.792  13.829 -0.1120  0.0747 -0.1310
25056W        W41190   3.977  10.155  13.173 -0.0680  0.1397  0.0783
25057W        W41191   5.404  14.361  14.667  0.2442 -0.1128  0.0339
25058W        W41192   0.173  11.902  14.736 -0.2026 -0.4962 -0.2274
25059W        W41193   1.359  15.311  12.127 -0.0102  0.0857  0.0182
25060W        W41194   5.998   2.026  13.470 -0.2199  0.3510  0.0449
25061W        W41195  12.933  14.498   3.533  0.0635  0.0892  0.1906
25062W        W41196   3.403   8.444  12.338  0.1879  0.3648 -0.2392
25063W        W41197  16.123  11.303   3.241 -0.0419 -0.0455  0.1855
25064W        W41198  17.235  10.106  10.918  0.0434  0.1732  0.3381
25065W        W41199  16.044   0.945  11.767  0.2324 -0.1942 -0.1898
25066W        W41200   9.101  16.663  14.531  0.1738  0.1771 -0.2400
25067W        W41201  16.040  12.531  13.406 -0.0780  0.2721  0.1555
25068W        W41202   7.066   6.388  12.804  0.1275  0.0046  0.2346
25069W        W41203   4.886  14.869   4.525  0.1533 -0.0149 -0.0626
25070W        W41204   1.944  11.591  11.824  0.0940  0.1846  0.2034
25071W        W41205   1.543  17.293   3.084 -0.1476  0.2184 -0.3906
25072W        W41206  17.337   2.273  13.397  0.1841 -0.2109  0.1612
25073W        W41207  16.593  18.042   1.822 -0.0216  0.0071 -0.0060
25074W        W41208   8.695  11.216  14.470  0.1710 -0.0128  0.3294
25075W        W41209   7.432   6.008  15.436  0.1092  0.0167 -0.1228
25076W        W41210  16.747  13.150   5.178 -0.1048 -0.1600  0.3106
25077W        W41211   8.834   1.347   2.819  0.0559  0.1695 -0.2371
25078W        W41212  17.757  15.917   0.111  0.0026  0.2044  0.2812
25079W        W41213  16.509   1.672   2.182 -0.1136 -0.2257  0.0662
25080W        W41214   6.503   0.193   2.566  0.2376 -0.2039  0.2807
25081W        W41215  15.619  13.918  14.329 -0.0296 -0.2526  0.0086
25082W        W41216  10.349   6.452  14.358 -0.0259  0.0655  0.0624
25083W        W41217  15.478   0.939   2.661 -0.0663  0.0897 -0.0699
25084W        W41218   0.354   2.606  15.432  0.1506  0.3544 -0.0537
25085W        W41219  17.699   3.191  11.735 -0.3272 -0.1387  0.2231
25086W        W41220  13.106  15.906   4.682  0.1946  0.0858  0.0820
25087W        W41221  16.440  18.475  14.647  0.1507 -0.0513  0.1002
25088W        W41222  16.635  16.809  12.377  0.0852 -0.0605 -0.0647
25089W        W41223  13.401   3.326   3.220  0.1259 -0.1639 -0.1001
25090W        W41224  12.251   0.468  13.508  0.0975 -0.1898  0.1397
25091W        W41225   8.869  17.366   1.958 -0.2206 -0.0602 -0.0062
25092W        W41226  13.553   4.009   2.588 -0.0088  0.2814  0.0761
25093W        W41227   8.469   7.613  14.037 -0.1854 -0.2007 -0.3102
25094W        W41228   8.436   2.572  11.964  0.0704 -0.3464 -0.1578
25095W        W41229  13.845   1.204   0.095 -0.2652 -0.0148  0.0389
25096W        W41230   7.902  10.082  14.447 -0.1045  0.1414 -0.2155
25097W        W41231  11.530   5.292  14.573 -0.1336 -0.1749  0.1817
25098W        W41232   4.948   7.157  13.100 -0.4093  0.2414 -0.1078
25099W        W41233  13.422   6.394  12.886 -0.0404  0.2654 -0.0141
25100W        W41234  14.435   3.490  11.922  0.0535  0.1348  0.1722
25101W        W41235  12.073   3.262  15.166  0.0336  0.0154  0.0947
25102W        W41236  16.809  10.410   2.568  0.0744  0.1142  0.1577
25103W        W41237  15.482  16.182   1.953 -0.2495  0.0275  0.0694
25104W        W41238  12.601   0.045  11.793  0.0115 -0.1655  0.3822
25105W        W41239   6.845  10.394   3.000 -0.3653  0.0780 -0.2041
25106W        W41240   6.502  17.564  12.712  0.0824  0.2782  0.0299
25107W        W41241   4.241   8.086   3.952 -0.0540  0.0829 -0.2859
25108W        W41242  10.444   9.698   4.873  0.0475 -0.0971 -0.3958
25109W        W41243  10.022  18.053  15.060  0.0497 -0.1048 -0.1796
25110W        W41244   0.053  10.012  10.837  0.1954 -0.2883  0.2240
25111W        W41245  17.636  14.108   0.092 -0.0322 -0.2470 -0.0795
25112W        W41246  15.002   9.178  11.538  0.0622 -0.0720  0.1050
25113W        W41247  10.379  12.737   4.929 -0.1754  0.2005 -0.4372
25114W        W41248  14.319  10.428  15.819  0.0843  0.1361  0.0857
25115W        W41249  10.894   3.036   3.791 -0.1421  0.0176 -0.2186
25116W        W41250  15.240   5.249  14.009  0.1927 -0.2454  0.0746
25117W        W41251  10.646  13.417   1.168 -0.3436  0.0841 -0.3502
25118W        W41252  13.979  10.803  13.639 -0.1419  0.1743  0.2253
25119W        W41253  14.211   4.493   1.397 -0.1296  0.5803 -0.2600
25120W        W41254   2.764   3.080   5.294 -0.0418 -0.0954  0.1074
25121W        W41255   0.226  10.290  14.754 -0.1478 -0.1177 -0.0315
25122W        W41256   4.018   7.022  11.662 -0.1818 -0.4612 -0.1601
25123W        W41257   1.422   7.540   1.134 -0.1173 -0.1792 -0.2096
25124W        W41258   7.286   6.106  11.961 -0.3175  0.5044 -0.0896
25125W        W41259  10.637  17.352   0.967 -0.1756  0.4076 -0.3451
25126W        W41260   9.894  15.841  15.881 -0.1309  0.2560 -0.1800
25127W        W41261  17.173   7.882   4.987  0.1588  0.0713 -0.0123
25128W        W41262   4.052   1.146   0.286  0.1006 -0.0375  0.1547
25129W        W41263   3.248   3.519   2.599  0.3566 -0.0747 -0.0780
25130W        W41264   7.498   2.332   3.337 -0.3362  0.1814  0.0483
25131W        W41265   2.119   0.080  14.930 -0.1673  0.0354 -0.1100
25132W        W41266   8.407   4.111  14.552  0.1882 -0.0846  0.0380
25133W        W41267   1.235  11.399  10.927 -0.1148 -0.0223  0.0572
25134W        W41268   3.219   8.334   2.456  0.1771  0.1924 -0.0492
25135W        W41269  16.286  18.083   2.896  0.1012 -0.3005  0.0534
25136W        W41270   6.393   6.626  14.136  0.1300  0.0005  0.2470
25137W        W41271   3.054   8.592  13.465  0.6779  0.2803  0.3544
25138W        W41272   9.026  13.373   1.203 -0.0441  0.1308 -0.2231
25139W        W41273  10.739  13.848  12.277 -0.3122  0.1369  0.0979
25140W        W41274  10.618  11.285  14.699 -0.1201 -0.2204 -0.0664
25141W        W41275   9.112  11.106   3.520 -0.0629  0.2652 -0.2157
25142W        W41276  16.103   7.406   1.366 -0.2497 -0.0330 -0.0742
25143W        W41277   0.053   5.173  15.381 -0.1719 -0.2561 -0.1749
25144W        W41278  13.511   2.879   2.950  0.0557  0.1048 -0.0544
25145W        W41279   7.886   1.533  11.122 -0.1985  0.1826 -0.0501
25146W        W41280  17.555   9.058  14.209  0.1736 -0.1529  0.1813
25147W        W41281   9.516  17.317   3.989  0.1409  0.3148  0.2474
25148W        W41282   1.935   9.325  15.215 -0.0336 -0.2659  0.0398
25149W        W41283   8.373  15.757   0.365  0.1524 -0.2618 -0.1092
25150W        W41284  13.535  16.391  13.878 -0.3436 -0.3974  0.0233
25151W        W41285   4.620   6.684   3.423  0.1718 -0.1743  0.0157
25152W        W41286  16.239  13.553   1.965 -0.2784 -0.0997  0.3880
25153W        W41287   4.189  10.773   4.210 -0.1067 -0.3724 -0.0028
25154W        W41288   7.123   7.761  13.596  0.1067  0.0744  0.0756
25155W        W41289  10.101  17.626   6.604  0.0125  0.2645  0.2841
25156W        W41290   7.396   7.911  13.198  0.0482 -0.0890 -0.3029
25157W        W41291   2.231  10.424  10.835  0.2096 -0.1314 -0.1265
25158W        W41292  17.053  15.383  10.452  0.1517  0.2170  0.1635
25159W        W41293  10.361  12.474   0.413  0.0525  0.2635  0.1237
25160W        W41294   6.155   5.603   2.257 -0.0689  0.0499  0.0875
25161W        W41295   3.292   7.613  15.765  0.0032 -0.1591 -0.1182
25162W        W41296   0.500   8.370   3.832 -0.0334 -0.0980 -0.0514
25163W        W41297   8.774   3.606  16.061 -0.1224  0.0174  0.2887
25164W        W41298  10.713  14.531  12.481 -0.1934 -0.1117 -0.0610
25165W        W41299  10.150   9.789  16.079 -0.2463  0.1182  0.2561
25166W        W41300  10.316   2.199  16.017  0.1345  0.4724 -0.1018
25167W        W41301   5.046  15.709  14.192 -0.0441 -0.0893 -0.0354
25168W        W41302  13.233  14.479  13.639  0.2580  0.0226  0.1734
25169W        W41303   2.311   6.815   3.782  0.0746 -0.1846  0.1249
25170W        W41304   5.351   6.237   1.301  0.4779 -0.2656  0.1772
25171W        W41305   7.617   6.561   4.391  0.0913  0.1223  0.0159
25172W        W41306   9.013   1.019   3.148  0.0895 -0.0475 -0.0910
25173W        W41307  15.051  11.564   3.924  0.1286  0.4863  0.0542
25174W        W41308  10.523   1.195   5.418  0.3356 -0.0152 -0.2453
25175W        W41309   9.661  15.447  15.072 -0.4054 -0.2369  0.1867
25176W        W41310   2.310  12.706  10.652  0.0233 -0.2759 -0.1612
25177W        W41311   2.395   6.261   4.483  0.2948  0.2020 -0.0170
25178W        W41312  16.786   3.062  13.333  0.0765 -0.0310 -0.1709
25179W        W41313  11.727   5.850  12.190 -0.0322 -0.1034 -0.1770
25180W        W41314  11.775   9.678  15.880 -0.1110  0.3554  0.1073
25181W        W41315  13.483  13.348   0.921 -0.0285  0.1508 -0.0295
25182W        W41316  17.942   7.722   0.620  0.0286 -0.5440 -0.3395
25183W        W41317   9.915   7.579   0.853 -0.0228  0.0183 -0.1036
25184W        W41318   3.945   2.775   4.141  0.0660  0.0148  0.0773
25185W        W41319  16.684   8.204   0.347  0.0939 -0.5164  0.0897
25186W        W41320   0.159   8.556  14.033 -0.1288 -0.0694  0.0097
25187W        W41321  13.327   6.948   0.253  0.0331 -0.0304 -0.3134
25188W        W41322  12.756   5.668   2.722  0.3438 -0.0777  0.0424
25189W        W41323  12.035  12.940   4.357  0.1120  0.4350 -0.1387
25190W        W41324  11.137  14.699   1.664 -0.1202 -0.1940 -0.0618
25191W        W41325   8.755  12.231  14.371  0.0344  0.1209  0.1191
25192W        W41326   2.106  11.413   1.668 -0.3039 -0.0141 -0.3873
25193W        W41327  11.962   3.570   0.363  0.0571  0.1393 -0.2997
25194W        W41328   2.061  15.458  15.274 -0.1665  0.1196 -0.0231
25195W        W41329  13.232   9.796   4.444  0.1437 -0.1445  0.0379
25196W        W41330   2.659   3.190   4.737  0.2932  0.2957  0.1376
25197W        W41331   3.439  11.757  14.233  0.1806  0.1978  0.2579
25198W        W41332   6.012   0.368   2.150  0.0185  0.1763  0.0756
25199W        W41333   5.162   6.103  11.701  0.0586  0.0248 -0.0475
25200W        W41334  17.129  17.531   1.138  0.0274 -0.0662  0.1090
25201W        W41335   6.311   7.609   4.763 -0.2339 -0.1665 -0.1561
25202W        W41336   5.879   1.616  11.219  0.2225  0.0470 -0.1384
25203W        W41337  16.868   5.535  13.378  0.4496  0.0757 -0.3045
25204W        W41338  18.097   5.644   0.623  0.2332 -0.1392  0.3745
25205W        W41339   4.172  12.465   3.371  0.0885  0.0232  0.1407
25206W        W41340  12.658  11.971   5.377 -0.1587 -0.0965 -0.1650
25207W        W41341  15.183   4.111  16.010 -0.3293 -0.1265 -0.0929
25208W        W41342   4.018  10.160  14.820 -0.0384  0.0751 -0.4428
25209W        W41343   9.445   0.395  13.975  0.0778  0.0341 -0.1591
25210W        W41344  14.429  14.233  13.943  0.0597 -0.0847  0.1581
25211W        W41345  15.005   2.633   3.633 -0.4979 -0.1511  0.3176
25212W        W41346   8.321  12.858   5.282 -0.0035  0.2309 -0.1301
25213W        W41347   2.619   3.860  12.192  0.0850  0.0618  0.0533
25214W        W41348  14.328   3.429   0.006 -0.0876 -0.1945 -0.1151
25215W        W41349   1.722   8.447  14.056 -0.1805 -0.1162  0.2392
25216W        W41350   5.039   6.524   3.677 -0.1675 -0.2424 -0.1636
25217W        W41351   0.364   5.403   1.762 -0.0865 -0.1364  0.1761
25218W        W41352  11.373   0.357   1.673 -0.1100 -0.0332 -0.0219
25219W        W41353   5.011   4.422  11.315 -0.0036 -0.1187 -0.1950
25220W        W41354   8.613  16.652   4.931 -0.1367 -0.1096  0.2307
25221W        W41355  14.269   3.368  12.899 -0.0472  0.1941  0.0352
25222W        W41356  12.249   2.981   3.845  0.2408 -0.0359  0.2596
25223W        W41357  11.746   0.770   2.153  0.2411 -0.1993  0.2915
25224W        W41358  12.319   4.282  13.677 -0.3799 -0.0872 -0.1721
25225W        W41359   0.103  14.675  14.071 -0.0692  0.2548  0.3019
25226W        W41360   4.240   9.639   4.520 -0.1185  0.3073 -0.0933
25227W        W41361   2.362  15.225  11.972 -0.0467 -0.1693  0.0331
25228W        W41362   5.095   3.452   4.358 -0.3152 -0.3589  0.1647
25229W        W41363   1.635  13.931  11.280  0.0051 -0.2620  0.0569
25230W        W41364  10.342   0.030  15.752  0.2165  0.0485 -0.0616
25231W        W41365   5.773  16.033   3.933 -0.2434 -0.3210 -0.2476
25232W        W41366  15.984  13.543   5.379 -0.0304 -0.0471 -0.1487
25233W        W41367   6.989   5.790  12.676 -0.2608  0.2945  0.4080
25234W        W41368  12.983   8.095  15.915  0.0299 -0.0227 -0.0840
25235W        W41369  16.172  10.665   2.036 -0.3190 -0.3396 -0.0528
25236W        W41370  14.934  16.065   2.742  0.2976  0.3425  0.0338
25237W        W41371  14.028  17.084   2.101  0.1045  0.0377  0.1713
25238W        W41372   8.321   2.236  12.426 -0.0297  0.0133 -0.1430
25239W        W41373   7.724   2.574  14.024 -0.0354 -0.0950  0.1179
25240W        W41374   2.409  10.021   3.604  0.1420 -0.2958  0.3030
25241W        W41375  17.101   4.913   5.161 -0.0355  0.1689 -0.0860
25242W        W41376   8.993  13.935  14.825  0.3374  0.0089 -0.2302
25243W        W41377   5.973  16.200  14.706 -0.2263  0.0299 -0.0867
25244W        W41378  16.049   2.819   0.777 -0.0150 -0.1302  0.1753
25245W        W41379   9.724  11.819   3.211  0.0209  0.2409 -0.0122
25246W        W41380  15.601   2.732   3.574 -0.2491 -0.1672  0.1297
25247W        W41381  11.735   3.830  12.569  0.0230  0.1639 -0.0349
25248W        W41382   1.474   4.421   1.387  0.3098 -0.0253  0.0629
25249W        W41383   4.561  13.087   4.802  0.0123 -0.0668  0.0034
25250W        W41384  14.588  10.046  14.636  0.1316  0.1725  0.4029
25251W        W41385   6.591   0.398   4.881  0.0087 -0.1407 -0.1253
25252W        W41386   8.192   4.225   5.635  0.2355 -0.0092  0.0064
25253W        W41387  12.459   7.092   3.297  0.5141  0.4148  0.1034
25254W        W41388   5.241  15.828  12.128  0.1340 -0.1957 -0.0458
25255W        W41389  15.158  12.295  13.799  0.2893 -0.0843  0.0083
25256W        W41390   4.066  16.640   0.350 -0.1152 -0.1791 -0.1723
25257W        W41391   7.102   5.062   0.894 -0.0595 -0.1672 -0.0033
25258W        W41392  17.452   8.886  10.184 -0.1215  0.3792  0.0870
25259W        W41393  10.331   4.533   4.796  0.0014 -0.3714  0.0071
25260W        W41394  14.551  18.283  12.458 -0.1482 -0.2393 -0.0661
25261W        W41395   3.327   0.092  14.276 -0.3197  0.0458  0.0235
25262W        W41396  10.710   0.230  15.386 -0.0243  0.0431  0.0487
25263W        W41397  12.270   4.064   5.556  0.1171 -0.3456  0.0663
25264W        W41398  17.409   4.901   0.551 -0.0659  0.2652  0.3184
25265W        W41399   8.383   9.187   3.897 -0.0278 -0.3133 -0.1167
25266W        W41400   9.706   0.337   2.396 -0.3056  0.0486 -0.1414
25267W        W41401   5.206   5.253  11.415  0.0467 -0.0115 -0.0541
25268W        W41402   5.283  15.781   1.207  0.1761 -0.1812 -0.1482
25269W        W41403  11.218   6.222  14.084  0.0653 -0.2676 -0.1610
25270W        W41404  12.052  14.047   2.659  0.1166 -0.6351  0.0721
25271W        W41405  10.425   3.605   3.126  0.6656  0.0161  0.0952
25272W        W41406   4.148  15.642   1.300 -0.2273 -0.1028 -0.0609
25273W        W41407  13.222  17.344   5.308 -0.0351 -0.2945  0.2123
25274W        W41408  17.169   6.638  13.754  0.1168 -0.1833  0.0171
25275W        W41409   5.901   1.292  14.255  0.1678 -0.0901  0.1981
25276W        W41410   0.478   4.344   4.988 -0.0181 -0.1122 -0.0940
25277W        W41411   9.323   5.675   1.044  0.3223  0.0117 -0.4235
25278W        W41412  18.093  16.827  16.044 -0.2790 -0.1171 -0.2256
25279W        W41413  17.820   9.061  10.892 -0.1398  0.2913  0.1554
25280W        W41414   0.409   2.071  13.007 -0.1153  0.1278  0.1627
25281W        W41415  17.545   8.010  14.007  0.0119 -0.0773  0.3487
25282W        W41416  15.566  12.831   4.662 -0.0302 -0.0011  0.1859
25283W        W41417  16.521  12.199  14.504 -0.2056  0.2695  0.0800
25284W        W41418  15.682   4.472  12.930  0.1859 -0.1759 -0.0139
25285W        W41419   9.825   1.197   5.847  0.2759 -0.1435  0.0378
25286W        W41420   4.860  11.878   2.029 -0.1519 -0.2804 -0.0839
25287W        W41421   7.135  10.183   1.061  0.1386  0.1037  0.1598
25288W        W41422   0.724  14.584   3.207 -0.1337 -0.1834  0.0121
25289W        W41423   9.478   2.650  15.183  0.0216  0.5206 -0.0387
25290W        W41424  10.251   4.131  13.793  0.2965  0.2315 -0.0249
25291W        W41425   8.375  12.660  15.645 -0.1874  0.1179  0.1883
25292W        W41426  15.649   8.690   1.896 -0.0404 -0.0569 -0.1711
25293W        W41427  15.708  17.824  13.116  0.0488 -0.0797  0.0654
25294W        W41428   7.453  14.818  14.055  0.1274 -0.0572 -0.0107
25295W        W41429  10.440  11.087   2.653  0.2361 -0.0207 -0.1496
25296W        W41430  15.403   5.731   1.001  0.0049 -0.3159 -0.0408
25297W        W41431   1.313   9.324   1.997 -0.1434 -0.2235 -0.1901
25298W        W41432  15.606  15.233   1.689  0.1359 -0.1958 -0.0654
25299W        W41433  10.369  10.234   3.520  0.1565  0.1366 -0.1099
25300W        W41434  13.123  13.687   1.647 -0.3613 -0.5893  0.0400
25301W        W41435   7.880   5.332   2.245  0.1817 -0.0237 -0.0514
25302W        W41436  14.346   6.073  11.472 -0.0319 -0.0544  0.0218
25303W        W41437   7.159   6.820   0.499 -0.2331 -0.1086  0.1311
25304W        W41438   9.849  17.475   2.201  0.2376  0.0782  0.1834
25305W        W41439   1.807   6.700  10.564 -0.0839 -0.1575 -0.2893
25306W        W41440  12.730  15.134   3.240  0.2443  0.0954 -0.0021
25307W        W41441  17.111   7.237  14.168 -0.0206  0.1238 -0.1040
25308W        W41442   2.039  13.160  11.061  0.3223  0.0879  0.0369
25309W        W41443  10.992   8.958   5.481 -0.1836 -0.0671  0.0523
25310W        W41444  10.024   0.063  13.936 -0.2511 -0.1042  0.0673
25311W        W41445   3.423  14.570   2.763  0.0288 -0.0052 -0.4719
25312W        W41446   2.294   5.803  11.019  0.3592  0.0285 -0.3886
25313W        W41447  16.888  14.407  15.696  0.3916 -0.1233 -0.2243
25314W        W41448   5.933   7.612   1.310  0.0017 -0.0640  0.3772
25315W        W41449   6.061  16.124  11.073  0.1971  0.1044 -0.2238
25316W        W41450   5.843   3.950  13.710  0.1757  0.2151 -0.1311
25317W        W41451  15.800   2.937   1.219  0.0180  0.1277  0.0110
25318W        W41452   1.216  13.294  14.374 -0.0027 -0.0818 -0.2479
25319W        W41453   1.107   9.033   3.235  0.0299  0.3923 -0.1121
25320W        W41454  16.989  12.532  13.730 -0.1209  0.1729  0.1162
25321W        W41455   0.614  15.536  11.447  0.1413  0.3437  0.0398
25322W        W41456   0.214  11.160  15.523  0.1036  0.0009 -0.3906
25323W        W41457   4.250   8.063   2.070 -0.1565 -0.1178  0.0438
25324W        W41458  12.535  17.710  14.640 -0.0727 -0.2146  0.0774
25325W        W41459  13.218  16.376   0.413 -0.1954  0.0023  0.0381
25326W        W41460   8.349  12.790   1.890  0.2645 -0.3981 -0.3538
25327W        W41461   1.794  15.847   3.474 -0.0189 -0.1560  0.0887
25328W        W41462   7.851   3.459   3.879  0.0073  0.0387 -0.0851
25329W        W41463   0.727  11.347  15.370 -0.1749  0.3184 -0.1843
25330W        W41464  10.192  13.868   5.499  0.0776  0.0225 -0.0627
25331W        W41465  13.271   9.993   1.301 -0.0275  0.0014  0.0472
25332W        W41466   2.298   0.534   3.114 -0.0254  0.0368 -0.1285
25333W        W41467  12.836  17.532   4.286  0.2985  0.0345 -0.1912
25334W        W41468   6.861   7.546   1.123 -0.2230  0.0979 -0.0596
25335W        W41469  10.731   6.768  13.337  0.0071  0.1840  0.1220
25336W        W41470  18.393   0.578  14.184 -0.0382  0.1930 -0.0301
25337W        W41471   5.837   4.246   5.457 -0.2345 -0.0620  0.1566
25338W        W41472   6.148   6.277   2.568  0.2432  0.2197 -0.1939
25339W        W41473  12.339  11.597   4.368 -0.1370 -0.1238  0.0241
25340W        W41474   1.890   3.145   0.528 -0.2229 -0.1561  0.2712
25341W        W41475  12.695  16.386  15.754  0.4100  0.2210 -0.2325
25342W        W41476  17.193   8.735   2.435 -0.1655 -0.1574 -0.0832
25343W        W41477  12.280  15.813  12.247  0.1503  0.1976  0.1322
25344W        W41478  16.525   5.541  12.292 -0.2755  0.0022 -0.4646
25345W        W41479  14.346  18.003   0.972 -0.2180  0.1247  0.0217
25346W        W41480   0.662  13.056  13.145  0.1139  0.2012  0.0497
25347W        W41481   9.019   3.880   0.529 -0.4587 -0.2174 -0.0357
25348W        W41482  11.412   6.822   5.417  0.1342  0.1533  0.1559
25349W        W41483   1.761   8.165   0.165  0.1019  0.1362 -0.2625
25350W        W41484   5.690  16.061   2.292  0.3552  0.0869  0.2074
25351W        W41485   2.132  13.962   5.299  0.0905  0.2951 -0.2839
25352W        W41486  13.731   1.490  12.392 -0.0028  0.1309 -0.0912
25353W        W41487  15.318   4.291  12.074  0.0794 -0.1095  0.1906
25354W        W41488  13.036   3.479  11.568 -0.0694 -0.0817 -0.0862
25355W        W41489  10.663  10.574  15.381 -0.1011 -0.0894 -0.0840
25356W        W41490   1.669  13.562  10.797  0.2752 -0.2567 -0.1921
25357W        W41491  17.389  17.396   2.142  0.1337  0.1583 -0.5303
25358W        W41492  10.104  13.194   1.876 -0.1025  0.1368 -0.0752
25359W        W41493  16.262   0.085  13.124  0.0774 -0.0013  0.0995
25360W        W41494  14.402  10.617   2.524  0.0897 -0.4441  0.0010
25361W        W41495   5.275  12.209   1.009  0.0862 -0.0763  0.2977
25362W        W41496  10.060   1.397  15.855 -0.2498 -0.3477  0.1449
25363W        W41497   8.503   5.077  11.738 -0.0693 -0.2103  0.0105
25364W        W41498   2.643   3.403   0.259 -0.1867 -0.0879  0.2032
25365W        W41499  15.649  11.787  11.349  0.0072  0.1738 -0.0712
25366W        W41500   7.586   4.944   0.473 -0.0150 -0.0282  0.1673
25367W        W41501   5.608   7.863   0.991 -0.2263  0.1009  0.6432
25368W        W41502   4.857  13.977  14.033  0.0732 -0.0583  0.0698
25369W        W41503  17.823   4.988   2.266 -0.3531  0.0909 -0.2325
25370W        W41504   0.824   8.586  13.541 -0.0321 -0.0703  0.3305
25371W        W41505  17.252   7.225   1.081 -0.0137 -0.1955 -0.1794
25372W        W41506  14.189  17.262  14.637  0.1536 -0.0356  0.1276
25373W        W41507   6.701  16.572  11.439  0.0777  0.1409 -0.2039
25374W        W41508   4.135   7.784   4.818  0.0924 -0.3038 -0.3918
25375W        W41509   4.080  13.883   2.885  0.2468  0.0356 -0.1216
25376W        W41510  12.326  15.905   1.345 -0.1364  0.0783  0.1431
25377W        W41511   4.461  10.931  14.538 -0.1295 -0.0106  0.0653
25378W        W41512   4.731   5.508   4.808 -0.0763  0.1042 -0.0698
25379W        W41513   2.118  18.101  13.923  0.3334  0.3197  0.2274
25380W        W41514  14.266  12.659   0.294  0.0391  0.0043 -0.1432
25381W        W41515   5.816  13.576  11.798  0.0061  0.0045 -0.1109
25382W        W41516  14.660   4.149   1.102 -0.1223 -0.3519 -0.0269
25383W        W41517   0.326  12.440  10.640  0.0603 -0.1596  0.0994
25384W        W41518  12.040   9.497  11.633 -0.1459 -0.4509  0.3783
25385W        W41519  15.967   1.820  13.374  0.0719 -0.2860 -0.0888
25386W        W41520  17.397   2.947   0.710 -0.2082 -0.1569 -0.3222
25387W        W41521  17.413  12.193  15.949 -0.0178  0.0911 -0.0611
25388W        W41522   4.319  15.781   0.770 -0.1730 -0.1391  0.3001
25389W        W41523  17.884  10.979  16.015 -0.0446  0.0953 -0.1015
25390W        W41524  16.917   5.140  10.964  0.1412  0.2799  0.1540
25391W        W41525   6.748   0.529  12.111 -0.3284 -0.3356  0.0208
25392W        W41526   4.958   1.814  14.312  0.1412  0.2436 -0.0369
25393W        W41527   5.935  11.682   1.920 -0.0073 -0.2519  0.1628
25394W        W41528   7.350  14.414  15.706 -0.1753 -0.0324 -0.1758
25395W        W41529   7.747   3.354   0.371 -0.2416 -0.0616  0.0950
25396W        W41530   7.845   5.466   5.272  0.1799 -0.2751  0.0303
25397W        W41531  14.204   2.767   1.759  0.1545  0.1148 -0.2842
25398W        W41532  14.957  14.889  10.705 -0.1205  0.0102  0.1341
25399W        W41533  10.249   0.140   1.627  0.0044  0.0759 -0.0110
25400W        W41534  18.083  13.180   3.422  0.1263  0.1425 -0.0059
25401W        W41535  14.985   6.115  10.638  0.1298 -0.1831  0.3302
25402W        W41536   5.537  15.496   2.941 -0.2178  0.0965  0.0577
25403W        W41537  10.221   0.645   3.973 -0.1229 -0.1807  0.0241
25404W        W41538   3.076  14.756  12.631 -0.1275  0.1077 -0.0067
25405W        W41539  17.780  14.732  16.030 -0.1124  0.0848 -0.0503
25406W        W41540   9.921   2.462  13.849 -0.1977  0.0531 -0.3431
25407W        W41541  12.603   1.479  11.855  0.0088  0.1111 -0.2215
25408W        W41542   7.955  16.658  12.220  0.0098  0.2378 -0.0056
25409W        W41543   0.710  12.958   3.800 -0.0677  0.1958 -0.0677
25410W        W41544  16.740   4.814  11.325 -0.0310  0.0165  0.1427
25411W        W41545   5.121   4.531   0.472 -0.0588  0.0573  0.2472
25412W        W41546  11.722   4.239  14.968  0.4303 -0.0549 -0.2763
25413W        W41547  12.169   6.141   0.176  0.1897  0.0249  0.0923
25414W        W41548  11.968   8.426  13.877  0.3016  0.0420  0.2457
25415W        W41549  10.033   7.221   4.938 -0.1757 -0.0813 -0.1551
25416W        W41550   4.269  15.501  14.820 -0.0945 -0.2107  0.1688
25417W        W41551  13.451  17.116   3.194  0.0064  0.1747 -0.4468
25418W        W41552  14.057   3.915   2.528 -0.0104  0.3970 -0.0015
25419W        W41553  15.540   6.084   0.399  0.2164 -0.1709  0.2065
25420W        W41554  10.318   9.735   3.019  0.3263  0.0029 -0.0333
25421W        W41555  14.925   7.399   0.831  0.0048 -0.1354  0.1428
25422W        W41556   6.781  11.254   4.314  0.0992  0.1178  0.1304
25423W        W41557  13.993  15.250   1.607 -0.1826  0.0419 -0.1987
25424W        W41558  13.045  10.601  12.523 -0.0337  0.0351  0.0120
25425W        W41559   6.128   8.879  15.234 -0.2456 -0.0261  0.0800
25426W        W41560   6.111  14.355   4.715  0.0154 -0.1547 -0.1009
25427W        W41561   8.734  10.148  15.951  0.0135  0.0461 -0.0587
25428W        W41562  14.686  10.786  10.944 -0.2265  0.0274 -0.5551
25429W        W41563   6.709   9.483   4.533 -0.1061  0.0319 -0.1023
25430W        W41564   5.131  10.092   1.137  0.1966  0.0650 -0.0884
25431W        W41565   1.188   7.801   4.396  0.3008 -0.1289  0.0618
25432W        W41566  14.224   1.833   3.711  0.1892 -0.0598 -0.0401
25433W        W41567   5.662  12.506  10.033  0.3916  0.1889 -0.2585
25434W        W41568   9.021  11.921   5.506  0.1553  0.3399  0.3047
25435W        W41569   3.703  11.768   3.019 -0.0069  0.1342  0.1113
25436W        W41570  16.882   4.429   1.616  0.1667  0.1387  0.0884
25437W        W41571   8.686   3.022  12.579 -0.3577 -0.1321  0.2323
25438W        W41572  15.229   7.774  15.171  0.0334  0.1656  0.2625
25439W        W41573  17.591  18.347   3.629  0.1020  0.2518  0.0422
25440W        W41574  13.806   5.419   0.217 -0.2043 -0.2172  0.2809
25441W        W41575  16.018  11.742   3.626 -0.0672  0.2310 -0.0967
25442W        W41576  13.211   8.599  11.992  0.1711  0.2150 -0.2674
25443W        W41577   6.891   1.079   4.428 -0.0640  0.0790  0.0075
25444W        W41578  18.325  13.582  13.315 -0.1648 -0.2081  0.1809
25445W        W41579  12.583  15.479   5.344  0.5622  0.1430  0.2512
25446W        W41580   3.744   7.057   1.153  0.1045 -0.4432  0.0378
25447W        W41581   6.444   9.812   3.917  0.0870  0.5652 -0.0447
25448W        W41582   8.297  18.437   5.367 -0.0624 -0.1802  0.1401
25449W        W41583  18.168  17.619   3.277  0.1850 -0.1258  0.0441
25450W        W41584  10.087  18.495   2.324 -0.3635 -0.0568  0.3055
25451W        W41585  16.796  15.832  15.470 -0.0463 -0.1378  0.1765
25452W        W41586   8.790  15.120   4.973 -0.3789 -0.3956 -0.0879
25453W        W41587   6.163   9.321   0.692 -0.0801  0.1342  0.1772
25454W        W41588   4.165   2.950  10.659 -0.0893 -0.2003  0.0199
25455W        W41589   9.244  14.673  13.347  0.0225 -0.0810 -0.4276
25456W        W41590  14.074   3.877  12.827  0.0885 -0.0634  0.5497
25457W        W41591  10.689   5.140  15.908  0.3695 -0.1005 -0.3152
25458W        W41592   6.473   5.459  11.426  0.1584 -0.0510  0.2534
25459W        W41593   7.176  17.304   4.073 -0.1345  0.2144 -0.1258
25460W        W41594  11.531   4.676   5.272  0.0990 -0.0945 -0.2921
25461W        W41595  17.917   0.961  15.402  0.3235 -0.3728  0.0654
25462W        W41596   3.307   9.799   2.931  0.0908  0.0713 -0.0082
25463W        W41597   5.885   1.493   1.711 -0.1905 -0.1344  0.0364
25464W        W41598  14.621   2.760   1.435 -0.1906 -0.0831 -0.0817
25465W        W41599   1.135   9.315  14.405 -0.2175 -0.3140 -0.2626
25466W        W41600  12.898   7.154   3.710 -0.2300  0.2055  0.0061
25467W        W41601  14.778   3.672   4.889  0.1942  0.1104  0.3262
25468W        W41602   3.488  16.496   3.455 -0.1558  0.2005 -0.0249
25469W        W41603  16.671   7.798   4.929 -0.1295  0.3513  0.2668
25470W        W41604  15.931  14.346  12.091  0.0881 -0.3653 -0.2245
25471W        W41605   1.674   8.430  15.266 -0.1450  0.0467  0.2066
25472W        W41606  10.431   8.468  13.244 -0.0760  0.2811  0.1742
25473W        W41607  15.703  18.310   4.054  0.2452  0.0543 -0.2151
25474W        W41608  16.873  16.142   0.015  0.1916 -0.1276 -0.2332
25475W        W41609   1.132   7.321  14.358 -0.0498  0.2709  0.1910
25476W        W41610   6.410   5.075   1.524  0.1272 -0.1433  0.0836
25477W        W41611  16.138   0.832  11.022  0.0114 -0.0066 -0.0649
25478W        W41612  10.118  16.470  10.874 -0.0492 -0.0710 -0.2559
25479W        W41613  13.968   1.505   5.004 -0.1817 -0.2408  0.2709
25480W        W41614   2.900  13.899   3.441  0.2388 -0.1785 -0.0147
25481W        W41615   7.952   5.037   5.088 -0.2899  0.1760  0.3071
25482W        W41616  13.982  17.089   0.512  0.0470  0.0760  0.1835
25483W        W41617   7.226  10.869   3.621 -0.0491  0.0404 -0.1081
25484W        W41618  12.680  17.711   4.672 -0.0378  0.2003 -0.2296
25485W        W41619  15.860   5.070  12.828  0.3607 -0.0800  0.0669
25486W        W41620  12.655   7.931  11.772  0.0682  0.1168 -0.1237
25487W        W41621  14.547  13.990  14.331 -0.2058  0.1437  0.1825
25488W        W41622  17.898   2.229   2.415  0.1990 -0.0866 -0.1050
25489W        W41623   3.927   9.669  10.099 -0.1659  0.0247 -0.0403
25490W        W41624   6.679  11.912   5.556 -0.2555 -0.1378  0.1073
25491W        W41625  17.359   2.548  15.979  0.3069  0.2189 -0.0563
25492W        W41626  17.098  14.543   4.567  0.3427 -0.0761 -0.2778
25493W        W41627   0.446  15.998   4.809  0.0096 -0.0252 -0.1791
25494W        W41628  13.927  12.507  12.523  0.2537 -0.1666 -0.0838
25495W        W41629   0.673   8.073  14.737  0.0110  0.0235  0.2966
25496W        W41630   9.164   5.464   5.342 -0.2841  0.1116 -0.1568
25497W        W41631   5.635  17.777   1.832 -0.2568  0.2829  0.2801
25498W        W41632  13.501   0.875   3.852  0.1412  0.1351  0.2964
25499W        W41633   6.219  13.307   3.594  0.2167  0.0279 -0.2055
25500W        W41634  10.090   5.817   1.766 -0.0931 -0.0770 -0.2694
25501W        W41635  17.568   0.614  11.263 -0.0602  0.2726  0.0660
25502W        W41636  10.279   7.803   1.432 -0.2680 -0.2331 -0.1853
25503W        W41637  11.225   5.929   4.127  0.3368  0.2616  0.0645
25504W        W41638  16.185   6.695  11.410 -0.1678  0.3613  0.2203
25505W        W41639   9.169  12.728   2.391  0.0221  0.0874 -0.0522
25506W        W41640   9.538  14.092   0.403  0.1352 -0.1758  0.0312
25507W        W41641   2.443   1.681   0.317 -0.1688 -0.4975  0.1912
25508W        W41642  13.600  14.855   0.925  0.3174  0.1045 -0.0226
25509W        W41643   3.847  10.768   1.293  0.2798  0.1261  0.0514
25510W        W41644   1.554  13.001  13.587 -0.0763 -0.1152  0.2436
25511W        W41645  17.830   8.314  14.343  0.1925  0.0218  0.3713
25512W        W41646   2.612   8.147   4.559 -0.2382  0.2177 -0.1677
25513W        W41647  14.714  14.073  15.627  0.0444  0.1385  0.1999
25514W        W41648   3.356  13.610  15.523  0.0690 -0.2859  0.0205
25515W        W41649   3.069  18.367   5.982  0.0317  0.0633  0.0726
25516W        W41650   1.000  14.558  10.984  0.0290 -0.0650  0.0184
25517W        W41651   4.442  13.054  13.522  0.0037  0.0061 -0.0136
25518W        W41652  15.739  18.131   2.717  0.0865 -0.0822 -0.2967
25519W        W41653   2.053  16.340   5.467  0.2698  0.1041  0.0984
25520W        W41654   5.790   9.312   1.026  0.0781 -0.0108 -0.1508
25521W        W41655   4.896   8.764  13.758 -0.0197 -0.1352 -0.0397
25522W        W41656  17.800  14.042  11.162  0.0362 -0.0638  0.2108
25523W        W41657  16.658   1.224   1.345 -0.0934 -0.0758  0.1537
25524W        W41658  10.623   4.715   5.835 -0.0631 -0.2111  0.0107
25525W        W41659   2.195  10.238  11.387 -0.0009 -0.0818 -0.3698
25526W        W41660  11.432   9.682   0.871  0.3180 -0.1269  0.1273
25527W        W41661  10.611  14.539  14.228 -0.0722 -0.1126 -0.1817
25528W        W41662  17.218  15.827   3.388  0.0000  0.1152  0.1334
25529W        W41663   2.642   2.696   1.714 -0.1860 -0.1043  0.2139
25530W        W41664  10.935   8.067  12.042 -0.0341  0.2246  0.2743
25531W        W41665  13.588   9.599   3.521 -0.0794 -0.1189 -0.4010
25532W        W41666   4.441   6.373  10.964 -0.0601  0.1823 -0.1277
25533W        W41667  11.629  11.183   1.153 -0.2498 -0.1163  0.0809
25534W        W41668   3.483  15.201  14.117 -0.2859 -0.2530 -0.3054
25535W        W41669   4.075   8.449  15.248 -0.3399 -0.0159  0.2600
25536W        W41670   0.632  10.754  11.892  0.2225  0.0397  0.2351
25537W        W41671  14.793   2.426   1.158 -0.0811  0.0031  0.2166
25538W        W41672  14.468   9.950   5.073  0.1917  0.0667 -0.3373
25539W        W41673  14.185  16.305  12.642  0.0624  0.1716  0.1471
25540W        W41674  12.002  17.644  12.768 -0.2987  0.0511 -0.1919
25541W        W41675  14.985   3.754  11.458 -0.0503  0.1723  0.0821
25542W        W41676  18.374   9.631   2.808  0.1031 -0.1992 -0.0604
25543W        W41677   8.125  10.169   3.439 -0.1099  0.2915  0.0021
25544W        W41678   2.869  13.572  14.880 -0.0912  0.2314  0.2213
25545W        W41679  17.589   5.696   1.729  0.0646 -0.0654  0.1585
25546W        W41680   5.331  17.109  10.416  0.3847 -0.1754 -0.0875
25547W        W41681   8.392   1.576  13.758 -0.0104  0.2130  0.1323
25548W        W41682   8.322   1.535   0.446  0.1554  0.0021 -0.0005
25549W        W41683  17.586   2.937   4.753  0.2282 -0.2806 -0.3813
25550W        W41684   9.962  14.945   0.755 -0.0128 -0.1879 -0.1282
25551W        W41685  15.938  15.706  13.637 -0.0197 -0.0214  0.0955
25552W        W41686   1.917  12.153   4.712 -0.0602  0.2496 -0.0447
25553W        W41687  10.142   4.457   1.700 -0.0173  0.2734 -0.0654
25554W        W41688   5.825  18.082  11.240  0.0047 -0.0362 -0.2104
25555W        W41689   3.405   8.314  15.334  0.1092 -0.0747 -0.0453
25556W        W41690   4.241  12.700  12.712  0.2681  0.0555  0.1885
25557W        W41691  18.160  15.011   9.670 -0.0860 -0.0568 -0.1647
25558W        W41692  17.460  15.007  12.470  0.1187 -0.3060  0.1231
25559W        W41693   1.504  14.261  13.395  0.0331 -0.1121  0.3980
25560W        W41694   0.457   6.564   0.900 -0.0876 -0.1116 -0.0646
25561W        W41695  17.191   4.793   1.831  0.3098  0.0632 -0.1165
25562W        W41696  13.584  14.990  11.846 -0.0832  0.0158 -0.0236
25563W        W41697  11.773  17.234   2.907 -0.2813  0.0691 -0.2324
25564W        W41698   7.773   7.408  12.135  0.5458 -0.0330  0.4009
25565W        W41699   4.777   8.481  11.324  0.0825 -0.0091  0.2550
25566W        W41700  12.459  15.298  13.307 -0.2101 -0.2528  0.2583
25567W        W41701   1.021   9.572  10.810  0.1780 -0.0099 -0.0104
25568W        W41702   3.752  14.641   0.616  0.0466  0.1445  0.1627
25569W        W41703  18.499  15.415   1.117  0.3226  0.3197  0.0540
25570W        W41704  11.435   8.707   2.626  0.0682 -0.2710 -0.1262
25571W        W41705  15.775   4.118  15.580  0.0794 -0.0944 -0.2408
25572W        W41706   4.378  17.226  15.683  0.2205 -0.2181  0.0245
25573W        W41707   5.843   1.816  14.289  0.3119 -0.1189  0.0871
25574W        W41708   2.103  17.218   0.632 -0.0449 -0.1592 -0.3035
25575W        W41709  17.268  18.253  12.117  0.2527 -0.2225  0.0024
25576W        W41710   7.791   2.188   3.920  0.2725 -0.1791 -0.3805
25577W        W41711  11.907   9.110   5.655  0.0772  0.0382  0.0927
25578W        W41712   0.841   1.762  12.824 -0.0701  0.5288 -0.1485
25579W        W41713  16.636  11.970  13.620 -0.1380  0.0914 -0.2195
25580W        W41714  10.064  12.395  13.257 -0.2116  0.1747  0.2730
25581W        W41715  13.682   3.246   3.642 -0.0544  0.0802  0.0679
25582W        W41716  11.561  16.474  14.470  0.3234  0.3107 -0.1626
25583W        W41717   9.454  17.204  12.042 -0.0011 -0.0642  0.1560
25584W        W41718  14.403   1.340   4.058 -0.1311 -0.0286  0.0173
25585W        W41719   9.977   8.210   1.540 -0.0419 -0.2558  0.0761
25586W        W41720   9.017  10.830  12.440  0.1394  0.0871 -0.3504
25587W        W41721  15.855  16.369  12.157  0.0429 -0.0958 -0.1570
25588W        W41722   5.860  16.573  13.157  0.2514  0.1743  0.4031
25589W        W41723   6.192  18.386   5.514 -0.0365 -0.1472 -0.0906
25590W        W41724  10.009   4.640  11.593  0.2298  0.0787  0.3183
25591W        W41725  13.812  13.467   4.929  0.1091  0.1326 -0.1755
25592W        W41726  10.605  11.851   6.237 -0.0703  0.2060  0.2719
25593W        W41727  10.333  17.909  14.469 -0.0866 -0.2704  0.2873
25594W        W41728  10.393  10.209  11.752  0.0492 -0.1816  0.1481
25595W        W41729  14.825  13.401   1.682 -0.1966  0.3393  0.0938
25596W        W41730   4.645  12.406  15.519  0.0649 -0.0009  0.2719
25597W        W41731  13.243  13.134  11.346  0.1018 -0.1057  0.2275
25598W        W41732   7.875   7.862   3.070 -0.1560  0.2500 -0.0700
25599W        W41733   8.739  13.526   1.634  0.0548  0.0687 -0.0625
25600W        W41734  13.320   6.362   4.152  0.2327  0.1592  0.1738
25601W        W41735  10.993   9.305   3.508 -0.1788  0.1536 -0.0304
25602W        W41736   2.018   2.818   6.195 -0.1737  0.0832  0.0888
25603W        W41737   4.685  12.313  14.499 -0.0197 -0.0218 -0.0539
25604W        W41738   6.029   5.157   3.130  0.0261 -0.1824 -0.0467
25605W        W41739   1.211   2.296  14.714  0.0674 -0.1407  0.0156
25606W        W41740  15.625   9.927   1.329 -0.0090 -0.0031 -0.0554
25607W        W41741  14.168   7.790   2.661  0.1934  0.1541  0.0774
25608W        W41742   0.979   5.312   0.498 -0.0736 -0.2451  0.3461
25609W        W41743   0.374  15.158   1.711  0.0643  0.0204 -0.2166
25610W        W41744  15.234  12.936   4.260 -0.1373  0.2338  0.2060
25611W        W41745   0.408   7.166   0.389  0.1402 -0.3907 -0.0238
25612W        W41746  15.347  14.417  11.987  0.1945 -0.1527 -0.1347
25613W        W41747   1.922   2.749   5.167 -0.2913  0.0441  0.0495
25614W        W41748  14.864   6.935   0.653  0.1678  0.2816 -0.0751
25615W        W41749   6.201   1.010  16.052 -0.2318  0.2641  0.1973
25616W        W41750  11.704  10.348   4.103 -0.1108  0.1053  0.0401
25617W        W41751  15.781  18.242  14.763 -0.4073 -0.3080 -0.1713
25618W        W41752   6.421  15.011   1.277 -0.1057 -0.0559  0.2151
25619W        W41753  14.089  18.496  12.581  0.1925  0.1837 -0.0624
25620W        W41754   6.608  15.844  14.551 -0.3130 -0.1756 -0.3239
25621W        W41755   2.009  12.465   4.260 -0.2728  0.0186 -0.2086
25622W        W41756  13.286  16.671  15.121 -0.0471 -0.1511  0.0682
25623W        W41757   7.065   0.984  12.831  0.0131 -0.1229 -0.1427
25624W        W41758  16.178   4.334  15.210  0.1428 -0.3146  0.0879
25625W        W41759   4.117   1.222   3.318  0.1301 -0.1112  0.1471
25626W        W41760  14.764  12.867   0.240  0.0800 -0.2872 -0.1850
25627W        W41761   8.160   1.790  12.592  0.2673  0.1359  0.2378
25628W        W41762  11.585   9.268  15.565  0.4157  0.3450  0.1268
25629W        W41763   7.770  16.752  14.737  0.0932 -0.2433  0.1026
25630W        W41764   0.542  13.050   3.276  0.1020  0.2937  0.3202
25631W        W41765   5.372   0.326   0.022  0.1037  0.1733  0.0209
25632W        W41766  14.971  17.452   4.631  0.1282 -0.1027 -0.2815
25633W        W41767   3.730   4.511  10.764 -0.1006 -0.3645  0.0325
25634W        W41768   1.182   7.797   3.899 -0.0130 -0.3682 -0.1920
25635W        W41769   0.533  15.144  11.833 -0.1055 -0.0602 -0.3411
25636W        W41770   9.996   7.253  13.825 -0.0831 -0.1667  0.1071
25637W        W41771   0.268   7.147  15.613 -0.3159 -0.0903 -0.2311
25638W        W41772  12.314   1.813  14.074 -0.2212 -0.0337 -0.1858
25639W        W41773   9.136   3.423   3.282 -0.0378  0.2495  0.2080
25640W        W41774   4.015   2.059   2.442 -0.2141  0.0703 -0.3562
25641W        W41775  13.140   5.791  15.689 -0.0040 -0.1200  0.0083
25642W        W41776   7.858   6.031  13.608  0.1989 -0.1676 -0.2397
25643W        W41777  12.425   7.509  13.082  0.3133 -0.1033 -0.2759
25644W        W41778  15.638  14.814  14.467  0.0353  0.1527  0.1695
25645W        W41779  15.651  16.886  13.397 -0.1397  0.1796  0.0001
25646W        W41780   8.980   7.021   0.637 -0.0315 -0.0602 -0.1019
25647W        W41781   4.775   1.139  14.970  0.0449  0.3198 -0.1491
25648W        W41782  15.175   6.473  13.720  0.5830 -0.1092  0.1970
25649W        W41783   7.293  15.783  14.224 -0.1839 -0.0607  0.2372
25650W        W41784   4.737  10.081  15.723  0.3866 -0.1585  0.1242
25651W        W41785  12.509  15.541  14.573 -0.2070 -0.0548 -0.2103
25652W        W41786  16.497   8.973  14.394 -0.2638 -0.3164 -0.1798
25653W        W41787   2.819  17.148  13.266 -0.0385 -0.2514  0.1754
25654W        W41788   6.017   8.180   0.069  0.1830  0.0274  0.0318
25655W        W41789  17.484   1.142   0.783  0.1315  0.0976 -0.0063
25656W        W41790   8.582  11.228   5.189  0.2424  0.1425 -0.2543
25657W        W41791  18.061   0.662  12.190  0.2442 -0.1942 -0.1936
25658W        W41792   7.602  16.630   0.561  0.3513 -0.1851  0.1630
25659W        W41793   3.957   9.611   0.007  0.3861  0.1064  0.1010
25660W        W41794   3.602   5.057   3.554 -0.4539  0.0998 -0.3483
25661W        W41795   1.066   6.586   1.569 -0.1349 -0.0656 -0.0051
25662W        W41796   3.323   5.223  13.012 -0.1326 -0.0932  0.1132
25663W        W41797  12.796   5.271  14.981 -0.1396 -0.0391 -0.1266
25664W        W41798  13.656   1.173   5.221 -0.1698  0.1591  0.0014
25665W        W41799   2.218   8.952  16.035  0.0093 -0.1702  0.0698
25666W        W41800  16.947   4.388  12.109 -0.0933 -0.0612 -0.1987
25667W        W41801  12.646   9.659  14.135  0.1429 -0.1217 -0.3098
25668W        W41802   4.098  11.218   0.280  0.1324 -0.3666 -0.0743
25669W        W41803   3.615   5.302   2.535 -0.0393 -0.3038  0.0180
25670W        W41804   4.141   4.323  15.861 -0.2231  0.0341 -0.2209
25671W        W41805   0.336   4.574   4.181  0.2269  0.1669 -0.0648
25672W        W41806   2.772   1.250   3.947  0.1726 -0.1020  0.1621
25673W        W41807  10.695  14.414   3.832 -0.2378 -0.1570  0.0535
25674W        W41808  17.014   3.719   3.259 -0.4563  0.0754 -0.2886
25675W        W41809   2.393  17.114   3.365  0.2011 -0.3565 -0.3383
25676W        W41810   4.725  16.529  13.809 -0.2236 -0.1393  0.2599
25677W        W41811  13.917   7.649  15.559 -0.0047  0.1006  0.0049
25678W        W41812   3.055   3.842  13.933 -0.2392 -0.1443 -0.2322
25679W        W41813  10.043  17.648   2.659  0.0610 -0.0022  0.1269
25680W        W41814  15.649   1.860  12.980 -0.0125  0.1625  0.2059
25681W        W41815  11.295  18.012  13.088  0.0393  0.1567 -0.1214
25682W        W41816   5.382  13.099   5.268 -0.1206 -0.0409 -0.0947
25683W        W41817   9.824   6.483   2.283  0.1700 -0.2025  0.0354
25684W        W41818  17.813  14.793  11.513 -0.2159 -0.1963 -0.0686
25685W        W41819  13.972   6.963  14.157  0.0521 -0.0148  0.0142
25686W        W41820   5.553   1.864   4.378  0.1438 -0.1063 -0.2779
25687W        W41821  16.351  14.692   3.265 -0.1542  0.2314 -0.2368
25688W        W41822  16.284   1.978   0.414 -0.0280 -0.2688  0.1195
25689W        W41823  15.111   4.844   0.525 -0.1644 -0.2346  0.2812
25690W        W41824  18.092   5.205   5.682  0.2095 -0.0150 -0.1937
25691W        W41825   8.222  17.098  12.703 -0.0632 -0.0765  0.2630
25692W        W41826  14.575  12.952   1.761  0.4014 -0.0609  0.1169
25693W        W41827  13.428  15.968  15.948  0.1455 -0.3354  0.4275
25694W        W41828   9.295   1.910  15.545 -0.2776  0.0182 -0.2150
25695W        W41829  15.597   6.713   0.944 -0.1841 -0.2931 -0.0252
25696W        W41830  16.195   9.198   3.352 -0.1621  0.2006 -0.3981
25697W        W41831   0.189  10.976   3.726  0.1086 -0.1642 -0.1610
25698W        W41832  10.886   4.240   2.496  0.0872 -0.1293 -0.4192
25699W        W41833  17.165   7.158  11.726 -0.0648 -0.3171  0.4022
25700W        W41834   3.793   4.693   4.069  0.1063  0.0266  0.1217
25701W        W41835   0.323   8.113   4.217 -0.1515  0.1146 -0.1048
25702W        W41836  13.701   2.511  12.943  0.2936  0.0564  0.1840
25703W        W41837   5.242   7.108   2.363 -0.0494 -0.0229 -0.1638
25704W        W41838  13.670   7.543   3.316 -0.0859 -0.2111  0.3087
25705W        W41839   8.512   8.920  11.692  0.1357  0.1304  0.0374
25706W        W41840  16.543  13.948  13.743  0.1496 -0.1549 -0.0119
25707W        W41841   0.995   5.495   3.790 -0.0323 -0.1469  0.0592
25708W        W41842  11.916   5.652  13.770  0.0665  0.1365  0.2572
25709W        W41843   1.304   4.103  13.518  0.0810 -0.2995 -0.3843
25710W        W41844  10.770   2.359   2.859 -0.2101 -0.0319 -0.1536
25711W        W41845  17.569  11.829  13.981  0.0268  0.2231  0.2858
25712W        W41846  14.916  16.518  12.187 -0.0822 -0.1344  0.1281
25713W        W41847  18.406  16.499  11.099 -0.1567 -0.1566 -0.6607
25714W        W41848  10.784   2.634  12.929 -0.1688 -0.2161 -0.3796
25715W        W41849   3.108  10.817  14.353  0.0084  0.2627 -0.0600
25716W        W41850  10.268  11.555  15.976  0.2212  0.1162  0.1975
25717W        W41851  17.504   9.588  10.997 -0.2441  0.1146  0.2598
25718W        W41852   2.770   0.136   0.780 -0.1109  0.2857  0.0275
25719W        W41853  14.350  15.031  13.650  0.1303 -0.1842  0.0728
25720W        W41854   3.543  13.642  12.684  0.0366 -0.1003 -0.0550
25721W        W41855  16.470   4.435  11.155 -0.0001 -0.3717 -0.4104
25722W        W41856   1.105  10.701  15.932  0.1722 -0.2330  0.1387
25723W        W41857   6.917  12.304   1.407  0.2572 -0.0469 -0.2045
25724W        W41858   7.139   9.922   2.040 -0.2715  0.2399 -0.2463
25725W        W41859   3.816  14.714   2.358 -0.0009 -0.0494 -0.0846
25726W        W41860  12.117   7.019   4.804  0.1305  0.2037 -0.2363
25727W        W41861   3.520   7.408  10.523  0.1688  0.0298 -0.0258
25728W        W41862   6.707   9.360  13.130 -0.0497  0.3135  0.4429
25729W        W41863  15.348   9.551   1.022  0.4611 -0.1162 -0.0811
25730W        W41864  12.212   5.144  13.565  0.0609 -0.1027 -0.0384
25731W        W41865  15.376   1.103  15.294 -0.0381 -0.1820  0.0292
25732W        W41866  14.504  11.673   4.277  0.1110 -0.1533  0.2929
25733W        W41867   3.798   9.038  14.719  0.3335  0.0813  0.2373
25734W        W41868   8.150  11.045   3.460 -0.2159  0.0215  0.0809
25735W        W41869   7.988  16.323   0.873 -0.4480  0.0524 -0.0844
25736W        W41870   6.052   4.816   4.039 -0.2019  0.0244 -0.0444
25737W        W41871   8.029   0.984   4.545 -0.2152 -0.0412  0.0879
25738W        W41872  14.815   4.029  15.685 -0.0071  0.1458  0.0088
25739W        W41873  13.931   9.578   3.979  0.3206  0.0384 -0.0750
25740W        W41874  13.214   1.424  14.954 -0.0019  0.2504 -0.2315
25741W        W41875  12.343   2.655  13.184 -0.0653 -0.0730  0.2519
25742W        W41876   2.306  13.024   0.257  0.3275  0.2077 -0.0704
25743W        W41877   3.118   0.971  14.854 -0.3042 -0.1489 -0.2230
25744W        W41878   5.271  17.667   0.170  0.0435 -0.1951  0.1351
25745W        W41879  11.874  10.438   2.478 -0.1716 -0.2854  0.1263
25746W        W41880   1.066  14.462   0.185 -0.6139 -0.0596 -0.0485
25747W        W41881  15.942  16.889   3.886  0.2386 -0.5558 -0.1256
25748W        W41882   6.868   9.759   1.065  0.0287  0.3366  0.0922
25749W        W41883   6.292   2.975   4.628 -0.1519  0.0991  0.0270
25750W        W41884   0.095  14.993   4.664  0.3121 -0.1180  0.0236
25751W        W41885   0.008  15.656   2.682 -0.2036 -0.0881  0.2396
25752W        W41886  14.295   1.693   1.431 -0.2054  0.0884  0.0087
25753W        W41887  12.527  14.251   3.443  0.0836 -0.0237 -0.1157
25754W        W41888   3.045   0.303   2.048 -0.0423  0.3485  0.4130
25755W        W41889   4.767  17.539   1.427  0.1660 -0.2270  0.0124
25756W        W41890  14.150  14.145   3.538 -0.1858  0.2436  0.0151
25757W        W41891  17.326  12.525   4.628  0.0298  0.4714  0.1040
25758W        W41892   0.797  15.112   3.277 -0.1113 -0.0183 -0.0540
25759W        W41893   9.400  11.537   1.442 -0.0903  0.1997 -0.1914
25760W        W41894   3.827   9.258   4.076 -0.0455  0.5492  0.0328
25761W        W41895   6.117   0.123  13.000 -0.4496  0.0716 -0.0010
25762W        W41896  12.915   7.691   0.144 -0.4715  0.0116  0.4588
25763W        W41897   3.564   5.036   5.311 -0.3146  0.0550 -0.0648
25764W        W41898  14.449   1.230   2.100 -0.1837 -0.1044 -0.2740
25765W        W41899   6.155   8.817   4.270 -0.2195 -0.0195  0.0512
25766W        W41900   3.807   5.735   0.945  0.1756 -0.1312  0.1625
25767W        W41901   0.181   0.315   3.779 -0.1631  0.0199 -0.1892
25768W        W41902  12.447   7.825   3.830  0.1383 -0.0578  0.1776
25769W        W41903   4.262   6.530   2.085  0.0317 -0.1234  0.3340
25770W        W41904   4.765   6.151   0.731  0.2895 -0.0967  0.1025
25771W        W41905   5.055   2.775  12.995  0.3459  0.2579 -0.1144
25772W        W41906   7.834   7.595  15.398  0.2775 -0.1796  0.2822
25773W        W41907   6.218  10.292  12.088 -0.3318 -0.2390 -0.2292
25774W        W41908  15.549   0.700   0.132  0.0591  0.1650 -0.3057
25775W        W41909   8.150   2.525   0.520 -0.2101 -0.1002  0.0622
25776W        W41910  14.306  10.734   5.440 -0.3874 -0.1582  0.0996
25777W        W41911  14.389  13.710  13.873 -0.1846  0.2571  0.2429
25778W        W41912   9.018  17.813   3.283  0.2180 -0.1051 -0.1796
25779W        W41913   2.075   6.424  12.753  0.0155 -0.0772  0.0850
25780W        W41914   8.128   0.652  14.984  0.1331  0.2377 -0.0671
25781W        W41915   9.134  10.179   3.142  0.0567  0.1807 -0.0587
25782W        W41916   0.135  16.527   2.972  0.1234 -0.0425  0.0961
25783W        W41917   3.660   9.824   2.077 -0.0611 -0.1535  0.2434
25784W        W41918  13.215   6.719  12.237  0.3357 -0.1416 -0.0989
25785W        W41919  10.700  14.767   4.391 -0.0351  0.1850 -0.0342
25786W        W41920   6.219   2.474   2.457 -0.0123  0.1155  0.1449
25787W        W41921   3.811   6.420  12.981 -0.2392 -0.1058  0.0638
25788W        W41922   0.914   3.194   1.029  0.0584 -0.1516  0.0873
25789W        W41923   1.643  11.623   1.242  0.1907  0.0339 -0.0695
25790W        W41924   2.386   2.906  14.000 -0.0658 -0.1764 -0.1302
25791W        W41925   5.376   0.178  14.959  0.2878 -0.1093  0.1163
25792W        W41926  13.236  10.839   0.347 -0.0797  0.0886  0.2737
25793W        W41927   7.884  17.213   1.473 -0.2777 -0.0662 -0.2037
25794W        W41928   8.589   1.077   4.630 -0.2606 -0.3184 -0.0340
25795W        W41929   4.059   6.857   4.275  0.1378 -0.0190  0.0399
25796W        W41930  17.671   0.783   2.837 -0.1531  0.1489 -0.1735
25797W        W41931   6.993  13.931  16.042  0.1090  0.1687  0.3059
25798W        W41932   4.524   4.205   3.023 -0.1871 -0.0982 -0.1148
25799W        W41933   7.093  10.118   5.766 -0.2156  0.3346 -0.2978
25800W        W41934   8.928   9.473  13.972 -0.0474 -0.1218 -0.2136
25801W        W41935  16.447  15.371   3.695 -0.0025 -0.0011  0.1750
25802W        W41936   4.523  13.678   2.654 -0.0120 -0.1319  0.0896
25803W        W41937   3.435   0.901   4.400 -0.1130 -0.1691 -0.0197
25804W        W41938   4.581  16.973   2.674 -0.0578 -0.1975 -0.3838
25805W        W41939  15.594   4.167  11.134  0.1299  0.0479  0.1229
25806W        W41940   0.079   3.556  12.906  0.1035 -0.1655  0.1449
25807W        W41941  11.396  14.379   4.844  0.0831  0.0853  0.1371
25808W        W41942   7.009  15.405  12.778 -0.1686 -0.1720  0.1896
25809W        W41943  17.093  10.029  11.516  0.0002 -0.0299 -0.1147
25810W        W41944   0.975   0.807  12.571 -0.0547 -0.1169  0.2177
25811W        W41945   5.788   0.292  12.122  0.1288  0.1518  0.1596
25812W        W41946   0.675   1.681   2.727  0.2703  0.0021  0.2050
25813W        W41947   5.474   9.128   4.058 -0.1794  0.0435 -0.1137
25814W        W41948   7.632   3.336  14.694 -0.2273 -0.0450  0.2752
25815W        W41949  14.365   0.083  11.540  0.1525  0.1055  0.2138
25816W        W41950   1.205  10.603  14.512 -0.3284 -0.0098 -0.2332
25817W        W41951  13.219   6.546   5.860 -0.0746 -0.2021  0.4934
25818W        W41952  10.877   1.283   3.124 -0.1761 -0.0916 -0.1892
25819W        W41953   4.713   3.954  13.416 -0.0141 -0.0791  0.0244
25820W        W41954  18.459   9.572   1.704 -0.1665 -0.2134  0.0134
25821W        W41955  11.155   7.375   0.269  0.0906 -0.3341 -0.1987
25822W        W41956   4.329   5.466   3.878  0.1104 -0.1242 -0.3715
25823W        W41957   7.943   7.860  11.890 -0.0830  0.0344  0.1023
25824W        W41958  15.255   8.959   2.883 -0.2887  0.0560 -0.1692
25825W        W41959   5.465  15.990   1.642 -0.0775 -0.0751  0.1847
25826W        W41960  13.451   7.274   0.735 -0.0261 -0.0279  0.0191
25827W        W41961  17.082   4.214  16.082 -0.3049  0.0710  0.0514
25828W        W41962   0.082  15.871  11.530  0.0583  0.2335 -0.0893
25829W        W41963  14.375  18.322  13.856 -0.1953 -0.0155  0.0940
25830W        W41964   0.932   0.163   2.892 -0.3388  0.2020 -0.0927
25831W        W41965   8.600   7.496   4.461 -0.0185 -0.1195  0.2123
25832W        W41966   1.382  13.739   1.384  0.1865 -0.2350 -0.2853
25833W        W41967   9.679   3.580   1.776  0.0811  0.0741  0.2002
25834W        W41968  12.628   9.461   3.643  0.1760 -0.1032 -0.2656
25835W        W41969  12.045   2.858   2.917 -0.2702 -0.0963  0.5433
25836W        W41970   4.810  16.599   0.006  0.1905 -0.1471 -0.1140
25837W        W41971  12.162  17.118  14.505 -0.0184 -0.2573 -0.1912
25838W        W41972  17.818  14.413   2.439 -0.0817 -0.0290 -0.0665
25839W        W41973   8.846  14.609   3.553 -0.0721 -0.3076 -0.0166
25840W        W41974  16.329  13.339  12.292  0.2923 -0.0640  0.0198
25841W        W41975  15.513  15.756  13.889  0.3585  0.1602 -0.0258
25842W        W41976   9.578   9.540   3.636  0.0806 -0.0910 -0.2090
25843W        W41977   2.966  14.954  14.002  0.1606 -0.2282 -0.1031
25844W        W41978   1.346   2.441   4.325  0.0768 -0.0798  0.3810
25845W        W41979  14.469   2.253   3.046  0.1206  0.1385  0.0934
25846W        W41980  15.232  15.320   4.428  0.1106 -0.3209  0.1486
25847W        W41981  12.603   4.895  15.270  0.0625  0.1499 -0.1124
25848W        W41982   0.296   1.084  10.970  0.3938  0.1872  0.1095
25849W        W41983   0.292  14.714   0.487 -0.1555  0.1803  0.0710
25850W        W41984   2.175  13.606  12.457  0.1251  0.2758 -0.1564
25851W        W41985  10.969   5.133   3.779 -0.0504 -0.2478  0.0498
25852W        W41986  16.036  13.307  10.817 -0.0072  0.0441  0.0919
25853W        W41987   8.427  15.877  11.709 -0.1294  0.0656 -0.0151
25854W        W41988  18.126  15.092  11.787  0.0609 -0.1255  0.0407
25855W        W41989   7.470  17.591  14.356 -0.2121  0.1145 -0.1115
25856W        W41990  10.100  10.487   5.361 -0.2829 -0.0405 -0.2358
25857W        W41991  16.990   2.238   1.218  0.3161  0.1112 -0.1375
25858W        W41992   4.035   8.338   4.901 -0.1805  0.1604  0.0456
25859W        W41993  14.316   4.925  15.519 -0.0389 -0.1537  0.0536
25860W        W41994   7.817   6.614   5.157 -0.1690 -0.0709  0.0709
25861W        W41995   9.979   4.575   2.148  0.2387 -0.1385 -0.3319
25862W        W41996  12.705  14.280  13.351 -0.0949  0.0572  0.4491
25863W        W41997  16.057   8.443  15.391  0.1170  0.0282 -0.2267
25864W        W41998   0.370  18.333   1.180 -0.0454 -0.2165 -0.0359
25865W        W41999   4.028   3.599  13.663  0.4074 -0.0594 -0.2396
25866W        W42000  14.864  17.041   3.148 -0.1448  0.4521  0.0590
25867W        W42001  18.400  12.157  10.345 -0.0779 -0.3104  0.2804
25868W        W42002   9.063  10.777   5.593  0.0307 -0.1604  0.1813
25869W        W42003   3.038  11.128   1.775 -0.0068 -0.0538 -0.1805
25870W        W42004   1.686  14.518  12.117 -0.0410 -0.1881 -0.2567
25871W        W42005  11.750  13.406  15.316 -0.0973 -0.0440  0.0115
25872W        W42006  16.386   2.889   4.659  0.2020 -0.1466  0.0735
25873W        W42007  16.874  17.532  13.934 -0.2150  0.1367 -0.0068
25874W        W42008  11.289  10.506   1.767  0.0934 -0.4274 -0.0295
25875W        W42009  13.955   9.236   2.639  0.4559 -0.0642 -0.1543
25876W        W42010   9.865   4.579  15.639 -0.2581  0.0838  0.2594
25877W        W42011   3.848   4.866  13.505 -0.3666  0.3405 -0.1601
25878W        W42012   2.181  13.980   4.300  0.2738  0.0222  0.0658
25879W        W42013   0.013   2.687  14.958 -0.0356 -0.0103  0.2269
25880W        W42014  12.964  14.308  15.623 -0.0250 -0.1558 -0.0712
25881W        W42015  11.089   4.890   5.086  0.0156  0.3032 -0.3029
25882W        W42016   7.495   6.895  12.666 -0.3243  0.1986 -0.1296
25883W        W42017   0.093   4.922   0.010 -0.6915  0.3551  0.1263
25884W        W42018  10.003  13.676   3.344  0.0627 -0.3098 -0.0899
25885W        W42019   7.506   8.178  12.601  0.0182 -0.2142  0.1799
25886W        W42020  16.953   0.637  12.999 -0.0598  0.0554 -0.1487
25887W        W42021  13.451   3.254  15.868  0.2348  0.0982  0.0865
25888W        W42022   6.145   6.863   4.931  0.0766  0.0388 -0.1725
25889W        W42023  11.857   3.761  14.020  0.2982  0.0314  0.1291
25890W        W42024  16.054  14.260   4.542 -0.0156  0.0923  0.2428
25891W        W42025   2.314  17.743   4.419  0.0098  0.2430 -0.0334
25892W        W42026   0.863   0.474   0.007  0.1873 -0.0580 -0.1067
25893W        W42027   9.383   4.872  12.133  0.2270 -0.4968 -0.1829
25894W        W42028   7.671   4.025  13.964  0.0424 -0.2725 -0.0449
25895W        W42029  18.075   0.645   4.695  0.0227 -0.0510  0.0072
25896W        W42030  10.260   5.714   4.397 -0.2241 -0.2124 -0.2688
25897W        W42031  14.075  11.330   0.837  0.4479  0.2104  0.0357
25898W        W42032   0.298  15.113  10.853  0.0865  0.1148 -0.2088
25899W        W42033  14.801  13.197   5.939 -0.0315 -0.2110 -0.2672
25900W        W42034  18.176   8.196  12.688  0.4282  0.2047 -0.0386
25901W        W42035   1.953   0.288   1.327  0.0481  0.0357 -0.0339
25902W        W42036   8.593   5.420  12.033  0.1833  0.1412 -0.4294
25903W        W42037   1.876  15.845   4.052 -0.0231  0.3252 -0.0340
25904W        W42038  13.448   1.663   0.046  0.0420 -0.0144  0.0594
25905W        W42039   0.763   4.681   1.834 -0.1121 -0.0440  0.2034
25906W        W42040   8.374  17.828  13.200 -0.2820  0.2050 -0.2192
25907W        W42041  11.913   7.935   4.880  0.0993 -0.1687 -0.2825
25908W        W42042  14.238   9.971  14.976  0.0715  0.0953 -0.0942
25909W        W42043   4.576  16.832   3.509 -0.0404  0.0400  0.2843
25910W        W42044   8.330   1.541  15.754 -0.1323 -0.0216  0.2214
25911W        W42045  11.154  17.188   0.970 -0.1458 -0.0374 -0.2380
25912W        W42046   6.491  18.409   5.053  0.0749  0.0576 -0.0388
25913W        W42047   1.281  13.004   3.390 -0.1213  0.1851  0.1276
25914W        W42048   4.775  13.115  14.703  0.0441 -0.0886 -0.0261
25915W        W42049   7.128  13.666   4.675 -0.2101  0.1686 -0.1082
25916W        W42050   3.819  14.489   1.929  0.1129 -0.0873 -0.1155
25917W        W42051   0.438  10.409  11.607 -0.0132 -0.0577 -0.0103
25918W        W42052   7.588  17.645   3.238 -0.3131 -0.2269 -0.0356
25919W        W42053  14.240  12.625  11.832 -0.1188  0.0258  0.0726
25920W        W42054  15.098   3.837  15.157  0.0413  0.2426 -0.0753
25921W        W42055   0.599   4.223   3.025 -0.0307  0.1494 -0.0012
25922W        W42056   6.292   0.987  14.238  0.2091  0.2306 -0.1279
25923W        W42057  11.308   6.315   1.161 -0.0759 -0.3966  0.2551
25924W        W42058  10.088  18.193   1.844 -0.0042 -0.0535 -0.0742
25925W        W42059   1.947   4.728   0.677  0.0284 -0.0184  0.1095
25926W        W42060   8.173   6.137   5.233  0.0044 -0.0902  0.4337
25927W        W42061   7.007  10.603  14.564 -0.0498 -0.5953 -0.2367
25928W        W42062   9.657  12.293   3.411  0.0292  0.0681  0.0837
25929W        W42063   6.201  17.962   3.234 -0.0714  0.2010  0.0398
25930W        W42064   4.962   0.115  10.894 -0.1195  0.2927  0.0934
25931W        W42065  17.975   7.039   3.028 -0.2225 -0.0253  0.0883
25932W        W42066   8.433   6.403  14.591  0.3312  0.2076 -0.0805
25933W        W42067   0.014   5.618   2.651  0.2904  0.0462 -0.3396
25934W        W42068   5.945   6.065  12.116  0.0413 -0.0092 -0.3091
25935W        W42069   2.340   3.338  14.755  0.1645  0.0217  0.1207
25936W        W42070  15.020   3.938   4.001 -0.0430 -0.2118 -0.2484
25937W        W42071   3.294   9.310   4.096  0.1263  0.1135  0.0025
25938W        W42072   7.907   6.259   4.799  0.1903 -0.3439 -0.0287
25939W        W42073  14.285   4.190  15.755  0.2719  0.0053  0.3945
25940W        W42074   5.007   3.970   1.376 -0.1218 -0.1157 -0.1355
25941W        W42075   2.393  17.785  13.116 -0.0468 -0.1502 -0.2399
25942W        W42076   3.030   8.369   1.157  0.2569  0.0248 -0.3064
25943W        W42077   9.220   9.139   0.504  0.2899  0.2783  0.1223
25944W        W42078  11.126  12.506   3.532  0.2283 -0.0403 -0.1380
25945W        W42079   9.593  15.104  12.112 -0.1726  0.1140  0.1150
25946W        W42080   7.726  12.428   2.403 -0.3311  0.0828  0.0139
25947W        W42081   0.266  12.504  15.929 -0.0719  0.0629 -0.2401
25948W        W42082   8.362   5.722  13.935  0.2615 -0.2233 -0.0624
25949W        W42083  11.310  15.117  12.201 -0.1020 -0.1627  0.2249
25950W        W42084  15.886   5.760   4.897  0.0996  0.0233 -0.3943
25951W        W42085   4.569  18.447   5.033 -0.1905 -0.2876 -0.1267
25952W        W42086   3.856   0.829   3.240  0.0620 -0.1185  0.0846
25953W        W42087   6.589  14.834  15.713 -0.0076 -0.1282  0.2398
25954W        W42088   2.799   4.805   5.313 -0.1199 -0.1649  0.2374
25955W        W42089  10.213   7.772  13.921 -0.2525 -0.3150 -0.1110
25956W        W42090  10.209   3.749  12.953 -0.1628 -0.0856  0.1499
25957W        W42091  10.507   4.580  11.598 -0.0237 -0.1813 -0.1268
25958W        W42092  14.658   5.969   2.109  0.2144 -0.0657 -0.1566
25959W        W42093   7.446  13.316  14.121 -0.2558  0.0986  0.0684
25960W        W42094   8.005  14.261  11.595 -0.1808  0.2377 -0.3215
25961W        W42095  14.358  17.970   2.999 -0.1618  0.0237 -0.1379
25962W        W42096  18.163   1.785   0.559 -0.0010  0.1633 -0.0761
25963W        W42097  12.841   9.941   0.289  0.0867  0.1471  0.0464
25964W        W42098  14.181  12.839   2.613 -0.3496 -0.2564  0.2936
25965W        W42099   1.596  10.590  13.627 -0.3359  0.0005 -0.0601
25966W        W42100  12.795  14.743  13.288 -0.1096 -0.1686  0.1634
25967W        W42101   5.513   8.153   5.010 -0.0860 -0.0387 -0.1798
25968W        W42102  16.864   4.147  10.873 -0.3210 -0.1895  0.0899
25969W        W42103  18.061   6.859   4.138 -0.2574  0.2260  0.2316
25970W        W42104  14.493  10.480   4.214  0.0782 -0.1882  0.0602
25971W        W42105   5.942  11.120   3.947  0.0202 -0.0964  0.4190
25972W        W42106   5.764  15.512   3.737 -0.3077 -0.3010 -0.0201
25973W        W42107  12.068   0.901  11.098  0.0425  0.0108  0.2597
25974W        W42108  10.918  11.851  15.304 -0.2905  0.1656  0.2150
25975W        W42109   0.848  18.261  15.795 -0.1475  0.4102 -0.0612
25976W        W42110  14.267   3.125   1.323 -0.0983 -0.0335 -0.0026
25977W        W42111  13.328   5.143  11.869  0.1094 -0.2214  0.0405
25978W        W42112   9.011  15.204   0.718 -0.1442  0.0541  0.0716
25979W        W42113   8.297  12.080   1.322  0.1633 -0.2324  0.1263
25980W        W42114   4.766  15.953   2.583  0.0583 -0.3538 -0.0617
25981W        W42115   5.420  10.016  15.951  0.0032 -0.0783 -0.0808
25982W        W42116   0.654   5.764   2.028 -0.1058  0.2071 -0.2303
25983W        W42117  18.283   6.510  11.606 -0.2652 -0.0208 -0.0122
25984W        W42118   4.224  18.215  12.145 -0.1811 -0.0607  0.1604
25985W        W42119   6.104  11.156   2.144 -0.0140  0.0482  0.0947
25986W        W42120   9.388   7.303   3.958  0.0542 -0.2457 -0.2155
25987W        W42121   0.264  17.969   1.663  0.2433  0.0392 -0.0247
25988W        W42122   8.678  16.298   3.982  0.0821  0.0395  0.3363
25989W        W42123  15.342   5.950   4.784  0.0181 -0.0866 -0.1217
25990W        W42124  10.310  13.462  12.148  0.2370 -0.0050  0.1498
25991W        W42125   9.220  12.559   3.149  0.0723 -0.0004 -0.1159
25992W        W42126  17.765  15.581  13.901 -0.2271 -0.2690  0.0294
25993W        W42127  13.964   5.573   2.596 -0.2447  0.1284 -0.3304
25994W        W42128  15.246   1.417  13.863 -0.3292  0.1119  0.1376
25995W        W42129   3.374  10.459  10.330  0.1322 -0.6566  0.0200
25996W        W42130   6.961  13.596   0.686 -0.1674  0.0113 -0.1023
25997W        W42131  17.130   4.148   4.212  0.5563 -0.1898  0.3041
25998W        W42132  15.767   6.251  13.028 -0.0118 -0.1570  0.0541
25999W        W42133  16.267  17.848   0.906 -0.0306 -0.2640 -0.1206
26000W        W42134  13.745  15.877   5.709 -0.1806 -0.1053  0.0929
26001W        W42135   0.837  15.712   6.004 -0.0921 -0.2235  0.2296
26002W        W42136  17.232  13.805  13.486 -0.4689  0.0916 -0.1038
26003W        W42137   1.900   8.902  14.256  0.1713  0.3418  0.4352
26004W        W42138  15.395   6.235   4.240 -0.3627  0.1730  0.2401
26005W        W42139  12.106   4.445   4.529  0.2171 -0.4258 -0.0326
26006W        W42140  16.064   5.548  14.603 -0.0607 -0.1443  0.2634
26007W        W42141  18.425   8.424  15.230  0.1343  0.0477 -0.1009
26008W        W42142  15.762   0.173  11.338  0.4498  0.3389 -0.2878
26009W        W42143   4.625  12.951  11.805  0.1404  0.2762  0.2288
26010W        W42144   6.491   6.030  13.859 -0.2502  0.1687  0.3224
26011W        W42145   9.004   7.453  13.403 -0.0530  0.1106 -0.2583
26012W        W42146  11.516  13.688  11.782 -0.4296 -0.2343  0.0135
26013W        W42147  14.207   1.836   4.199  0.2853  0.0892  0.2762
26014W        W42148  11.037   0.970  11.435 -0.2220 -0.3987 -0.0790
26015W        W42149  11.768   1.373  14.768  0.0759  0.2080 -0.2463
26016W        W42150   3.477  10.665  15.386 -0.1245  0.1364 -0.1320
26017W        W42151   7.761  18.010  15.594  0.0747 -0.1094  0.0919
26018W        W42152  15.993  18.310  13.962 -0.2635  0.0858 -0.1469
26019W        W42153   3.451   4.423  12.587  0.2467 -0.3324  0.0612
26020W        W42154  14.765   4.836  12.800  0.2049 -0.3779  0.0285
26021W        W42155  18.027   8.577   0.589  0.2320 -0.0431 -0.1533
26022W        W42156   8.753  12.527   0.639  0.3560  0.0111 -0.2586
26023W        W42157   2.454  16.213  12.157  0.0549 -0.2824 -0.2218
26024W        W42158   7.292   1.843   3.475  0.0708  0.2026 -0.1760
26025W        W42159   3.800   9.529   1.542  0.0044 -0.0023 -0.2617
26026W        W42160   0.657   7.885  15.734  0.0218  0.0318 -0.0662
26027W        W42161   9.976   6.251   4.381  0.0800 -0.0308  0.1552
26028W        W42162   0.065  10.342  13.398  0.1285 -0.0874  0.0161
26029W        W42163  16.553  12.042  12.197  0.4498  0.3773  0.0863
26030W        W42164  14.237   8.741   3.852 -0.2487  0.3593  0.2055
26031W        W42165   0.340   7.539  11.416 -0.1053 -0.2413 -0.0236
26032W        W42166   2.360  10.482   0.022 -0.0776  0.1490 -0.0266
26033W        W42167  15.539  17.642   3.278 -0.1570 -0.1961  0.0045
26034W        W42168   7.427   4.178   3.425 -0.0593  0.2296 -0.2352
26035W        W42169   0.576  14.497  11.390  0.0279 -0.2963  0.1269
26036W        W42170   1.583  16.749  12.441  0.1559  0.2838 -0.1043
26037W        W42171   4.225   9.921   2.920 -0.1416 -0.1722 -0.0753
26038W        W42172  16.265   2.347  11.727 -0.2255 -0.0275  0.0702
26039W        W42173  13.853  18.204   0.413 -0.0178 -0.1570 -0.0980
26040W        W42174  12.910  17.277   4.901  0.1363 -0.2045 -0.0238
26041W        W42175   4.350  17.640   4.466 -0.1301 -0.0134 -0.0717
26042W        W42176   1.729  14.318   0.798 -0.2802  0.0553 -0.2995
26043W        W42177  10.165  12.588  14.611 -0.0662 -0.1260 -0.1614
26044W        W42178  12.604   2.799   2.248 -0.0074 -0.0181 -0.1423
26045W        W42179  16.964   9.667  12.776  0.0611 -0.1879  0.1581
26046W        W42180   9.428   3.793   5.548 -0.2025  0.1123  0.0842
26047W        W42181  15.105   7.723  16.055 -0.2322  0.1017  0.1765
26048W        W42182   3.885  10.674  10.521 -0.1406 -0.1197  0.0177
26049W        W42183   0.209   2.438  10.416 -0.3341 -0.2702  0.3407
26050W        W42184   7.025  18.275   0.931 -0.1301 -0.3215  0.2529
26051W        W42185   6.953  13.024  12.428 -0.0421 -0.2848 -0.1331
26052W        W42186  11.551  12.655   3.270 -0.1506  0.2068 -0.0506
26053W        W42187  15.168  14.424   4.902  0.3182  0.0227 -0.2057
26054W        W42188   1.678   0.784   5.276 -0.1609  0.4771 -0.0048
26055W        W42189   7.448  15.068  12.088  0.0922 -0.0409  0.2040
26056W        W42190  12.724  16.566  12.305 -0.1483  0.1285 -0.3492
26057W        W42191  16.627   5.708  15.257  0.2171 -0.2296  0.2597
26058W        W42192  18.056  12.633   3.403 -0.1674 -0.2160  0.1723
26059W        W42193   0.924   1.715  11.336 -0.0949  0.0396 -0.0520
26060W        W42194   4.933   0.552   3.244 -0.3176  0.2566  0.1782
26061W        W42195  17.927   6.400  11.083 -0.2244 -0.0377 -0.0095
26062W        W42196  10.156   8.550  15.884 -0.0985 -0.3802 -0.1379
26063W        W42197  14.401  13.518   0.832 -0.0098  0.2504 -0.0716
26064W        W42198  14.672   5.713   4.258  0.5280  0.1315 -0.1063
26065W        W42199   7.027   1.494   3.714 -0.1039 -0.0921 -0.3047
26066W        W42200   6.473   8.925  13.339 -0.3572 -0.2415  0.0114
26067W        W42201   9.505   3.044   3.948 -0.0146  0.0418  0.1423
26068W        W42202   8.901   8.466   1.026  0.0228  0.2497  0.2304
26069W        W42203   3.123   6.554   1.781  0.1793 -0.1463 -0.2844
26070W        W42204  12.488  15.402   2.916 -0.2750 -0.2354 -0.0951
26071W        W42205  15.115   7.857   0.424  0.0477 -0.1544  0.0451
26072W        W42206  13.489  10.495   3.684  0.1504  0.1267 -0.1232
26073W        W42207  10.648   3.448  13.505 -0.0962 -0.0616 -0.3541
26074W        W42208  17.207  10.137   5.218 -0.3441 -0.0254  0.2227
26075W        W42209   3.751   0.401  13.023 -0.1537 -0.1105  0.3838
26076W        W42210  11.674  15.291  14.566 -0.3558 -0.3457  0.0208
26077W        W42211  14.922  17.447   0.471  0.1741 -0.1699 -0.0305
26078W        W42212   4.135   3.188  12.943 -0.0182  0.0541 -0.1409
26079W        W42213   6.223   9.863   2.857 -0.1077  0.4599  0.0798
26080W        W42214   1.036  13.813   0.340 -0.2104 -0.6586 -0.1496
26081W        W42215  15.375   0.771  13.116 -0.3635  0.0187 -0.0297
26082W        W42216   0.586   1.598  14.318  0.1198 -0.0008 -0.0404
26083W        W42217  16.471   8.834  15.196  0.1427  0.0091 -0.1489
26084W        W42218   9.152  12.958  12.876 -0.0577 -0.1176 -0.3173
26085W        W42219   0.288  18.423   3.355  0.5701 -0.3028  0.0151
26086W        W42220  10.707   5.514  11.909  0.0572 -0.0641 -0.0113
26087W        W42221  12.284   5.828   2.460 -0.1366  0.1615  0.2696
26088W        W42222   0.678   8.767   3.333 -0.2630 -0.2611  0.1787
26089W        W42223   2.304  15.847   3.268  0.0304 -0.0227 -0.2071
26090W        W42224  17.132  16.774  16.043  0.1416 -0.2026 -0.2594
26091W        W42225   5.877   7.520   3.018 -0.1757 -0.0923 -0.1331
26092W        W42226   4.054  12.091   1.597  0.0506 -0.2027 -0.2244
26093W        W42227   4.933  14.094   0.857 -0.0827  0.0702  0.1499
26094W        W42228   2.182   1.252   4.378  0.0144  0.1545  0.0867
26095W        W42229   5.011   6.019   3.517 -0.0063 -0.3285  0.0193
26096W        W42230  17.914  14.363  10.773 -0.0163 -0.1752  0.2696
26097W        W42231   0.677   3.026  14.493 -0.1215 -0.3052  0.0429
26098W        W42232   1.809   2.180   5.171 -0.2079 -0.2366 -0.1266
26099W        W42233  11.427   8.540   3.427  0.0859 -0.1620 -0.2953
26100W        W42234   9.378   1.534   0.721 -0.1459 -0.0983 -0.4524
26101W        W42235  12.530   7.305  15.329 -0.0668 -0.3310 -0.0435
26102W        W42236  10.608   0.607  14.465  0.1797 -0.1320  0.1711
26103W        W42237   8.315  15.409  15.128  0.0754 -0.3285 -0.0196
26104W        W42238  18.046  16.661   1.291  0.2629  0.1348  0.2026
26105W        W42239  17.472  16.309  10.235  0.2118  0.0395 -0.0421
26106W        W42240  13.024   9.761  12.645 -0.1389 -0.1869 -0.0389
26107W        W42241   8.125  10.812   0.139 -0.1511 -0.1350  0.4994
26108W        W42242   1.399   3.122  13.104 -0.1427  0.1207 -0.0503
26109W        W42243  10.200   9.062  11.065  0.2717 -0.0216  0.1904
26110W        W42244   4.555   9.585   0.515  0.1571  0.1038  0.1189
26111W        W42245   2.789   9.207  15.723  0.0955  0.2367 -0.0480
26112W        W42246  15.488  16.830   0.539 -0.2290  0.0127 -0.1662
26113W        W42247   5.224  12.981   2.443 -0.1151 -0.2746  0.0048
26114W        W42248  12.194   1.438  13.042  0.1945 -0.1166  0.0471
26115W        W42249  17.140   3.085  14.671 -0.0776 -0.0244  0.2085
26116W        W42250  14.378   9.202   1.108  0.0371  0.1239 -0.0843
26117W        W42251   3.674  13.309  15.992  0.3543  0.0853  0.3503
26118W        W42252   3.829  13.698   3.345  0.0432  0.0167  0.0725
26119W        W42253  10.834   7.512   0.667 -0.1995  0.1977 -0.0388
26120W        W42254   2.182  11.094  14.736 -0.1081 -0.0186 -0.2571
26121W        W42255  15.101  16.668   4.945 -0.1031 -0.0403 -0.1914
26122W        W42256  10.857   6.554  11.961 -0.4503  0.1534  0.0602
26123W        W42257  14.867  17.937  12.111  0.1758 -0.2165 -0.1124
26124W        W42258  11.411  13.774   1.531 -0.0023 -0.2024 -0.5053
26125W        W42259  15.117   8.382  14.022  0.0166  0.4075  0.0536
26126W        W42260  10.937  15.921   2.839 -0.0881 -0.2233  0.1310
26127W        W42261  10.796  13.031   5.631 -0.3191 -0.2046 -0.0070
26128W        W42262   5.916  10.184  15.889  0.0058 -0.1742  0.1190
26129W        W42263  11.807   5.043   4.118 -0.2584  0.3166  0.0227
26130W        W42264  17.868  16.549  10.965 -0.0692  0.0778 -0.1945
26131W        W42265   9.836   6.829   0.535 -0.3047  0.0633  0.2143
26132W        W42266   1.849  14.728  15.912  0.2437  0.1670  0.0150
26133W        W42267   6.202   7.783   5.697  0.0826  0.2116  0.0683
26134W        W42268   2.189   7.139  10.266 -0.4460  0.2273 -0.3576
26135W        W42269   2.007  11.494   4.026 -0.3087  0.2535  0.1874
26136W        W42270   5.071   7.526   4.703 -0.0713 -0.0794 -0.0354
26137W        W42271   2.239   4.559   4.879  0.0718  0.2999  0.2425
26138W        W42272   2.450  10.950  15.701 -0.2082  0.2127 -0.4833
26139W        W42273  12.465   8.929   4.901  0.2336  0.1107 -0.0066
26140W        W42274  12.175  16.053   4.576 -0.4547 -0.0849  0.1108
26141W        W42275   4.876   5.465  11.012  0.0721 -0.0510 -0.0983
26142W        W42276  14.202  14.384   0.165  0.0191  0.1136  0.0089
26143W        W42277   4.983   8.521   1.678 -0.0807  0.3990 -0.1983
26144W        W42278  16.834   9.134  13.382 -0.0645 -0.2658  0.1997
26145W        W42279  15.102   3.052  14.892  0.0708  0.0992 -0.0910
26146W        W42280  18.477  18.384   2.986 -0.5307  0.3526 -0.2550
26147W        W42281  15.364  17.184   3.355  0.1121 -0.0671 -0.0767
26148W        W42282  17.965  17.133  11.758 -0.0112 -0.1519  0.2199
26149W        W42283   9.111  13.110   2.013 -0.2390  0.0149 -0.0336
26150W        W42284   3.932   0.582  12.191  0.0022 -0.1480  0.0158
26151W        W42285   4.269  13.093  10.907  0.2968 -0.0600 -0.2643
26152W        W42286   9.806  16.814   1.883 -0.3646 -0.1544 -0.0051
26153W        W42287   8.322   7.843  14.597  0.2852  0.1731  0.0541
26154W        W42288   9.690   5.643   6.819 -0.2874 -0.1515  0.0477
26155W        W42289  15.854  13.078  13.410  0.2408 -0.0860  0.1828
26156W        W42290  15.340  10.487   2.482 -0.3586  0.2150  0.2989
26157W        W42291   3.000   6.086   2.060  0.0663  0.2354 -0.0626
26158W        W42292  12.754   8.009  14.042 -0.0826 -0.1715  0.1231
26159W        W42293  12.415  15.143  14.265 -0.0180  0.0939  0.0319
26160W        W42294   9.460   9.222  13.891 -0.1527 -0.1363  0.0508
26161W        W42295   3.375   1.713   1.432 -0.0016 -0.0452 -0.0975
26162W        W42296  11.191   8.072   5.644  0.1146  0.0565 -0.0402
26163W        W42297   4.244  14.190  12.566 -0.0149  0.0673  0.1173
26164W        W42298   3.612   3.049   5.706 -0.0776 -0.0052 -0.2390
26165W        W42299  14.138   4.310   5.061  0.0741 -0.0345  0.3035
26166W        W42300  11.921  16.398   0.903 -0.2043  0.1980 -0.1571
26167W        W42301  17.304  12.008   3.852  0.0254  0.0665  0.1605
26168W        W42302   4.046  14.096  11.949 -0.3374 -0.1090  0.1518
26169W        W42303   7.169  11.905   3.642  0.1222  0.2274 -0.1009
26170W        W42304  12.609   2.650  15.327  0.0322  0.1202 -0.0279
26171W        W42305  10.711   8.167  12.983  0.0395 -0.4580  0.2960
26172W        W42306   1.857  10.259   0.124  0.1036 -0.2468  0.1276
26173W        W42307   6.309   2.145   3.577  0.0486 -0.2554  0.0403
26174W        W42308   3.362  13.759   9.405 -0.0972  0.0919 -0.2003
26175W        W42309  17.322  16.529   4.715 -0.4320 -0.0809 -0.0049
26176W        W42310   3.003   6.312  14.084 -0.0621  0.4916  0.1908
26177W        W42311   4.635   3.390   4.604 -0.0249 -0.0913  0.0065
26178W        W42312   3.901   1.301  11.588  0.0111  0.2547  0.1207
26179W        W42313   4.801   2.330   0.626  0.3019  0.2511  0.2881
26180W        W42314  16.299   8.344   2.883  0.2558 -0.0539  0.0633
26181W        W42315  14.088  17.897   2.584  0.2150  0.1949 -0.2208
26182W        W42316   0.981   7.288  12.241 -0.1309 -0.0182 -0.1535
26183W        W42317   2.628   8.491   5.409  0.0775  0.1877  0.2524
26184W        W42318  18.485   4.511   0.635  0.1676  0.0707  0.2420
26185W        W42319   4.858  11.901   1.204 -0.2176  0.0596  0.2437
26186W        W42320   1.026   1.129   3.033  0.1993 -0.2211 -0.0935
26187W        W42321   6.308   6.338   3.594 -0.0482  0.1702  0.1437
26188W        W42322  13.583   0.548  15.152  0.2031 -0.0260 -0.2092
26189W        W42323  17.796   5.163  15.720  0.1024 -0.2386  0.1413
26190W        W42324   6.500  11.501   0.267  0.2708  0.0400 -0.2528
26191W        W42325   5.277  12.919   4.018  0.2357  0.1898 -0.1585
26192W        W42326   6.593   4.961   3.728 -0.0291  0.0156 -0.1368
26193W        W42327   1.526  17.576  12.197 -0.4289 -0.0563  0.0830
26194W        W42328  14.597   1.283   3.083 -0.2216  0.2337 -0.0500
26195W        W42329  18.389  10.602   1.302 -0.1513  0.0778 -0.0466
26196W        W42330  16.220  13.864   4.191 -0.1304 -0.1105  0.4253
26197W        W42331   1.795   9.040   2.714  0.3287  0.0351 -0.2991
26198W        W42332  11.986  15.656  13.127  0.0992  0.0544  0.1988
26199W        W42333  12.751   2.198   6.414  0.1011  0.0833 -0.0289
26200W        W42334  12.277   9.215   3.941 -0.1365 -0.2554  0.0782
26201W        W42335   8.986  13.198  11.970  0.1419 -0.2161 -0.2985
26202W        W42336  15.264  14.708   2.810  0.3926 -0.1095  0.0803
26203W        W42337  10.017   8.922  11.482 -0.0531  0.0272 -0.2065
26204W        W42338  11.895  17.721   4.276 -0.0751  0.0764 -0.1800
26205W        W42339   4.487   5.363  14.991 -0.0585  0.0621  0.0413
26206W        W42340  15.315   8.324  11.064 -0.0633 -0.0428 -0.5089
26207W        W42341  13.906   0.534  14.237 -0.0908  0.0039 -0.1895
26208W        W42342  17.588  10.348  10.595  0.2151 -0.0804  0.1190
26209W        W42343  12.909  12.496  13.561  0.0389  0.0979 -0.0441
26210W        W42344   5.097   7.814  15.806  0.2643 -0.1668  0.1105
26211W        W42345  18.214   9.446   9.962  0.0700 -0.1821  0.0508
26212W        W42346   2.566   6.970   0.558  0.2403 -0.1164  0.2952
26213W        W42347  15.460  12.543  14.248 -0.0757  0.2941 -0.1551
26214W        W42348   9.067   0.063   5.087  0.2978  0.0307  0.3880
26215W        W42349  17.694  12.698   4.298 -0.0499 -0.0590 -0.1888
26216W        W42350  12.862   9.602   4.665  0.0757 -0.0013 -0.0472
26217W        W42351   1.294   5.381  15.808  0.3043 -0.0155 -0.2094
26218W        W42352   4.069  16.305  11.666  0.0322  0.0187  0.1439
26219W        W42353   5.284   2.994   3.409 -0.4064 -0.0160  0.1310
26220W        W42354   7.541  10.798  13.232  0.0701 -0.1492 -0.0542
26221W        W42355  16.181  12.261   4.502 -0.1025  0.0503  0.1291
26222W        W42356   1.648  17.862  11.748  0.1320 -0.0441 -0.2833
26223W        W42357   1.387   8.591  14.893  0.1228  0.0836 -0.1254
26224W        W42358   7.696  14.449  15.000  0.0278 -0.0920 -0.0266
26225W        W42359   0.681  10.427   4.428 -0.0920  0.0138 -0.2786
26226W        W42360   5.841   6.170   2.920  0.0170 -0.0061 -0.1222
26227W        W42361   5.394   6.636   0.137 -0.2215 -0.2183 -0.1316
26228W        W42362  15.856   3.984  12.887 -0.0382 -0.1054 -0.0291
26229W        W42363  14.330   4.138  15.252  0.0139  0.1314  0.0039
26230W        W42364   2.566   5.754   1.534  0.0384  0.1990  0.1026
26231W        W42365   9.814  10.295   0.587  0.0421  0.3964 -0.3131
26232W        W42366   8.761  10.524  12.753  0.1576  0.0420  0.0442
26233W        W42367   2.943  11.924  15.501 -0.1350  0.2635 -0.0739
26234W        W42368  14.471  10.536  14.870 -0.1322 -0.2166 -0.1470
26235W        W42369  15.459  14.083  12.721  0.1998 -0.0578 -0.0724
26236W        W42370  17.855   9.017   5.186 -0.0818 -0.1003 -0.1100
26237W        W42371   1.709  11.819  12.238  0.2201 -0.2555  0.0641
26238W        W42372   5.179  13.118   4.789 -0.1284 -0.1713 -0.2678
26239W        W42373   0.918   2.014   0.922  0.2070 -0.1315  0.2371
26240W        W42374  15.672  13.487  14.758 -0.2344  0.0214  0.2633
26241W        W42375   1.321   3.222  11.061 -0.2620  0.1293  0.3557
26242W        W42376  16.606   3.672  15.311  0.2919  0.1975  0.0138
26243W        W42377   4.967   8.116  11.599  0.1165  0.0296  0.2849
26244W        W42378   4.690  17.883  10.500  0.2305 -0.0686  0.0557
26245W        W42379  16.438   1.480   3.395 -0.2519  0.2571 -0.1274
26246W        W42380   3.932  16.936  12.243  0.1904  0.2858  0.0083
26247W        W42381  15.267  11.231  14.702 -0.4660  0.0558 -0.1221
26248W        W42382   6.190  11.657  11.532  0.0038 -0.1601  0.0926
26249W        W42383  15.477  12.428  12.523  0.0133  0.1997  0.2193
26250W        W42384   4.164   7.348   1.447 -0.2420  0.1931  0.1308
26251W        W42385   4.061   1.391   3.942  0.0253 -0.2763 -0.1566
26252W        W42386   7.027  16.159   1.647 -0.2358  0.0380 -0.5571
26253W        W42387   3.537   4.422   1.014  0.4105 -0.1450 -0.0909
26254W        W42388  12.905   0.954   2.466  0.0598  0.0207 -0.0986
26255W        W42389  16.553   9.197   3.974 -0.1284 -0.2719  0.1553
26256W        W42390   7.859   0.574  15.605  0.1828  0.0650  0.3130
26257W        W42391  16.371   0.196  11.153 -0.1294 -0.1071  0.1219
26258W        W42392  15.660   5.538  13.693 -0.1482  0.0790  0.1751
26259W        W42393   0.613  16.053   2.262  0.1985 -0.0021  0.1570
26260W        W42394  15.060  12.690   4.683  0.1384 -0.4167  0.0104
26261W        W42395  12.274  15.087  15.268  0.4618 -0.0968 -0.1491
26262W        W42396   2.687   2.735   2.710  0.1320  0.0022  0.1311
26263W        W42397   6.886  16.367  13.203  0.2001  0.0604 -0.2036
26264W        W42398   1.652   8.051  14.310 -0.0234  0.3941 -0.1042
26265W        W42399   5.582   5.996  13.036 -0.1385 -0.0530  0.0168
26266W        W42400  14.156  15.331   2.032 -0.2194  0.4226 -0.2024
26267W        W42401  15.819  17.763   4.353  0.1263 -0.0024 -0.3905
26268W        W42402   9.308   3.649   0.028 -0.1377  0.0478 -0.0061
26269W        W42403  16.834  14.468  10.855  0.2073 -0.2076  0.0751
26270W        W42404   8.099  11.877  12.153 -0.0151 -0.5131  0.0494
26271W        W42405   4.606  13.227  10.595 -0.1880 -0.2266  0.0561
26272W        W42406  14.337   0.528  14.454  0.0076 -0.0841 -0.1952
26273W        W42407   0.147  10.539  15.775 -0.2074  0.3522 -0.1816
26274W        W42408  14.571   8.477   5.077  0.0503  0.0911 -0.0768
26275W        W42409   7.022   2.205   2.641  0.0987  0.1392  0.0590
26276W        W42410  13.924  17.262   1.413  0.5061  0.0242 -0.0420
26277W        W42411  16.801   3.887  13.451  0.3754  0.1524  0.0773
26278W        W42412   5.882  17.225  12.273 -0.2559 -0.1947 -0.1789
26279W        W42413  15.156   1.689   5.034  0.2462 -0.2714  0.0489
26280W        W42414  13.445   7.258  11.814 -0.1074  0.0674  0.1029
26281W        W42415  11.501   2.338   4.782  0.2346  0.1553 -0.1634
26282W        W42416  14.696   5.156   0.510 -0.1631  0.1058 -0.0996
26283W        W42417   9.375  15.845   4.073 -0.1140 -0.0701  0.0404
26284W        W42418  12.030  15.474   5.495 -0.2532  0.1470 -0.1347
26285W        W42419   4.383   7.861   0.178  0.4094 -0.1346  0.0097
26286W        W42420  17.154  18.225  13.366  0.0262 -0.0754 -0.0492
26287W        W42421  12.950  16.055   0.006  0.1539 -0.1259  0.1218
26288W        W42422   4.124  15.803  11.887  0.0162 -0.1267 -0.1287
26289W        W42423   1.367  10.198   1.799  0.2827  0.1386  0.1599
26290W        W42424   8.426   6.895   0.497  0.4359 -0.1058  0.1710
26291W        W42425  14.323   9.726   4.333  0.2224  0.3435 -0.1660
26292W        W42426  16.839  14.903   1.558 -0.0677 -0.2013 -0.0238
26293W        W42427  14.820   2.139   2.415 -0.2653 -0.1474  0.0504
26294W        W42428   2.637  18.193  13.211 -0.1327  0.1425  0.2543
26295W        W42429  10.431   4.426   1.260  0.1278 -0.1229  0.0500
26296W        W42430  16.207  10.042  11.585 -0.2975  0.0062 -0.0003
26297W        W42431   9.683   4.343   1.256  0.1527  0.3086  0.0907
26298W        W42432  17.124   7.649  10.277  0.0712  0.0281 -0.2845
26299W        W42433  17.089   6.255  12.726 -0.4841  0.0297  0.0414
26300W        W42434   3.917   1.816  13.379 -0.1516 -0.0127  0.2928
26301W        W42435   1.487   2.068  11.221  0.0417  0.4841 -0.1557
26302W        W42436  10.575   8.955   3.626 -0.0500  0.0137 -0.0020
26303W        W42437  10.274   5.499  12.884  0.0512 -0.1203 -0.0209
26304W        W42438   4.350  12.408  13.145  0.1895 -0.1373 -0.3578
26305W        W42439  17.553  17.243  14.160 -0.0516  0.0039 -0.3517
26306W        W42440  11.171   5.218  11.623  0.2734 -0.0151  0.0881
26307W        W42441   4.864   7.507   3.194 -0.0185  0.3939  0.0790
26308W        W42442  13.225  11.794  15.548  0.1481  0.2616 -0.1631
26309W        W42443   5.053  10.934  12.865  0.3091  0.3012  0.2354
26310W        W42444  11.211  10.841   1.277  0.1940  0.4976 -0.0340
26311W        W42445   6.905   2.535  12.877 -0.0625 -0.2379  0.3151
26312W        W42446  11.479  12.023  15.874 -0.0327  0.2186  0.0238
26313W        W42447   0.048   1.030   5.213  0.1834  0.0015  0.0897
26314W        W42448   1.933   6.781  15.318  0.1949  0.0551 -0.0918
26315W        W42449  11.123  12.075  11.860 -0.0202 -0.2111  0.0879
26316W        W42450   7.926   5.502  10.680  0.0840 -0.0102 -0.0773
26317W        W42451  11.885  12.983   1.284 -0.1271  0.1729 -0.3387
26318W        W42452   0.179  11.043  16.056 -0.0476 -0.0191 -0.0110
26319W        W42453   1.242   8.048  14.031  0.1027 -0.3549 -0.3169
26320W        W42454   4.044   2.212  14.273  0.0412 -0.1062  0.2054
26321W        W42455  14.889   2.681   5.261  0.2936 -0.1122 -0.1077
26322W        W42456   8.626   1.097   3.509 -0.0744 -0.2648  0.4958
26323W        W42457   0.787  14.594   9.467  0.0934 -0.2868 -0.1916
26324W        W42458  17.979   6.638   3.653 -0.2181 -0.0253 -0.0372
26325W        W42459  13.231  14.556  13.132 -0.1387 -0.2338  0.3159
26326W        W42460   7.416   4.961  11.285  0.1024  0.1549  0.1280
26327W        W42461  16.431  13.247   1.520  0.0885 -0.2306 -0.0250
26328W        W42462   1.298  16.828   5.121 -0.0001  0.0330  0.1915
26329W        W42463   6.995   5.219  13.639 -0.1111 -0.2321 -0.1653
26330W        W42464  11.384   5.077  13.186 -0.4762  0.0336 -0.0764
26331W        W42465  11.709   5.306   5.936  0.1645  0.1799  0.1174
26332W        W42466   6.182   3.884   0.587 -0.1043 -0.1146 -0.2694
26333W        W42467  12.985   9.546   4.068  0.0778  0.0641 -0.4138
26334W        W42468   4.351  14.646   5.194 -0.2624  0.1732 -0.2072
26335W        W42469  15.579  15.172  12.878 -0.2276 -0.1361 -0.0241
26336W        W42470  14.954   8.297   0.569 -0.1586  0.1389  0.2124
26337W        W42471   4.329  16.813  14.238  0.0736 -0.0766  0.1113
26338W        W42472   1.151  10.831  10.697  0.1592 -0.0080 -0.2942
26339W        W42473   1.867   2.126  15.343  0.0784  0.1722  0.2169
26340W        W42474  11.575  15.603   5.020  0.1508 -0.2091 -0.0271
26341W        W42475   2.781  10.742   3.608  0.4636  0.3072 -0.0298
26342W        W42476   6.641  16.370   4.432  0.1477  0.0629  0.2180
26343W        W42477  12.334   8.150  10.376  0.1627  0.0565 -0.0107
26344W        W42478  14.062  16.040  13.646 -0.2827  0.0505 -0.3389
26345W        W42479  12.151   9.545   1.477 -0.2459 -0.2315  0.0576
26346W        W42480   3.303   9.086  14.772  0.0440  0.2467 -0.0154
26347W        W42481   7.538   2.827   4.882 -0.2758  0.0177  0.0609
26348W        W42482  13.642   4.905   0.496  0.2656  0.0262 -0.1819
26349W        W42483  18.016   8.142  11.749 -0.2018  0.5493 -0.1215
26350W        W42484   8.180  11.106   4.858 -0.0416  0.0783 -0.2586
26351W        W42485  15.416   1.268  13.104 -0.1440  0.2471  0.0975
26352W        W42486  11.150   5.657  14.280  0.0814  0.1685 -0.0109
26353W        W42487   6.536   5.910   3.638 -0.2940 -0.3242 -0.1713
26354W        W42488   9.951  10.570   3.539  0.0491 -0.1431 -0.1098
26355W        W42489  16.408  11.330   0.320 -0.1906 -0.0708 -0.2897
26356W        W42490   3.065  10.251   2.916  0.4224 -0.0346 -0.1484
26357W        W42491   6.848  10.961   5.267 -0.0856 -0.1899 -0.2467
26358W        W42492   4.765   8.444  12.745 -0.0519 -0.3105  0.0935
26359W        W42493  15.919  17.883  13.581  0.1054 -0.0145 -0.0009
26360W        W42494  10.065   0.701   3.482  0.0378 -0.1814  0.0044
26361W        W42495  18.478  17.120  10.454 -0.0661  0.1846  0.0891
26362W        W42496   7.190   3.131  11.741  0.4555 -0.4597 -0.0102
26363W        W42497  12.377   1.858  11.009 -0.0799  0.3535  0.3032
26364W        W42498  12.555   1.991  11.891  0.2861  0.1236  0.0759
26365W        W42499  17.380   8.455  14.333  0.0270  0.3009  0.2608
26366W        W42500   0.064   0.564  12.961  0.0839 -0.1265 -0.0069
26367W        W42501   5.571  15.799  13.388 -0.1136  0.1040  0.3043
26368W        W42502   9.534   5.693  12.427 -0.0037 -0.3590 -0.1023
26369W        W42503   4.695   7.288   4.321  0.2304  0.2531  0.1535
26370W        W42504   6.701   9.990   0.421  0.1314  0.3510 -0.1829
26371W        W42505   9.579   8.259  11.857 -0.3355  0.2209  0.1009
26372W        W42506   3.364   3.263  15.775  0.3262 -0.0116  0.0691
26373W        W42507  13.446   0.737   4.296  0.0708  0.1758 -0.0463
26374W        W42508  11.028   7.066   4.042  0.2672  0.0930 -0.3583
26375W        W42509   6.992   0.183   3.396 -0.0560 -0.0428  0.1478
26376W        W42510  10.748   7.208   1.066 -0.1224  0.0381 -0.4012
26377W        W42511   6.555   9.066  14.219  0.3798 -0.0444  0.0898
26378W        W42512   7.072   0.372  11.235 -0.0218  0.1513  0.3609
26379W        W42513   2.917  17.477   1.436  0.2860  0.0012 -0.0330
26380W        W42514  16.408   6.441  15.668 -0.0988 -0.1128 -0.0532
26381W        W42515   0.006   1.866  14.966 -0.2076  0.0634 -0.0042
26382W        W42516  11.516  14.723  11.995  0.2898 -0.1366  0.2436
26383W        W42517  13.750  12.491   4.414 -0.2029 -0.1114 -0.0867
26384W        W42518   5.016   4.461  15.420  0.1558 -0.1350  0.1789
26385W        W42519   7.138   4.183  11.528 -0.0160  0.1823  0.2076
26386W        W42520   0.946   8.677  14.494  0.0599 -0.1413 -0.0746
26387W        W42521  18.139  13.571  13.752  0.0781 -0.2493 -0.0840
26388W        W42522   6.842   1.605   1.001  0.1028  0.0503 -0.1958
26389W        W42523  13.010   5.670  12.368  0.3577 -0.0480  0.2709
26390W        W42524   6.878  18.292   4.206  0.0008  0.1486 -0.0754
26391W        W42525  14.531  17.724  11.072 -0.0653 -0.0142  0.0499
26392W        W42526   8.089  16.109   4.712  0.3725  0.0965 -0.1140
26393W        W42527  13.380  13.914   3.161 -0.0095 -0.1154  0.3021
26394W        W42528   5.450   2.512   9.974  0.0256  0.0520 -0.2764
26395W        W42529   3.870   1.217  14.228  0.2214 -0.1823  0.1660
26396W        W42530  17.255  15.938  15.506 -0.1148 -0.0254  0.0798
26397W        W42531  12.998  16.311  13.821 -0.1283  0.1128 -0.1550
26398W        W42532   3.329   0.038   4.985 -0.3888  0.1892  0.0279
26399W        W42533   9.363   2.415  11.810  0.6413 -0.0162 -0.1593
26400W        W42534   9.704  16.963  12.393 -0.4082 -0.0780  0.0239
26401W        W42535  16.981  14.232  13.633  0.0668  0.1994 -0.1317
26402W        W42536   3.162  13.227  15.156  0.0533  0.1666 -0.2262
26403W        W42537  16.256   6.850  11.887  0.0928  0.0726 -0.0208
26404W        W42538  16.519   8.529   2.436  0.0266 -0.0887 -0.3662
26405W        W42539   9.293  13.048  15.533 -0.1433  0.1908 -0.0261
26406W        W42540  11.059  11.149   2.706  0.7209  0.3206  0.0410
26407W        W42541  14.591  10.549   1.233 -0.0821 -0.1028 -0.3715
26408W        W42542   0.852  17.802  16.005 -0.0500  0.0340  0.0265
26409W        W42543   2.355  11.728  10.913 -0.1564  0.0027  0.2137
26410W        W42544  11.231  11.541  16.049  0.0268  0.1233  0.2048
26411W        W42545   2.462  16.644   3.160 -0.1052  0.1440  0.0683
26412W        W42546   7.093  11.392  11.855 -0.0945 -0.1679  0.1143
26413W        W42547   0.469  10.314  11.075  0.1952 -0.0413 -0.0376
26414W        W42548  11.634   7.126   4.989  0.2009  0.1076 -0.0002
26415W        W42549   7.475  16.864   5.087 -0.0180  0.1050  0.3858
26416W        W42550   5.252  15.238   1.995 -0.0400  0.1557 -0.1385
26417W        W42551   0.875   9.065   5.000  0.0466  0.0164  0.0572
26418W        W42552   6.043   7.241   4.635  0.0795 -0.0615 -0.0295
26419W        W42553   2.963   4.837  12.972 -0.0428  0.0383  0.0072
26420W        W42554   8.784   9.198   5.427  0.0097  0.1247  0.0461
26421W        W42555  13.834  10.716   3.425 -0.0730  0.0430  0.0422
26422W        W42556   5.900  12.272  10.814  0.1256  0.1183  0.3442
26423W        W42557   6.264  13.233  12.131 -0.1188  0.2164 -0.3537
26424W        W42558  17.263  10.172   3.532 -0.1341  0.1307 -0.1689
26425W        W42559   8.634   1.027   4.034 -0.3177  0.0963  0.0814
26426W        W42560   3.613  11.046  13.573  0.0503  0.2425  0.0575
26427W        W42561  11.572   2.792  15.890 -0.1259  0.0853  0.1407
26428W        W42562  13.045  14.085   2.498  0.1008 -0.2426 -0.3120
26429W        W42563   8.819   2.930   5.118  0.0002  0.0754 -0.0696
26430W        W42564  16.851  14.666   0.107 -0.1142 -0.1837 -0.1334
26431W        W42565   3.416   7.394  15.325 -0.0027 -0.1331 -0.0805
26432W        W42566   6.224  17.577  12.314 -0.1776 -0.0363  0.4113
26433W        W42567  13.217  13.323  15.604 -0.0782 -0.1919 -0.3157
26434W        W42568   0.386  17.425  10.414 -0.1077  0.0965  0.0856
26435W        W42569   1.261   8.237   4.072 -0.2262  0.2139 -0.2394
26436W        W42570   8.608   8.937  13.798 -0.0074  0.1704  0.0084
26437W        W42571  18.223   4.670   4.830  0.0298 -0.1194  0.2154
26438W        W42572  11.214  15.135  14.782 -0.2203 -0.0934 -0.2991
26439W        W42573   5.695   6.520  14.804  0.2309  0.0117  0.0285
26440W        W42574   3.704  14.126   3.653 -0.1560 -0.1069  0.0555
26441W        W42575  14.243   1.923  15.849  0.0526  0.1668 -0.2107
26442W        W42576   2.746  11.598  14.840  0.1295  0.4864  0.4035
26443W        W42577   8.428  14.001  11.880  0.0001  0.1628  0.0086
26444W        W42578   4.062  17.573   0.344  0.1468  0.4214  0.1038
26445W        W42579   8.092   1.359  14.069 -0.1306 -0.1167 -0.0013
26446W        W42580   1.605  17.251   4.489 -0.0125 -0.2057  0.3779
26447W        W42581   7.274  12.928  11.918  0.0956 -0.1454  0.1228
26448W        W42582   4.791   2.399   3.162 -0.1976 -0.0503 -0.2654
26449W        W42583   5.349  11.107  11.875 -0.3239  0.1911  0.0638
26450W        W42584  15.523  16.911  16.074 -0.3861 -0.1681  0.0741
26451W        W42585   3.593  15.239  13.631 -0.1147 -0.3812  0.1730
26452W        W42586   4.200  10.352  11.840 -0.0943  0.0716  0.0122
26453W        W42587  15.548   7.092  15.656 -0.1743  0.1762 -0.3860
26454W        W42588   2.078  12.310  14.800  0.1150 -0.1139  0.0814
26455W        W42589   9.774  14.504  14.646  0.1643 -0.3076  0.1568
26456W        W42590  12.888  13.964   0.844  0.1131 -0.1270  0.1395
26457W        W42591  11.227   6.341  12.690 -0.0567  0.1573  0.0921
26458W        W42592   8.845  12.469  13.842 -0.0352 -0.0693  0.0181
26459W        W42593   8.224  10.805   3.913 -0.2604  0.0954  0.2031
26460W        W42594   0.505   5.078   0.763  0.0653  0.1430 -0.2153
26461W        W42595   6.630   1.220   4.040 -0.2854 -0.1882 -0.0199
26462W        W42596   5.574   0.007  11.315 -0.0700 -0.0098  0.0452
26463W        W42597   1.295   7.077  15.892 -0.2752  0.1401  0.0461
26464W        W42598   8.591  15.429   2.683 -0.0131 -0.1552 -0.1632
26465W        W42599  14.951   6.891   1.775  0.1665  0.0048 -0.1043
26466W        W42600  15.202  11.656  11.087 -0.0935 -0.1486 -0.0100
26467W        W42601   8.987  15.944   5.107  0.1257 -0.2772 -0.2879
26468W        W42602  12.238  13.540  11.986 -0.2156 -0.3519 -0.0182
26469W        W42603   8.538  12.147   2.682  0.0373  0.1366 -0.0056
26470W        W42604   4.699  13.339   3.513  0.2666  0.1023  0.1341
26471W        W42605   0.637   4.851   3.217  0.3952  0.0318  0.1365
26472W        W42606  14.590   8.837  14.272 -0.0695  0.2038 -0.2385
26473W        W42607   2.573  14.445  14.799 -0.1310 -0.1206 -0.0396
26474W        W42608   6.760  16.960   2.733 -0.0275 -0.0127  0.3567
26475W        W42609   2.784   5.790  11.747  0.0792 -0.0805 -0.0151
26476W        W42610  16.707  14.962   3.477 -0.0913  0.0095 -0.0633
26477W        W42611   0.264   6.537  13.731 -0.0327  0.2312  0.4589
26478W        W42612  17.654   6.351  14.981  0.0106 -0.3103  0.1122
26479W        W42613  15.522   2.580  15.459  0.4112  0.2511 -0.0690
26480W        W42614  17.787   2.258   1.535 -0.0585  0.1085 -0.4281
26481W        W42615   7.229   0.181   6.195 -0.1604  0.2183  0.0507
26482W        W42616   8.977  14.475  13.774 -0.1833 -0.0748  0.0665
26483W        W42617   5.017   4.806   3.428  0.1964 -0.1912 -0.1628
26484W        W42618  17.191   2.434  12.333 -0.1285  0.0531  0.3751
26485W        W42619   8.856   5.517   1.102  0.1202  0.1288 -0.0909
26486W        W42620  17.748   0.477   0.241 -0.0663 -0.4025 -0.1180
26487W        W42621  12.296   6.946   3.810  0.2197 -0.0407  0.2107
26488W        W42622  15.229   3.528  14.200 -0.2889 -0.0658 -0.1063
26489W        W42623   4.575   7.682  15.012  0.2588  0.3210  0.0840
26490W        W42624   5.516   4.883  15.520 -0.1043 -0.0227  0.2132
26491W        W42625  18.381   4.387  12.351 -0.2364 -0.2813 -0.0379
26492W        W42626  13.960   1.465   2.347 -0.0978  0.6160 -0.0443
26493W        W42627  17.280  13.760  12.365 -0.1122  0.0609 -0.0258
26494W        W42628   8.382   8.292  13.608  0.3147 -0.1617 -0.1399
26495W        W42629  13.723  18.319   4.827 -0.0401 -0.2034 -0.1358
26496W        W42630   4.453  13.635  14.786  0.0632 -0.1746  0.0029
26497W        W42631  13.964  11.606   4.307  0.1449 -0.3181  0.2374
26498W        W42632   5.460   5.022   1.455  0.0940 -0.2672  0.0677
26499W        W42633  12.171   9.899  12.472 -0.2417  0.3911 -0.0675
26500W        W42634   7.247   5.756   0.939  0.3507  0.3509 -0.0228
26501W        W42635  14.619   4.327   2.370 -0.0347 -0.3391 -0.1553
26502W        W42636   5.724   5.934   3.497 -0.1547 -0.1367  0.0570
26503W        W42637   0.224  12.882   4.143 -0.0883  0.1547 -0.2410
26504W        W42638  10.658   4.894  10.827 -0.0417 -0.0907  0.1298
26505W        W42639   1.537   1.784  14.467 -0.0478  0.3148  0.1641
26506W        W42640   8.978  15.656  14.685 -0.2950 -0.0261  0.1141
26507W        W42641   2.129  10.630  13.634  0.1641 -0.1782  0.1292
26508W        W42642  16.091  13.406  14.335  0.1604  0.0506 -0.1097
26509W        W42643  13.416   4.084   3.887  0.1190 -0.0425  0.0487
26510W        W42644   3.841  15.433  14.414 -0.0653 -0.0938  0.0157
26511W        W42645  14.836   2.996   0.537 -0.0902  0.0508  0.1712
26512W        W42646   7.916   2.351  13.474  0.0577 -0.1255 -0.2859
26513W        W42647  15.601   7.227  14.344 -0.2419  0.1134  0.0859
26514W        W42648   3.896  12.768  15.860 -0.1873 -0.1488  0.0676
26515W        W42649   5.096  13.131  13.641 -0.1916  0.2779  0.0470
26516W        W42650   9.225  14.311   4.470 -0.0437  0.2611  0.1245
26517W        W42651   7.432  16.186  10.319  0.2018  0.0869 -0.1459
26518W        W42652  15.863   1.543   0.899 -0.1002  0.0028 -0.0631
26519W        W42653   2.195  16.667   1.396  0.1108 -0.2128 -0.0353
26520W        W42654  12.428  18.088  13.897 -0.0849 -0.0639 -0.1879
26521W        W42655   5.004   0.086  13.096 -0.0371  0.0649 -0.0464
26522W        W42656   3.299  14.270   3.420  0.0416  0.1413  0.2380
26523W        W42657   0.609   8.228   3.331  0.1947 -0.1827 -0.1972
26524W        W42658   9.817  16.291   3.436  0.0029 -0.0143  0.0724
26525W        W42659   8.823  17.591  11.702 -0.1863 -0.1982  0.0758
26526W        W42660  12.993   3.299   0.450 -0.3659 -0.0628  0.2338
26527W        W42661   4.193  10.560  11.052 -0.0962 -0.1860  0.2099
26528W        W42662   0.456   1.755   0.151 -0.0784 -0.0547 -0.0438
26529W        W42663   8.511  13.521  15.321  0.1252 -0.2790  0.3238
26530W        W42664  15.413   9.652   2.722  0.1833 -0.2000 -0.0904
26531W        W42665   8.992   9.404   0.847 -0.2077 -0.0837 -0.0622
26532W        W42666   2.949  14.536  13.397 -0.1271  0.2013 -0.1162
26533W        W42667   4.444   0.118  15.998 -0.0097 -0.3949  0.1000
26534W        W42668   3.960  13.228  13.588  0.2873  0.2081  0.0272
26535W        W42669   1.523  15.230  11.663 -0.3933 -0.0158  0.1187
26536W        W42670   8.691   9.261   2.213  0.1600 -0.1901 -0.1096
26537W        W42671   0.757   6.373  12.941 -0.1036 -0.0358  0.0522
26538W        W42672   5.912  10.903   0.290  0.1641 -0.0011  0.0451
26539W        W42673   1.171   0.900   2.451 -0.0677 -0.0635  0.0650
26540W        W42674   8.274  14.113   5.087 -0.1452  0.1388 -0.0521
26541W        W42675  12.343   0.628   4.201  0.2663  0.3282 -0.1929
26542W        W42676  18.095   7.926  12.277  0.2348 -0.0719 -0.1208
26543W        W42677   6.366   7.585  15.606 -0.1331  0.2651  0.1075
26544W        W42678  11.002   2.445  14.251 -0.1157 -0.0793  0.1121
26545W        W42679   7.034  13.020   0.366  0.0589  0.0431  0.0685
26546W        W42680   2.429  16.682  14.976  0.2417 -0.2993 -0.1297
26547W        W42681   7.032   3.620   0.680  0.0047  0.2064  0.0124
26548W        W42682   1.431   8.841  13.064 -0.1310 -0.0586  0.3345
26549W        W42683   1.924   8.795  11.464 -0.3200 -0.0781 -0.0407
26550W        W42684   8.810   2.087  16.017  0.0772 -0.1952  0.4219
26551W        W42685  10.873  14.472  15.934 -0.1658 -0.0909 -0.0972
26552W        W42686  13.060   3.614  14.871  0.1302 -0.0087 -0.1377
26553W        W42687   5.117  13.509  13.992 -0.2480 -0.1016 -0.0020
26554W        W42688   5.539  17.329  12.654  0.2243  0.0189 -0.2364
26555W        W42689   9.280  12.501   1.140 -0.1730  0.0705 -0.2915
26556W        W42690  10.951   9.259  13.869 -0.2230 -0.1573 -0.0832
26557W        W42691   9.657   8.580   3.281  0.0872  0.4439 -0.1383
26558W        W42692  11.397   5.544   1.520  0.1432 -0.2878 -0.0286
26559W        W42693   8.683   5.388  15.176  0.0904 -0.0814  0.0249
26560W        W42694   5.459   3.051  14.145  0.1508  0.0547  0.1968
26561W        W42695   2.821   5.910  11.069 -0.1953 -0.1721 -0.1367
26562W        W42696  16.371   2.111  12.518  0.0447  0.0109  0.3216
26563W        W42697  16.847   3.912   2.298  0.0443  0.0046  0.0104
26564W        W42698   8.352  12.331  14.708 -0.0142 -0.0540  0.0939
26565W        W42699   7.376  11.644  14.295 -0.0703  0.0265 -0.0289
26566W        W42700   5.467  11.927  15.930  0.0610  0.3040 -0.0686
26567W        W42701  13.592  13.009  12.327 -0.2269 -0.2642 -0.3112
26568W        W42702   6.269  17.100   2.907 -0.1473  0.0520 -0.6386
26569W        W42703   6.321   2.566  12.023 -0.0018  0.1096  0.2672
26570W        W42704   4.736   0.713   0.695  0.0664  0.5160 -0.3161
26571W        W42705  10.680   6.035   3.986  0.0524  0.2763  0.3249
26572W        W42706  13.315   3.576   5.180 -0.1565  0.2589  0.0247
26573W        W42707  13.855  11.685   1.768 -0.2133  0.1862  0.1822
26574W        W42708  12.489   4.441   2.443 -0.0929 -0.0785  0.1086
26575W        W42709   2.176   6.868   0.771  0.0200  0.0594 -0.1569
26576W        W42710  12.580   7.961   5.527 -0.3123  0.4172  0.0167
26577W        W42711   6.002   3.119  14.246  0.0650 -0.2251 -0.0178
26578W        W42712  16.060  15.231   4.413 -0.1157  0.3511 -0.1086
26579W        W42713  15.136   8.315  15.202 -0.0951 -0.0828  0.1687
26580W        W42714   4.845   7.326   1.609  0.2176 -0.2541  0.0410
26581W        W42715   9.612  15.389  11.667 -0.0046 -0.1112  0.1051
26582W        W42716   6.630   0.783   5.696  0.0222 -0.2492 -0.1202
26583W        W42717  16.962   9.544   3.937  0.1351  0.0345  0.1824
26584W        W42718  13.321   7.253  12.313 -0.0652 -0.2155  0.1275
26585W        W42719  12.670  15.138  13.813  0.1499 -0.3006  0.3152
26586W        W42720   4.150  16.926  12.734  0.2241  0.3122 -0.1310
26587W        W42721   3.177   0.891   1.339  0.2011  0.3732  0.0465
26588W        W42722  10.604   0.399   0.988 -0.0837 -0.0497  0.1815
26589W        W42723  14.491   6.423  12.598 -0.3627  0.0079 -0.6065
26590W        W42724  11.274  16.529  13.447  0.1716 -0.0936  0.0620
26591W        W42725   0.496  13.604   0.997  0.3884  0.3397 -0.0608
26592W        W42726   1.595  10.112   1.367 -0.1001 -0.3414 -0.0078
26593W        W42727  17.367   9.093   0.602 -0.1447  0.0597 -0.0453
26594W        W42728  17.117  16.217  14.513  0.1284  0.2954 -0.1325
26595W        W42729   3.983  16.829   2.191 -0.1199 -0.0513 -0.2124
26596W        W42730   9.709  17.766  15.970  0.1599  0.2722  0.0523
26597W        W42731  10.827  12.686  15.365 -0.1416 -0.0568 -0.1984
26598W        W42732  17.203   0.549  12.591 -0.2403  0.0355 -0.1827
26599W        W42733  10.249  12.030  12.717 -0.1349  0.1437  0.2981
26600W        W42734  16.135   1.404  13.557 -0.1090  0.2238  0.0369
26601W        W42735  10.818   2.830   2.223  0.0589  0.0837 -0.3717
26602W        W42736   7.465  14.159  11.997 -0.2309  0.1784 -0.2750
26603W        W42737  17.613   6.521  13.928 -0.0764  0.2712 -0.1077
26604W        W42738   3.478  10.047  12.420  0.2894 -0.0993  0.0375
26605W        W42739  10.888   6.815   3.018  0.1142 -0.0601 -0.0961
26606W        W42740  14.194  10.904  16.026 -0.0397  0.1378  0.0967
26607W        W42741  17.140  16.489   3.078  0.0335 -0.0318  0.1848
26608W        W42742   3.411   1.370   5.825 -0.1589 -0.1540  0.0498
26609W        W42743   1.035   6.403   0.158  0.3288  0.0232  0.1985
26610W        W42744  13.744  14.749  12.947  0.1239 -0.0963  0.0407
26611W        W42745  12.090  17.588   0.043  0.1127 -0.0795  0.0448
26612W        W42746   3.345  14.622  10.943  0.0680 -0.1894  0.1520
26613W        W42747  14.906  14.852   5.048  0.2200 -0.0615  0.2039
26614W        W42748   5.076  10.751   2.901 -0.1498 -0.0194 -0.0857
26615W        W42749  10.446   1.031  13.800 -0.2507 -0.1633  0.0779
26616W        W42750   7.239   6.266   1.034  0.0809 -0.3182  0.4556
26617W        W42751  14.858   1.581  11.405  0.2549  0.0415  0.2296
26618W        W42752   1.347   6.508   2.928 -0.0853  0.0749  0.2950
26619W        W42753   5.135   8.782  12.921  0.2799 -0.1488  0.1475
26620W        W42754  12.561   9.990   5.400 -0.2265 -0.1015 -0.1307
26621W        W42755   2.252  18.370  12.291  0.0852  0.1200 -0.4791
26622W        W42756   1.849  10.395  11.747 -0.0193 -0.0624 -0.0731
26623W        W42757  16.343  15.344   0.000 -0.1888 -0.0169 -0.2310
26624W        W42758   0.624  18.374   0.116  0.1643 -0.1581  0.1012
26625W        W42759   0.077   5.758  14.467  0.3638 -0.0369 -0.0576
26626W        W42760   8.620  15.099   6.755  0.2635  0.1730 -0.0949
26627W        W42761  14.786   9.000   2.154 -0.0080  0.3566 -0.3050
26628W        W42762   7.536   6.652   0.946  0.0755  0.2838  0.0355
26629W        W42763  16.462  11.124   1.186  0.0845  0.0689 -0.4717
26630W        W42764   7.858  10.111  13.966 -0.3002 -0.2027  0.0453
26631W        W42765  15.327  14.493   2.301  0.1861 -0.3269 -0.1508
26632W        W42766  18.075   9.374   1.410  0.0512 -0.0947  0.1114
26633W        W42767   6.226  17.721  14.640 -0.1376  0.0748  0.1149
26634W        W42768   7.662  17.626   1.033  0.1217 -0.0030 -0.2605
26635W        W42769   5.953  16.587   0.675  0.1544  0.0917 -0.0024
26636W        W42770   4.237  11.253   2.419 -0.2105  0.2135 -0.0364
26637W        W42771   8.544   3.599  14.380 -0.2714 -0.0651 -0.3589
26638W        W42772   4.261   3.392  12.312  0.0032 -0.1439 -0.1158
26639W        W42773   0.871   2.801   4.065 -0.0051 -0.0693 -0.0325
26640W        W42774  11.560   1.774   4.073  0.3525 -0.0545  0.1707
26641W        W42775  12.018   7.437   0.512 -0.0044 -0.2066  0.2265
26642W        W42776  11.029  14.100  12.583  0.0305  0.0258  0.1682
26643W        W42777  15.878   3.294   1.617  0.0167  0.0117 -0.0258
26644W        W42778  14.662  18.299   0.367  0.0664  0.2852  0.3254
26645W        W42779  10.729   8.286  14.352 -0.0036  0.0259  0.1119
26646W        W42780   9.515  15.940  13.153 -0.2824 -0.2727 -0.1181
26647W        W42781   6.702   1.784  13.191  0.3376  0.0889  0.2162
26648W        W42782  15.931  18.163   1.145  0.1531  0.0314  0.0481
26649W        W42783   5.873   6.985  14.913  0.0154 -0.0239 -0.1525
26650W        W42784   2.003   9.842   1.480  0.1822  0.1400 -0.0390
26651W        W42785  15.936   3.863   4.299 -0.1037  0.1794 -0.0972
26652W        W42786  14.843   2.366   1.715 -0.0538 -0.2088  0.1056
26653W        W42787   4.267   1.710   3.190 -0.0582 -0.0809  0.0680
26654W        W42788   2.966   5.974  14.692 -0.2123  0.0494 -0.0695
26655W        W42789   2.464   0.953   1.718 -0.4907  0.0362  0.0154
26656W        W42790  17.082  12.553   1.310  0.0429  0.3281 -0.0069
26657W        W42791   1.563   7.944  10.610  0.0678  0.1214 -0.1515
26658W        W42792  10.009  18.471   4.328  0.1300 -0.0855 -0.2575
26659W        W42793  17.264  17.181   1.674 -0.1822  0.1088  0.1640
26660W        W42794   7.377   4.048   2.568 -0.0699 -0.1048 -0.1731
26661W        W42795   5.248   6.584   2.156  0.3305 -0.3025  0.0162
26662W        W42796   1.949   3.887  16.018  0.0327  0.0059  0.2971
26663W        W42797   9.736   2.119   4.590  0.0876  0.1643 -0.0210
26664W        W42798  14.552   7.018   5.346  0.1784  0.0106  0.0756
26665W        W42799  17.563  13.682   4.218 -0.2579 -0.3473 -0.1603
26666W        W42800  16.529   4.171   1.882  0.1245  0.4086 -0.1512
26667W        W42801  13.004   7.516   4.738  0.1323  0.2400  0.1012
26668W        W42802   1.227   4.402   0.301  0.3491 -0.0329 -0.0952
26669W        W42803  14.849   8.920   1.296 -0.2017  0.0606 -0.2875
26670W        W42804  12.721  17.724   5.378  0.0794  0.0452  0.3203
26671W        W42805  10.582  16.025  14.756 -0.0408  0.4103 -0.1605
26672W        W42806  10.856   0.008   4.878 -0.1126 -0.0786 -0.0983
26673W        W42807   9.498  10.095   1.457  0.0068 -0.3231  0.0755
26674W        W42808  16.667   7.593  14.100 -0.1396  0.0537  0.0562
26675W        W42809   6.827   4.103  12.821  0.1334 -0.0618 -0.1659
26676W        W42810   4.159   0.398  13.767  0.2077 -0.0449  0.1584
26677W        W42811   5.067   2.063  15.686 -0.0715  0.0866 -0.2834
26678W        W42812   2.169   1.635   0.984 -0.0215 -0.1776  0.1393
26679W        W42813   2.852   7.834  11.485 -0.1399 -0.0621 -0.2810
26680W        W42814   9.143   1.676  13.853 -0.1534 -0.1236  0.0849
26681W        W42815  11.917   3.612   5.426 -0.1429  0.1187  0.6004
26682W        W42816   2.987   4.629  10.107  0.0754 -0.3890  0.0641
26683W        W42817   5.310   7.919  15.313  0.3249  0.1704  0.0299
26684W        W42818   5.546   3.578  13.365 -0.1158  0.0162 -0.2511
26685W        W42819   7.472  18.277  15.197  0.3019  0.1447 -0.2336
26686W        W42820   6.866  10.479   5.475  0.0669 -0.1041 -0.0555
26687W        W42821  12.522   7.554   6.531  0.0785  0.1840 -0.1154
26688W        W42822  14.742   3.706   3.003 -0.0201 -0.1618 -0.0996
26689W        W42823  18.303   5.134  11.979  0.3076  0.1561  0.2700
26690W        W42824   6.219  11.431  15.456  0.0017 -0.2153  0.2355
26691W        W42825   1.106  16.761  12.624  0.0145 -0.2052 -0.0827
26692W        W42826  10.832  10.865   3.930 -0.1585 -0.1710 -0.2323
26693W        W42827  11.645  16.731   1.284  0.1282 -0.1201 -0.0865
26694W        W42828  11.035  15.829   5.728  0.0473 -0.2569  0.1012
26695W        W42829  15.582  17.240   0.796 -0.0362  0.0946  0.1477
26696W        W42830   9.547  10.162   0.983 -0.2005 -0.2424  0.0506
26697W        W42831  10.575  15.429  13.712  0.1439 -0.1090 -0.2742
26698W        W42832  18.297   7.557   3.429  0.1658 -0.2453  0.3329
26699W        W42833   4.688   1.264   0.615 -0.2163 -0.1161  0.0188
26700W        W42834   6.593   8.146   4.868 -0.0038 -0.1765 -0.0734
26701W        W42835   8.967   0.017  12.250 -0.2074 -0.1428  0.0386
26702W        W42836   4.312  12.629  12.074 -0.3596  0.0741  0.1438
26703W        W42837  11.942   5.652   3.376  0.0379  0.0344 -0.1881
26704W        W42838   5.247  11.890   3.922 -0.0234 -0.2357 -0.1495
26705W        W42839   8.645  12.654   4.388 -0.4482  0.1841 -0.1875
26706W        W42840  10.947  12.075   3.746  0.0488  0.1762  0.2104
26707W        W42841   9.316   3.336  13.220 -0.1498  0.0362  0.2285
26708W        W42842  10.042   3.935   3.189 -0.4766 -0.0286 -0.2089
26709W        W42843   2.625  16.289   2.862  0.1854  0.3815  0.0114
26710W        W42844   6.736   3.801  14.850  0.2556 -0.3211  0.0286
26711W        W42845  16.538   7.404   3.235 -0.2073  0.0740 -0.0039
26712W        W42846  16.382   1.773   3.753 -0.2179  0.0574 -0.2065
26713W        W42847   4.176  15.364   4.581 -0.2496 -0.0401  0.1524
26714W        W42848   7.015   5.734  14.837  0.2287  0.1229  0.1448
26715W        W42849   2.387   2.649  15.331 -0.5535  0.1600  0.0886
26716W        W42850  13.970  17.282  12.407 -0.0891  0.1954 -0.1832
26717W        W42851  10.052   7.844   3.878 -0.0698 -0.1896  0.2224
26718W        W42852   6.513   1.675  12.074 -0.1760 -0.2010  0.2934
26719W        W42853  18.093   6.083  15.060 -0.2177  0.3174  0.1559
26720W        W42854  11.761   0.579   2.956  0.1300  0.5841 -0.0340
26721W        W42855  11.534  17.618   2.680  0.0049 -0.2124  0.0598
26722W        W42856   7.412  16.844  11.574 -0.0956 -0.0818  0.0134
26723W        W42857  15.514  16.885  12.513 -0.0460  0.0060 -0.1582
26724W        W42858  18.172   0.565   2.062  0.1895 -0.2175  0.4157
26725W        W42859   5.754   0.095   4.365  0.1053  0.3189 -0.2117
26726W        W42860  10.712   7.971   4.663 -0.3839  0.2394  0.1884
26727W        W42861   2.245   5.346  14.367 -0.1350  0.1089  0.0549
26728W        W42862  12.120   8.579   1.548  0.0577  0.1557  0.0874
26729W        W42863  17.745   5.386   3.743  0.0768  0.1873 -0.1046
26730W        W42864  16.087  16.623   1.221 -0.0091 -0.1731 -0.1714
26731W        W42865   9.831   7.572   4.245  0.0138 -0.1434 -0.1151
26732W        W42866  15.309  13.434  12.151 -0.0029  0.0128  0.0294
26733W        W42867   2.929   3.437  13.659  0.3044 -0.1265 -0.0434
26734W        W42868   8.284   8.231   3.337 -0.2570 -0.0093  0.2452
26735W        W42869   7.881  12.809   0.615 -0.0331  0.1016  0.3769
26736W        W42870  15.090  16.346   0.525  0.5345 -0.3241 -0.0142
26737W        W42871   0.032   7.671   5.530  0.2236  0.1275 -0.1161
26738W        W42872  14.817  11.263   4.687 -0.0189 -0.0613  0.1421
26739W        W42873  14.199   6.977   1.116  0.3096 -0.0362  0.3074
26740W        W42874  17.113  18.175   4.924  0.0637 -0.0683  0.1683
26741W        W42875  12.076  13.695   5.053  0.0503  0.2025 -0.0742
26742W        W42876   3.264   4.455  11.726  0.4211 -0.0919  0.0875
26743W        W42877   9.359   5.519  13.015 -0.0538 -0.2076  0.1718
26744W        W42878   6.530   2.803  13.100 -0.1467  0.2400  0.1231
26745W        W42879   9.510  11.924   2.740 -0.0286  0.2141 -0.1045
26746W        W42880  15.902  12.052  13.419 -0.0911  0.0351  0.0408
26747W        W42881   5.180   7.057  15.319 -0.0238 -0.3095  0.0331
26748W        W42882  16.066   7.795   3.366  0.0639 -0.2363 -0.1260
26749W        W42883  13.013  13.714  13.734 -0.0780 -0.0654  0.0332
26750W        W42884   6.730   1.145  15.309  0.1452 -0.3632 -0.0469
26751W        W42885   6.285   0.701  11.874  0.0906 -0.1090 -0.1201
26752W        W42886   2.218   8.034   0.544  0.0686 -0.0971 -0.1696
26753W        W42887  13.413  15.732   2.438 -0.0856  0.0271  0.2142
26754W        W42888   2.164  13.695  14.750 -0.0310  0.0689 -0.1689
26755W        W42889  18.112   6.413   3.256  0.1445 -0.1914 -0.2225
26756W        W42890  15.261   0.824   1.094  0.2019  0.4499  0.1598
26757W        W42891  12.080   8.404  14.460 -0.1755 -0.0563  0.1930
26758W        W42892   7.169  16.728  12.953 -0.1101  0.2008  0.3503
26759W        W42893  13.730   4.449   1.127 -0.2075 -0.2224  0.0246
26760W        W42894  14.997  14.851   2.212  0.0124 -0.0528 -0.3134
26761W        W42895  13.819  16.103  11.204  0.3383  0.1535 -0.1380
26762W        W42896  12.942  15.441  14.155 -0.0365  0.1011  0.1193
26763W        W42897  12.797  16.228   2.513  0.0060 -0.2453  0.1838
26764W        W42898   5.145   0.757   1.997  0.0026 -0.0375  0.1705
26765W        W42899  11.320   9.499   1.973  0.1438 -0.1291  0.1103
26766W        W42900   6.525   7.518   1.746  0.0778 -0.3142 -0.2354
26767W        W42901   5.039   4.564   3.916 -0.2589  0.0034 -0.2921
26768W        W42902   4.363   3.752  11.034  0.2308 -0.1097  0.0634
26769W        W42903  13.962   6.101   2.377 -0.0580 -0.1936 -0.1710
26770W        W42904   7.102   5.377   4.123  0.0785  0.0022  0.2024
26771W        W42905  17.479  17.844   5.094 -0.0580 -0.3236 -0.1485
26772W        W42906  17.133   2.318   2.874 -0.0686  0.1617  0.0347
26773W        W42907   3.764   2.942  15.990  0.0087 -0.0433 -0.0940
26774W        W42908  10.073  15.714   0.248  0.5558 -0.1227  0.1673
26775W        W42909   9.031  18.159  11.836  0.2928  0.0513 -0.0290
26776W        W42910   3.097  15.579  15.203  0.1573 -0.2374  0.3135
26777W        W42911  11.246  15.229  14.299  0.0320  0.1139  0.0381
26778W        W42912   2.421  13.904  15.513 -0.2263  0.0664 -0.1386
26779W        W42913  17.894   4.883   4.498 -0.0479 -0.1936  0.2437
26780W        W42914  15.253  13.867  13.283 -0.0237 -0.0368  0.2076
26781W        W42915   9.350  18.452  14.738  0.1648 -0.2417  0.1818
26782W        W42916   1.124  15.001   1.451 -0.1209  0.2513 -0.4336
26783W        W42917   2.060  15.361  11.007  0.0300 -0.0896  0.2138
26784W        W42918   9.483   5.593   2.704  0.1899 -0.3287  0.3150
26785W        W42919   7.553  15.369   4.483  0.1763 -0.0036  0.0880
26786W        W42920   7.657   7.205   1.854  0.1603 -0.0450 -0.1847
26787W        W42921   8.189  12.077  14.348  0.1913 -0.0097 -0.0004
26788W        W42922  16.502  17.966  14.671  0.3816  0.2645 -0.0077
26789W        W42923  12.262  11.337   3.361 -0.0427 -0.1115 -0.0931
26790W        W42924   2.782  14.925  12.017 -0.1297  0.1042  0.1905
26791W        W42925   2.596  17.874  15.272 -0.0855  0.3529 -0.0375
26792W        W42926  12.236   5.768  15.363  0.2030  0.1215 -0.0354
26793W        W42927  15.001  10.907  13.630 -0.2259  0.2006  0.3639
26794W        W42928  14.512  16.179  13.985  0.1328 -0.3831  0.0420
26795W        W42929   6.786  16.366   4.906  0.2027  0.0385  0.0845
26796W        W42930   6.557   1.739   3.991 -0.0607 -0.0001 -0.0780
26797W        W42931  13.687   3.372   4.748  0.0131 -0.0750 -0.2962
26798W        W42932  14.396   0.866   2.892 -0.1576  0.2422  0.3232
26799W        W42933  15.722   0.692  11.327 -0.1090  0.1721 -0.1305
26800W        W42934   5.843   5.109  13.234 -0.0056 -0.3076 -0.0586
26801W        W42935   3.487  16.658  13.655  0.1451  0.0557  0.1277
26802W        W42936  17.783  16.008   1.212  0.2504 -0.2918  0.6547
26803W        W42937  13.135   9.186  14.948 -0.3055  0.3757  0.3585
26804W        W42938  14.945   6.270  15.273  0.4162 -0.1530  0.1240
26805W        W42939   4.424  14.543  10.566  0.0880 -0.1382 -0.2220
26806W        W42940   6.572   4.323   4.002  0.0027 -0.1806 -0.1525
26807W        W42941   0.983  15.813   0.418  0.1161 -0.5046 -0.1069
26808W        W42942  17.693   4.739   1.808 -0.0458  0.0488  0.1935
26809W        W42943   9.028  11.564   3.699 -0.3406 -0.2647  0.3325
26810W        W42944  13.909   3.248  15.685 -0.2593  0.0405 -0.2125
26811W        W42945   2.726  14.461  14.249  0.1623  0.0007  0.3131
26812W        W42946   7.881  16.233   5.707  0.1166  0.2063 -0.1508
26813W        W42947   5.343   1.791  15.420 -0.0967  0.0043  0.2037
26814W        W42948  11.238   3.316  15.675 -0.1446 -0.0454  0.0857
26815W        W42949  13.000   9.727  14.975 -0.1401 -0.0216 -0.3651
26816W        W42950   4.414  12.383   3.839 -0.2895  0.2704 -0.1273
26817W        W42951  16.704  15.635  15.047 -0.0289 -0.0011  0.0549
26818W        W42952   6.226  11.856  13.001  0.1074  0.0252 -0.3990
26819W        W42953  14.179  18.445  13.311  0.0409  0.1355  0.2571
26820W        W42954   6.742   5.612   4.421  0.0823  0.0347 -0.0287
26821W        W42955  14.272  18.417   0.655 -0.0647  0.0597  0.0837
26822W        W42956   5.940  17.373   3.403  0.0814 -0.1819 -0.1031
26823W        W42957   8.845  13.383   2.961 -0.1265 -0.2667 -0.1156
26824W        W42958  15.363   0.918   1.990 -0.0302 -0.1731 -0.2264
26825W        W42959  17.265  16.793  15.000 -0.0277  0.0723  0.2557
26826W        W42960   0.101   7.213  14.160  0.0327  0.2240 -0.1647
26827W        W42961  13.263   2.455   4.459 -0.1542  0.3886  0.0002
26828W        W42962  11.596  13.038  11.440  0.0315 -0.2357 -0.0587
26829W        W42963   1.507  15.302   0.492  0.0716 -0.1794 -0.2363
26830W        W42964  11.817  18.188   2.671  0.0163  0.0963 -0.3320
26831W        W42965   1.282  11.413   1.832  0.3419  0.0928 -0.0544
26832W        W42966  12.884  10.484  15.138  0.0769  0.2451 -0.2573
26833W        W42967  10.385  17.426  13.333 -0.2746  0.0376 -0.1949
26834W        W42968   8.458   8.209   0.984  0.0926  0.1869 -0.0169
26835W        W42969  11.656  10.499  15.808  0.0250 -0.1625  0.0892
26836W        W42970  15.869   8.003   4.338 -0.0772  0.1805  0.0671
26837W        W42971  11.600   0.916  11.214 -0.4051 -0.1235  0.0565
26838W        W42972  15.892   1.445  14.413 -0.2004 -0.1990  0.1206
26839W        W42973   6.261   2.730  15.302  0.0579  0.1770 -0.1685
26840W        W42974   5.444  15.541   4.856 -0.1036  0.0567  0.2247
26841W        W42975   4.385  15.677   4.146  0.4729 -0.2183  0.0829
26842W        W42976   8.056   6.726   2.129 -0.0332  0.2762 -0.0967
26843W        W42977  16.780  11.719  13.161  0.3275  0.2285  0.2373
26844W        W42978   5.895   8.288  11.450  0.2097 -0.1500  0.1342
26845W        W42979   6.333  14.566   4.220 -0.4914  0.1930 -0.4555
26846W        W42980  17.417   1.198  15.319 -0.1820 -0.0117  0.0665
26847W        W42981   9.377   7.639   0.826  0.0181 -0.0286 -0.1881
26848W        W42982   9.938   9.514   2.586  0.0313  0.0994 -0.3038
26849W        W42983  16.066  11.421  14.416 -0.1585 -0.0963 -0.2359
26850W        W42984   5.121  15.923  14.712  0.2275  0.1683  0.4163
26851W        W42985  12.054  18.006   4.648  0.3131  0.2734 -0.0149
26852W        W42986  12.612  10.908   0.310  0.0618 -0.0448  0.2819
26853W        W42987  10.142   7.959   5.662 -0.2044 -0.1274 -0.0324
26854W        W42988   0.141  12.695   1.902 -0.2479  0.0534 -0.2851
26855W        W42989   5.426   8.672   4.896 -0.3195 -0.1690  0.1042
26856W        W42990   4.285   8.977   5.467 -0.2372  0.1768  0.0709
26857W        W42991  15.647   9.231   2.727  0.0515  0.1796 -0.1345
26858W        W42992  10.559   1.854  14.659 -0.1849  0.0099  0.0325
26859W        W42993   2.647  14.622   0.068  0.0412  0.0264 -0.0120
26860W        W42994  10.735   8.895   0.242 -0.2178 -0.0456 -0.0934
26861W        W42995  11.120   2.012   3.464 -0.2708  0.0008  0.1112
26862W        W42996   8.249   1.447   2.182 -0.0753  0.0438 -0.3341
26863W        W42997   9.336  12.583   0.631  0.0302  0.2579 -0.0413
26864W        W42998  14.367   8.497  13.970  0.0263  0.2638 -0.0284
26865W        W42999   6.291  10.758  11.875  0.2030  0.1110 -0.0667
26866W        W43000  11.365  10.361  11.901  0.1919  0.0902 -0.1519
26867W        W43001  13.831  17.718  14.465 -0.0131  0.0509  0.3651
26868W        W43002   8.896   7.429  11.218 -0.3428  0.0996 -0.1097
26869W        W43003  13.360   2.315   3.273 -0.1078 -0.0258  0.0586
26870W        W43004   6.252   1.911   5.960  0.0213  0.1820  0.0499
26871W        W43005  12.252   2.103   6.205 -0.0469  0.0377  0.3782
26872W        W43006   0.341   1.360   4.319 -0.1701 -0.0928  0.1178
26873W        W43007  17.667  13.017   2.332 -0.1596 -0.2300  0.0672
26874W        W43008   3.120   9.315   0.708 -0.0351  0.0324 -0.2063
26875W        W43009   5.852   6.749   1.712  0.0445  0.3955  0.1907
26876W        W43010   1.390   8.982  15.659 -0.1251 -0.0686  0.1503
26877W        W43011   9.391  10.407  14.810 -0.2270  0.0619 -0.0515
26878W        W43012  12.756  13.827   5.155  0.0346 -0.0033  0.1789
26879W        W43013   4.035  15.587  12.865  0.2799 -0.2148 -0.0701
26880W        W43014   6.888   2.639   2.861  0.2495 -0.0171 -0.1816
26881W        W43015  13.161   6.011   0.099 -0.1221 -0.1252  0.2592
26882W        W43016  15.657  17.996   1.647 -0.2557  0.0816 -0.1055
26883W        W43017  12.989   0.240   1.415 -0.2010  0.0929  0.3852
26884W        W43018   5.449   5.170   3.109  0.0810 -0.3721 -0.0899
26885W        W43019   5.124  15.196  15.837  0.0467  0.1443 -0.2576
26886W        W43020   8.310   3.468   3.882  0.1066 -0.0474  0.2439
26887W        W43021   5.368   5.228   4.855  0.1717 -0.2015 -0.0702
26888W        W43022  12.744  16.205   3.837  0.1157 -0.2892  0.1090
26889W        W43023   0.098   6.293   3.001  0.5131  0.0466 -0.0207
26890W        W43024  14.083  14.453  13.683 -0.0135 -0.2369  0.0176
26891W        W43025   5.937  11.210  13.994  0.0707  0.0441 -0.0445
26892W        W43026   3.790   9.807   4.441  0.0061  0.3449 -0.0529
26893W        W43027   0.247   7.874   3.234 -0.1722 -0.2058  0.1775
26894W        W43028   9.907  11.456   5.089 -0.0205 -0.1620  0.1616
26895W        W43029   7.925   9.689  14.133 -0.1134 -0.0235  0.0239
26896W        W43030  16.809  11.685   1.157  0.0540 -0.1227  0.2350
26897W        W43031   3.704   3.201   0.880 -0.4397  0.1008  0.0578
26898W        W43032  16.746  16.766   1.612 -0.0876 -0.3278  0.0908
26899W        W43033   7.177  12.428  14.426  0.1739  0.0850 -0.3042
26900W        W43034  14.972   4.320   0.326 -0.2778  0.1228 -0.0935
26901W        W43035  16.453  11.925  14.102 -0.2417  0.1406  0.2079
26902W        W43036   3.864   1.568  15.070  0.1704  0.4262 -0.1135
26903W        W43037  14.486   6.818  14.196  0.3908 -0.0911  0.0214
26904W        W43038  16.236  11.628   2.858 -0.0289 -0.0657 -0.1046
26905W        W43039  16.976  18.467  14.229 -0.1691 -0.3147  0.3269
26906W        W43040   1.739   3.876   2.398 -0.0613  0.0069 -0.4568
26907W        W43041   0.335   6.316  14.215  0.1067  0.0986  0.3584
26908W        W43042  14.859   6.103  14.185  0.0005  0.0205  0.1289
26909W        W43043  16.509  12.729   2.459  0.1287  0.0756 -0.0148
26910W        W43044  13.673   1.098  14.858  0.1921  0.0386  0.1173
26911W        W43045   9.762  10.293  13.935  0.0379  0.0636 -0.2175
26912W        W43046   8.126  13.436   2.354  0.1802  0.3442  0.0541
26913W        W43047   3.578   5.698   0.046 -0.3496  0.1515 -0.0116
26914W        W43048   7.711  15.974  14.549 -0.2706 -0.0148  0.2557
26915W        W43049   7.311  11.729  15.396  0.1097  0.0732  0.0239
26916W        W43050   6.509   8.599   2.492 -0.1026  0.3585  0.2927
26917W        W43051   0.731  12.321   2.125 -0.2769 -0.0741  0.1521
26918W        W43052  11.467   2.376  12.436 -0.0953  0.1754 -0.4839
26919W        W43053  14.916  11.471  16.015 -0.2144  0.1977  0.2032
26920W        W43054  11.201   4.203   5.278 -0.0751 -0.3564 -0.0375
26921W        W43055  13.162  17.003  14.764  0.2001  0.4091  0.1738
26922W        W43056   3.507  13.659   0.245 -0.1323 -0.0464  0.3363
26923W        W43057  11.427  15.608  15.165  0.3434 -0.2181 -0.2839
26924W        W43058   5.691  16.927  14.818  0.0821  0.1160  0.1069
26925W        W43059  15.251   1.479   1.967 -0.1557  0.2271  0.1094
26926W        W43060  13.254   3.242  15.259  0.0445  0.1901  0.3850
26927W        W43061   6.818   0.395  14.200  0.0097  0.3495  0.0561
26928W        W43062   3.873  17.987   2.743  0.0644  0.1097  0.1572
26929W        W43063   7.794  15.066   1.460 -0.0179  0.4809 -0.2478
26930W        W43064   7.658   3.347   4.875 -0.2939  0.0366 -0.1353
26931W        W43065   5.504   5.799   5.801  0.3562 -0.1035 -0.2341
26932W        W43066   5.780  11.422  15.708  0.5377 -0.2689  0.0539
26933W        W43067   3.614   8.671  13.862 -0.1043 -0.2734  0.1272
26934W        W43068   7.241   2.757  14.304 -0.1093 -0.0069 -0.2434
26935W        W43069   0.598  15.753  14.154 -0.0747 -0.1281 -0.0128
26936W        W43070  17.903   2.205   1.001 -0.1908 -0.1188 -0.2279
26937W        W43071  10.168   6.790  12.662 -0.0964 -0.0222 -0.2058
26938W        W43072   8.141   7.779  15.942  0.0012  0.2059  0.2700
26939W        W43073  17.496  16.612  10.601 -0.0758 -0.0771  0.0057
26940W        W43074   1.855   5.607   0.308 -0.1110 -0.0796 -0.0296
26941W        W43075  11.016  10.171  14.102  0.2076 -0.0082 -0.4093
26942W        W43076   2.446   8.734  12.412 -0.2844  0.1416 -0.0496
26943W        W43077  15.729  11.162   3.693 -0.0372  0.1453 -0.1890
26944W        W43078  14.752   7.995  10.394  0.0891 -0.3487  0.0031
26945W        W43079  11.312  16.089   1.550  0.3408  0.0730 -0.1674
26946W        W43080  18.074  13.108  12.928 -0.1513  0.0318 -0.0337
26947W        W43081  12.002  17.784   1.118 -0.0189  0.0408 -0.1311
26948W        W43082   8.189   7.093  15.314 -0.1175 -0.1570  0.0602
26949W        W43083   1.723   0.386  11.440  0.2665  0.0266  0.0123
26950W        W43084   1.184  18.204  11.085 -0.0372  0.1645  0.1012
26951W        W43085   9.776  11.552   0.707  0.0090 -0.0234 -0.4646
26952W        W43086   3.955  16.202   0.579 -0.1958 -0.1285 -0.1152
26953W        W43087  16.688   9.510   2.104 -0.1207 -0.1506 -0.0053
26954W        W43088   8.567  17.919  11.973  0.3140 -0.0332 -0.0885
26955W        W43089   6.186   3.167  14.777 -0.2605 -0.3387  0.1569
26956W        W43090  14.584   0.184  14.841  0.1091 -0.1211 -0.0498
26957W        W43091  11.958   6.651  11.992 -0.2425  0.2767  0.1322
26958W        W43092   0.932  16.057  13.213 -0.1924  0.0148 -0.0208
26959W        W43093  12.155   6.357  12.483 -0.0878 -0.1228 -0.1470
26960W        W43094   2.585   3.632   1.419 -0.0415 -0.0968  0.0173
26961W        W43095   7.900  13.713  14.159  0.0659 -0.0168  0.0166
26962W        W43096  10.138  12.992  12.656  0.2342  0.1138  0.0371
26963W        W43097   1.767  14.621   3.362  0.0250 -0.1571 -0.1536
26964W        W43098   8.820   3.799  12.216  0.1493 -0.2794  0.2038
26965W        W43099   3.406  10.210   2.375 -0.0865 -0.3116 -0.2268
26966W        W43100   7.309   7.070  11.950  0.1126  0.0830 -0.1469
26967W        W43101   3.230   7.840  15.096  0.0245  0.0313  0.0563
26968W        W43102  15.135  10.000   3.126 -0.0780  0.2196  0.2280
26969W        W43103  11.909  12.645  14.802 -0.1935  0.1837 -0.2337
26970W        W43104   5.647  10.184   3.532 -0.0760  0.2274  0.2195
26971W        W43105   1.609  18.337  11.487 -0.1310 -0.1519 -0.1240
26972W        W43106   7.377   1.408   0.127 -0.2105  0.1833 -0.0349
26973W        W43107   7.369   3.286   3.990  0.2408  0.2172  0.2972
26974W        W43108   9.883  17.941  15.549  0.1923  0.2536 -0.1182
26975W        W43109   0.441   6.537  10.501 -0.3293 -0.2107  0.0448
26976W        W43110   6.444   7.955  16.030  0.0617  0.2262 -0.2106
26977W        W43111   9.474  17.060   2.255  0.1757 -0.2034  0.0630
26978W        W43112  14.722   0.742  14.686  0.0534 -0.1349 -0.0128
26979W        W43113   3.409   9.675   0.652 -0.0708  0.0103  0.1725
26980W        W43114  14.718  11.217  12.118  0.0152  0.0005 -0.0234
26981W        W43115  11.923  18.330   6.109  0.3621 -0.2824 -0.0793
26982W        W43116  15.749   3.702   2.897  0.1111 -0.0495 -0.0972
26983W        W43117   9.031  13.708  12.142  0.0827 -0.0384  0.2782
26984W        W43118   1.756   8.998   4.500  0.2016 -0.2005  0.0866
26985W        W43119  17.424   3.692  13.833 -0.0384 -0.1542  0.2276
26986W        W43120   7.022  14.054   0.482  0.0623  0.2797 -0.1468
26987W        W43121   2.776  15.990  11.283  0.3178 -0.0086  0.1428
26988W        W43122   0.528   9.319   0.069  0.0654  0.2055 -0.0324
26989W        W43123   9.478  12.722  14.325  0.0581 -0.2306  0.1190
26990W        W43124  10.359  16.163  14.334 -0.0467  0.3376 -0.0926
26991W        W43125   1.362  16.583   1.965 -0.2851 -0.0707  0.3766
26992W        W43126  16.613   9.195  13.912 -0.1725  0.0164  0.0862
26993W        W43127  12.818   5.710   4.406 -0.2886 -0.3602 -0.0770
26994W        W43128   2.852   1.335   1.637  0.0155 -0.1370  0.1926
26995W        W43129   3.158  13.432  16.026 -0.0472  0.2063  0.0886
26996W        W43130   8.017   6.917  11.740  0.1037 -0.3099  0.1457
26997W        W43131   7.860   8.658  15.398 -0.2199  0.0569 -0.1212
26998W        W43132  10.685   9.634   5.322  0.2638 -0.2361 -0.2467
26999W        W43133  15.924  14.128   3.235 -0.1611  0.2479  0.3418
27000W        W43134   9.650   9.527  15.154  0.2396 -0.0948 -0.2229
27001W        W43135   1.599  15.604  11.182 -0.2689  0.0506 -0.3662
27002W        W43136   6.056  11.150   3.017 -0.2489  0.1655  0.0197
27003W        W43137   3.278  13.256   4.142 -0.0703  0.1073  0.3283
27004W        W43138   5.016  12.287  14.145 -0.0747  0.0301 -0.0400
27005W        W43139  16.255  16.947   9.984 -0.0280 -0.1579  0.1106
27006W        W43140  11.796  15.221  15.088  0.2265  0.0623  0.1141
27007W        W43141  15.491  11.958   3.520 -0.2525  0.1805 -0.1726
27008W        W43142  13.554  14.171  12.965 -0.0700 -0.0761 -0.2551
27009W        W43143  11.113   6.278   4.460  0.1514  0.2674 -0.0854
27010W        W43144   6.930   4.174  14.519  0.1284  0.0729 -0.0208
27011W        W43145  16.498   2.694  10.613 -0.3015 -0.0622 -0.0598
27012W        W43146   9.960   0.177  12.896 -0.0435 -0.0713 -0.1275
27013W        W43147   4.511   3.423   2.310  0.1894 -0.1450 -0.1400
27014W        W43148  12.714  12.570  12.991 -0.1170  0.0221  0.0380
27015W        W43149  14.578   5.418   2.359 -0.3200 -0.0142 -0.0686
27016W        W43150  15.165  17.147  15.856  0.0079  0.0392 -0.5664
27017W        W43151  14.530   9.109  13.886 -0.5758 -0.0165  0.0410
27018W        W43152   9.939  15.494   0.875  0.3253 -0.0332 -0.0655
27019W        W43153  17.975  13.650  12.920  0.1145 -0.1908 -0.3025
27020W        W43154  16.724   1.245  13.662  0.1149 -0.3164  0.2362
27021W        W43155   5.264  10.600   4.271  0.3091  0.2130 -0.0873
27022W        W43156   9.581   0.820   1.000 -0.1006 -0.0811  0.0312
27023W        W43157   3.870   8.274  12.436 -0.3389  0.0205 -0.1122
27024W        W43158   6.202  17.570  15.246  0.0977 -0.0877 -0.0727
27025W        W43159  13.997   5.442  14.721 -0.1026  0.0818  0.2622
27026W        W43160   8.571   6.081   2.780  0.3494  0.0076  0.2981
27027W        W43161  18.312   1.426  14.675 -0.2057  0.1046 -0.2093
27028W        W43162  16.065  12.149  11.474  0.1363 -0.1360  0.0787
27029W        W43163   7.442   8.558  15.031  0.1586 -0.0923  0.0035
27030W        W43164   5.467  11.713  11.756 -0.0032  0.1502 -0.2050
27031W        W43165  13.954   3.111   0.088 -0.1727  0.0900 -0.1345
27032W        W43166  13.602   7.704   1.967 -0.0770 -0.0233 -0.1566
27033W        W43167   3.570   6.951  11.441 -0.2428 -0.1385  0.3312
27034W        W43168  17.441   3.956   0.237  0.1435  0.2706  0.1211
27035W        W43169   1.041   8.550  11.964  0.2613  0.0886 -0.3821
27036W        W43170  12.879   0.560   1.031  0.1466  0.1881  0.3533
27037W        W43171   1.381   7.250   2.308 -0.2442 -0.4136 -0.1666
27038W        W43172   5.352  10.138  11.677  0.0179 -0.2340 -0.0090
27039W        W43173  14.048  16.102   0.919  0.2261  0.1828  0.1794
27040W        W43174  17.592   1.526  13.095  0.3318 -0.0258  0.1506
27041W        W43175   9.657   4.257  12.366 -0.0327  0.0432  0.2512
27042W        W43176  15.962   3.779  11.916 -0.1917  0.3078 -0.1703
27043W        W43177  17.194   7.669   1.324 -0.0857 -0.1419 -0.2477
27044W        W43178  10.593  12.411   0.919 -0.1138  0.0055  0.2613
27045W        W43179  16.882   2.613  13.066 -0.0345 -0.0393  0.1379
27046W        W43180  11.002   0.398  12.592  0.2914  0.1049 -0.1459
27047W        W43181   7.742  18.247  10.892 -0.0093 -0.0829  0.0935
27048W        W43182   9.273  10.551   1.338  0.0589  0.1210 -0.1564
27049W        W43183   9.269  18.086   3.701 -0.1025  0.2087  0.1358
27050W        W43184  13.724   9.444   2.195 -0.3080 -0.0395 -0.5241
27051W        W43185  12.268   1.660  11.539  0.0393  0.0965  0.0388
27052W        W43186   4.057   2.144   4.291  0.0763 -0.1692 -0.1774
27053W        W43187  17.488   1.032   0.302  0.2499 -0.0078 -0.0653
27054W        W43188   5.979  16.521   1.437  0.2455 -0.0067 -0.3317
27055W        W43189   5.663   2.247   1.832 -0.3054 -0.0960 -0.1448
27056W        W43190   3.678   6.726  11.856 -0.0507  0.0647  0.1713
27057W        W43191  13.353  10.480   0.032  0.2082  0.0021  0.2159
27058W        W43192   7.708   2.227  11.608  0.3931 -0.4290 -0.1170
27059W        W43193  12.259  13.832   0.351 -0.1932 -0.0309 -0.0509
27060W        W43194   8.124   4.130   2.727 -0.3414  0.1846  0.4499
27061W        W43195  14.242  13.795  10.874 -0.2418 -0.1479 -0.2209
27062W        W43196  13.587  14.752  15.491  0.1272 -0.3052 -0.2448
27063W        W43197  15.125   7.340   2.973 -0.1530 -0.2633 -0.0614
27064W        W43198   3.047   0.030   5.523  0.1382 -0.4808 -0.2027
27065W        W43199  13.209  12.295  15.564 -0.0762  0.0749  0.1471
27066W        W43200  16.182   0.220  15.846  0.0370  0.1359 -0.0656
27067W        W43201  14.045   0.604  13.527  0.1394 -0.2479 -0.0791
27068W        W43202  10.953  16.209   2.027  0.0887  0.2350 -0.1260
27069W        W43203   6.830  10.076  12.852 -0.1981 -0.0388  0.1183
27070W        W43204  12.561  13.081  12.952 -0.2367  0.1207 -0.1773
27071W        W43205  16.453  17.012  14.469  0.1442 -0.1519 -0.0264
27072W        W43206   5.713   6.435  11.810  0.0788  0.3008 -0.1226
27073W        W43207   3.482   1.046   4.897 -0.3113 -0.0885  0.1818
27074W        W43208   9.864  11.576  14.269  0.4064 -0.0104 -0.1752
27075W        W43209  16.777  11.093  12.296  0.3301 -0.0797  0.0981
27076W        W43210  10.397   8.388   4.441 -0.0006 -0.1120  0.0358
27077W        W43211   3.003   0.515   4.268 -0.2449  0.1729 -0.0297
27078W        W43212  16.515  15.375   4.457 -0.0608 -0.3749  0.0655
27079W        W43213   9.717   5.632  13.416 -0.1367  0.0347  0.1261
27080W        W43214  13.685   8.797   2.914 -0.4331  0.0122 -0.1723
27081W        W43215   1.958   9.886  13.154  0.0794  0.4003  0.1253
27082W        W43216   9.772   4.200   3.448 -0.2184  0.2921  0.0354
27083W        W43217  17.998   5.999   1.706  0.2111  0.1326  0.2885
27084W        W43218   2.897   2.682  12.551  0.0341 -0.2991  0.3375
27085W        W43219   1.423   5.665   0.101 -0.0629  0.1056  0.2968
27086W        W43220   5.445  13.089   3.013 -0.3100  0.1811 -0.2437
27087W        W43221  14.983   8.696   3.192 -0.0489  0.0579 -0.0437
27088W        W43222  14.139   7.751  12.279 -0.2328  0.3703  0.2135
27089W        W43223   9.119   2.918  12.925  0.0454  0.1463  0.0410
27090W        W43224   7.467   4.976  14.960  0.0137 -0.0722  0.1442
27091W        W43225  17.556   0.862   4.522  0.0021  0.5056  0.3777
27092W        W43226  10.240  10.012  13.924 -0.2391 -0.0380 -0.1194
27093W        W43227   0.219  14.441   5.592 -0.1033  0.0034 -0.0876
27094W        W43228   4.697  15.335  14.052  0.3502 -0.0197 -0.0217
27095W        W43229   4.317   9.777  12.875  0.2918 -0.0042 -0.1753
27096W        W43230   8.547   8.490   0.225 -0.0914  0.0385 -0.1373
27097W        W43231   6.894  16.177   3.299  0.0869 -0.0285 -0.2615
27098W        W43232   1.350   0.701  13.700 -0.0308 -0.3858  0.0042
27099W        W43233  10.091   1.755   4.866 -0.0469  0.0873 -0.2236
27100W        W43234  17.476   0.216   1.366 -0.4607 -0.3497 -0.0080
27101W        W43235   2.180  16.277   1.013 -0.0368 -0.0221  0.2488
27102W        W43236  17.702   0.672  12.591  0.0102 -0.1438  0.2055
27103W        W43237  13.786  14.300   3.194 -0.0417  0.3195  0.2822
27104W        W43238   5.877   4.224  11.365 -0.2529  0.1127  0.2895
27105W        W43239   9.170  16.715  15.055 -0.1179  0.0982  0.1707
27106W        W43240   6.718  13.620  13.297 -0.0876 -0.1336  0.0763
27107W        W43241   2.045   7.264   5.339  0.2879  0.3218 -0.3743
27108W        W43242   3.843   7.418   4.609 -0.1415  0.1585 -0.1745
27109W        W43243   3.980   6.588   2.531 -0.3526 -0.3052  0.2220
27110W        W43244   9.957  13.789   1.320  0.1496  0.0752 -0.1452
27111W        W43245  16.109  11.010   0.723  0.2203 -0.0821  0.0117
27112W        W43246   5.194   8.804   2.656 -0.0155 -0.2673  0.2816
27113W        W43247   5.622  15.160  10.893  0.2398 -0.0729  0.1407
27114W        W43248   1.035  13.255   4.211  0.0563 -0.1128  0.1287
27115W        W43249   2.638  16.677  12.446 -0.1370  0.0794  0.0295
27116W        W43250   3.484  14.016   9.801  0.0285 -0.0511  0.1598
27117W        W43251   1.848   9.427  12.527 -0.1755  0.0530  0.0786
27118W        W43252   4.544   1.648  12.933  0.2092 -0.0091  0.1083
27119W        W43253   7.569  14.167   0.442 -0.0770  0.0193 -0.0295
27120W        W43254  16.105  12.474  11.084  0.2227  0.2290 -0.0582
27121W        W43255   5.633   5.083   4.472 -0.0579  0.1343 -0.1146
27122W        W43256  10.844   4.355  12.841  0.2105 -0.0589 -0.2547
27123W        W43257   7.540  10.277   1.372  0.6105 -0.1546 -0.0857
27124W        W43258   0.757  18.009   1.425  0.0939 -0.2656 -0.2654
27125W        W43259  12.024   0.886  13.768  0.0259  0.2380  0.0455
27126W        W43260   6.019   5.364   1.356  0.0006 -0.0288  0.4807
27127W        W43261   5.393   1.492   0.383 -0.0920  0.0916 -0.0620
27128W        W43262   4.452   0.202   4.333  0.0614  0.4417  0.0334
27129W        W43263  12.878  10.732   4.400  0.0605  0.1031 -0.1815
27130W        W43264   6.313   6.292   0.674  0.0335 -0.1927  0.2238
27131W        W43265  17.307   1.944   4.247 -0.0580  0.0202 -0.1738
27132W        W43266   1.411   8.363  12.219 -0.0172  0.3959  0.2282
27133W        W43267   1.961   1.113   0.075  0.0352 -0.1061 -0.1378
27134W        W43268   6.957   4.293   2.385  0.2948  0.1574 -0.0948
27135W        W43269  10.991  15.999  13.059  0.2461 -0.2167  0.1488
27136W        W43270   0.459   4.463  15.325 -0.2790  0.2419  0.0757
27137W        W43271   2.691   0.066  12.101  0.1533  0.2403  0.0961
27138W        W43272  17.673   9.956  13.770 -0.0621 -0.0221 -0.1371
27139W        W43273   5.466  18.041   0.878 -0.3405 -0.0613  0.2565
27140W        W43274   1.981  11.290  11.346  0.3304 -0.0998 -0.0483
27141W        W43275   5.730   4.524   1.143  0.1144  0.0227 -0.0393
27142W        W43276   9.456  15.112   1.006 -0.1582  0.0073  0.1484
27143W        W43277  16.515  11.141  12.721 -0.1691  0.0046  0.2511
27144W        W43278  17.996  16.678   0.403  0.0182 -0.0865  0.0231
27145W        W43279   5.521  17.864   5.810  0.1843  0.0742 -0.0797
27146W        W43280  16.160   8.113   5.635  0.2443  0.2877  0.2312
27147W        W43281   6.067  10.494  10.847  0.3775 -0.0944  0.1465
27148W        W43282  15.112   5.859  12.524 -0.2548  0.1371  0.4144
27149W        W43283  10.153   9.823   4.419  0.2430 -0.3002 -0.1230
27150W        W43284  11.091  10.943  15.291 -0.0745 -0.0913  0.1060
27151W        W43285  17.173   9.838   4.340  0.0267  0.0438 -0.1159
27152W        W43286   1.377   6.465   3.515 -0.0243 -0.2354  0.1077
27153W        W43287  17.139   3.307   5.633 -0.0568 -0.2165 -0.0104
27154W        W43288  18.420   4.809   3.760 -0.0101  0.2057  0.2639
27155W        W43289  13.850   4.243   2.177  0.0880 -0.0451  0.0530
27156W        W43290   4.132   5.037  15.133  0.0174 -0.2215 -0.1230
27157W        W43291  17.262   9.369  10.148 -0.3150 -0.0115 -0.0290
27158W        W43292   9.475   1.980  11.598 -0.0240  0.2728  0.1826
27159W        W43293   1.987   0.054   3.123  0.2133 -0.0467  0.0115
27160W        W43294  18.492  13.768  11.827  0.1612 -0.5215 -0.2830
27161W        W43295   9.947   1.083   0.304  0.0664  0.0632 -0.0947
27162W        W43296   5.379  17.453   4.676  0.1191  0.1934 -0.0124
27163W        W43297   5.238   5.868  11.157 -0.1471 -0.0157  0.1901
27164W        W43298   6.815   0.177  15.735 -0.0197  0.0741 -0.4679
27165W        W43299  14.407  14.792   2.932  0.0076  0.0946 -0.0274
27166W        W43300   2.546   1.976   2.339 -0.1299  0.0893  0.2903
27167W        W43301   6.511   5.558  13.928 -0.1889  0.2477  0.1913
27168W        W43302   8.127   8.620  11.652  0.2951 -0.0606  0.3448
27169W        W43303  12.247   6.034   3.445  0.3325 -0.0896  0.2335
27170W        W43304  12.401   0.558  15.613 -0.1311 -0.1857 -0.0788
27171W        W43305   5.735  13.979   1.798  0.0877 -0.0361  0.0700
27172W        W43306   9.804   5.967   3.572 -0.0667 -0.5269 -0.3877
27173W        W43307  10.187   3.079  14.768 -0.2065  0.0898 -0.0347
27174W        W43308  14.460   5.211  13.191  0.0506 -0.1702  0.2000
27175W        W43309   9.823   9.967   2.718  0.0027 -0.0620  0.0302
27176W        W43310   1.157   1.557  11.993  0.3051 -0.3212  0.0117
27177W        W43311  17.636   3.499  11.317 -0.1505 -0.2147 -0.1411
27178W        W43312   6.179   2.889   3.025 -0.0369 -0.1540 -0.0064
27179W        W43313   7.538  14.240   3.440  0.0942  0.2713 -0.0548
27180W        W43314   9.187  10.882  10.489 -0.0397  0.0780 -0.1718
27181W        W43315  11.091  11.979   0.720 -0.0820  0.0909 -0.0026
27182W        W43316  11.344  14.753   5.712 -0.2507  0.5107 -0.1712
27183W        W43317  18.103  16.920   1.786  0.2207  0.1602  0.2268
27184W        W43318   5.651   0.628  14.886  0.3471 -0.1492 -0.0180
27185W        W43319   6.709  12.896   5.682  0.0867  0.0893  0.0716
27186W        W43320  14.419  10.200   5.563 -0.4368 -0.0635 -0.1353
27187W        W43321   7.039   0.962  12.313 -0.0655 -0.0072 -0.2149
27188W        W43322  16.630   9.178   3.088  0.0660  0.0488 -0.1623
27189W        W43323   5.158   9.258  12.974  0.0884  0.2043 -0.1953
27190W        W43324  17.535  11.738  14.505 -0.1028 -0.2535  0.0335
27191W        W43325   9.645  16.538  13.862 -0.1508  0.3168  0.1914
27192W        W43326  10.716   5.623   5.981  0.1086 -0.3968  0.0894
27193W        W43327   6.870   2.203   4.235 -0.2039 -0.1977 -0.1479
27194W        W43328  10.389   0.251   3.619  0.0252  0.3213  0.2483
27195W        W43329  17.605  14.856   2.067  0.2524  0.1511 -0.0818
27196W        W43330  12.539   7.464  11.708  0.1449  0.0997  0.1272
27197W        W43331  11.959   5.315   0.572 -0.1821  0.1270 -0.1579
27198W        W43332   9.304  11.569   0.425  0.2769 -0.1580 -0.1906
27199W        W43333  15.581   7.451   0.327  0.0321  0.3238 -0.0282
27200W        W43334  18.022   6.755   0.857 -0.1308  0.3221  0.0351
27201W        W43335  10.351   5.027   2.378 -0.1132 -0.0745  0.1883
27202W        W43336  12.305  16.439  11.498  0.0858 -0.3841  0.2131
27203W        W43337  16.328   2.609  12.731 -0.0436  0.3836  0.3779
27204W        W43338  14.206  15.183  12.934 -0.0741  0.2033 -0.1957
27205W        W43339  11.112  10.462   5.765  0.2226  0.1557 -0.5368
27206W        W43340   9.939  15.257   0.336 -0.2909 -0.1393  0.0367
27207W        W43341  16.736  17.092   3.155 -0.1643  0.4044 -0.2748
27208W        W43342   6.080   3.488  13.151 -0.0543 -0.0934  0.0584
27209W        W43343   2.223  17.754  15.966 -0.0489 -0.3367 -0.0919
27210W        W43344  10.428  15.787  14.055  0.3495 -0.1387  0.3437
27211W        W43345   5.208  10.165  13.265 -0.2230 -0.0325 -0.0356
27212W        W43346  14.117   5.584  15.956  0.1102 -0.0398  0.0274
27213W        W43347  11.086   8.498  11.054  0.1417 -0.3565 -0.1173
27214W        W43348  12.934  15.138  14.557 -0.1004 -0.3375 -0.0912
27215W        W43349   7.730   3.865   0.333  0.0019 -0.2229 -0.1436
27216W        W43350  13.215  16.411   3.758 -0.3133 -0.4133 -0.0070
27217W        W43351   1.274   6.010   2.781 -0.1707 -0.2470  0.1619
27218W        W43352  16.089   1.497   2.665 -0.0791  0.3439  0.0249
27219W        W43353  10.794   7.421  11.548  0.1271 -0.2631  0.0119
27220W        W43354  16.438   4.049  14.888  0.2812  0.1984 -0.0918
27221W        W43355  16.955   2.681  11.981  0.0601 -0.0007 -0.0047
27222W        W43356   2.339  16.256  13.454 -0.1465  0.1690  0.0860
27223W        W43357   2.218   2.367   4.928 -0.1468  0.1372  0.0893
27224W        W43358  15.053   7.260   0.344  0.0442 -0.1316  0.3010
27225W        W43359   2.280   8.684  14.548  0.1700 -0.2627  0.0693
27226W        W43360   9.628   4.171   0.758  0.0418 -0.1338 -0.2830
27227W        W43361   8.688   5.485  14.251 -0.2161  0.2270 -0.1026
27228W        W43362  14.847   7.145  15.379  0.2060 -0.0102  0.0169
27229W        W43363   6.140  17.098   1.519  0.1273 -0.2607 -0.0698
27230W        W43364  13.763   8.931  11.805  0.0146 -0.0865  0.1438
27231W        W43365  10.059   9.336   5.882 -0.0606  0.2631  0.0316
27232W        W43366   7.106  11.361  12.855  0.1379 -0.0712 -0.1024
27233W        W43367  12.561   4.733  13.575  0.0314  0.1759 -0.0024
27234W        W43368   0.615   8.930  15.034  0.1796  0.0874 -0.2125
27235W        W43369   2.014  13.245   2.950  0.1449 -0.4784  0.1343
27236W        W43370  12.322  16.028  15.671  0.0822 -0.3933 -0.0036
27237W        W43371   5.219  11.999   2.446 -0.0846  0.1279 -0.0135
27238W        W43372   3.387   8.613  11.861 -0.0312  0.0934  0.2723
27239W        W43373   9.717   3.295   0.767  0.2853 -0.1079 -0.2658
27240W        W43374   4.663  16.459  14.263  0.2460 -0.1403  0.0467
27241W        W43375   7.469  15.407   0.022 -0.1612  0.0141  0.4115
27242W        W43376  17.929   2.654   1.313 -0.1453  0.1899 -0.2796
27243W        W43377   6.074  14.753   2.194  0.0920  0.2573 -0.4377
27244W        W43378  16.003   6.270  11.087  0.1220 -0.4653 -0.4028
27245W        W43379   0.192  13.403   0.230 -0.1335  0.0601  0.1260
27246W        W43380  13.549   1.950  11.687 -0.3021 -0.0264 -0.0928
27247W        W43381   1.375   3.908   2.027 -0.0401 -0.1562  0.3156
27248W        W43382  10.039  16.064   1.603 -0.0705  0.0940 -0.1329
27249W        W43383  16.770   0.319  13.379 -0.3187 -0.1042 -0.2594
27250W        W43384   7.014   8.271   4.633  0.1823 -0.5584 -0.0993
27251W        W43385   4.175  13.695  13.392  0.0248 -0.0256  0.1022
27252W        W43386  16.725   4.601   4.817 -0.3503  0.0770 -0.1644
27253W        W43387   1.352   8.150  12.746  0.0363  0.1644 -0.1415
27254W        W43388   2.443   4.186  14.581  0.3467  0.0390 -0.1173
27255W        W43389  17.083  16.689  12.057 -0.2415 -0.0437 -0.2633
27256W        W43390   5.436  12.663   1.101 -0.1589 -0.1767  0.4406
27257W        W43391   3.261   2.211   4.930 -0.2522  0.0445  0.1909
27258W        W43392  11.707   9.188   2.733  0.1847  0.3438  0.0317
27259W        W43393   2.486  14.336  11.635  0.0532 -0.0107  0.3127
27260W        W43394   9.299   4.191   3.873 -0.0136  0.2648 -0.0667
27261W        W43395  12.695   8.435  13.389 -0.0597  0.0594 -0.1146
27262W        W43396  18.228   9.992   3.411 -0.3023  0.0867  0.1171
27263W        W43397   6.939   8.964  15.508  0.1701  0.1567 -0.1480
27264W        W43398   6.209  15.623  12.225 -0.1138 -0.0769  0.0510
27265W        W43399   1.435  10.607   4.286  0.2190  0.0203 -0.1927
27266W        W43400  11.763  18.475  14.716 -0.0553  0.0146  0.1924
27267W        W43401   4.915  10.362  11.782  0.1359  0.1054  0.1285
27268W        W43402  14.456  13.517  13.361 -0.2651  0.3955  0.1186
27269W        W43403   9.349  11.178  12.261 -0.0583  0.0788  0.2284
27270W        W43404  16.352   5.984   1.267  0.3132 -0.1013 -0.1105
27271W        W43405   4.364   9.158   2.091  0.1875 -0.1283 -0.1819
27272W        W43406  18.197   4.457  10.497  0.1197  0.2077 -0.1861
27273W        W43407  12.702  10.791   3.851  0.0501 -0.1123 -0.0207
27274W        W43408   2.719  16.174   2.346 -0.0185 -0.0254  0.2375
27275W        W43409  10.761  17.819   2.057  0.3025 -0.0243 -0.1960
27276W        W43410   1.613   4.648  12.861 -0.3711 -0.3653 -0.1545
27277W        W43411  14.274   9.991   3.890  0.0950 -0.0017  0.1997
27278W        W43412  12.298   9.208   5.941 -0.1374  0.1508  0.1731
27279W        W43413   0.624  11.121  13.533  0.0465  0.4173  0.2397
27280W        W43414   5.933  15.352   4.160 -0.0313  0.0330  0.0368
27281W        W43415   7.232   9.876  11.721 -0.0008  0.1662 -0.2777
27282W        W43416  14.881  15.591  13.546 -0.0758  0.2127 -0.3198
27283W        W43417   5.657  15.078  14.496 -0.1107 -0.0842  0.0758
27284W        W43418  10.825  10.329   0.526  0.1123  0.1756  0.0976
27285W        W43419   9.893  14.121   2.049 -0.0732  0.0030  0.2147
27286W        W43420  11.064  12.485   3.027  0.1280  0.0066 -0.2851
27287W        W43421  15.220  14.370  12.447  0.3636 -0.0301  0.0563
27288W        W43422   4.597   4.851  15.121 -0.0592 -0.2542  0.2360
27289W        W43423  12.768   1.887   2.554  0.0193 -0.0507  0.1432
27290W        W43424   1.155  12.851  11.242 -0.0196  0.0361  0.1479
27291W        W43425  13.174   0.251  14.125  0.0650 -0.3184  0.0182
27292W        W43426   8.613   7.921  12.198 -0.1506 -0.1421  0.2820
27293W        W43427   9.567   7.292   5.279 -0.0523  0.0889  0.0490
27294W        W43428  16.935   8.633   3.757 -0.0746  0.1287 -0.2438
27295W        W43429  17.896  12.540  11.972  0.0118  0.0098 -0.0898
27296W        W43430  10.775   8.268   5.962 -0.0550  0.3871  0.1089
27297W        W43431   3.055  14.930   2.773  0.2527  0.0029  0.0742
27298W        W43432  12.170   2.562   0.534 -0.4251 -0.1451  0.0052
27299W        W43433   5.107   9.793   2.362  0.0939 -0.1118 -0.3253
27300W        W43434   3.652   9.433  12.481  0.0164  0.1394 -0.1027
27301W        W43435  18.014   1.062   3.250  0.0880  0.1248  0.0349
27302W        W43436   4.933  16.228  10.248 -0.0039  0.0885  0.2621
27303W        W43437   6.832   1.594   2.291 -0.2997  0.0633  0.1049
27304W        W43438   8.668   1.275   5.256 -0.2173  0.1489 -0.4376
27305W        W43439   6.416   9.794  13.252  0.4750  0.1326 -0.3968
27306W        W43440   0.270   6.351  15.150 -0.2192  0.1352  0.0545
27307W        W43441  17.878   5.436  13.961 -0.0658 -0.1127 -0.1199
27308W        W43442   9.713   8.825   1.041  0.0924 -0.0903 -0.2790
27309W        W43443   5.000   0.319   2.784 -0.1957  0.2534  0.2217
27310W        W43444  14.061  18.096  12.235 -0.1113 -0.6735 -0.2696
27311W        W43445   0.113   6.358  12.201 -0.2063 -0.2115  0.1530
27312W        W43446   3.226   6.459  13.507 -0.1529 -0.1727  0.5602
27313W        W43447   7.214  11.452  10.426 -0.2607 -0.1232  0.0001
27314W        W43448   0.662  12.965   0.071  0.0921  0.1519 -0.1588
27315W        W43449  18.337   7.638   0.310 -0.1713 -0.1285  0.1397
27316W        W43450  13.107  16.046   0.761 -0.2623  0.3849 -0.0490
27317W        W43451  16.886   4.470   2.146  0.1304  0.0250  0.1369
27318W        W43452   3.045  13.765   4.330 -0.2942  0.1426 -0.0631
27319W        W43453  14.612   2.742   4.497 -0.1934  0.0420 -0.1770
27320W        W43454  10.559   9.957   0.246 -0.0651  0.0401 -0.2244
27321W        W43455   5.213   3.925  13.605  0.2359 -0.0247 -0.0179
27322W        W43456   5.374  13.737   1.282  0.0763  0.1004  0.0951
27323W        W43457   0.588   9.274   2.463 -0.0896 -0.0945  0.1813
27324W        W43458   0.843  18.335   4.037 -0.1898  0.0344  0.0968
27325W        W43459   7.909   8.568   3.486 -0.0374 -0.1176 -0.0811
27326W        W43460   2.291  13.626   0.999  0.0010 -0.0036 -0.2217
27327W        W43461  11.523   9.252  12.261  0.2575 -0.1990  0.0820
27328W        W43462  15.263   5.792  11.584  0.3171  0.2415 -0.2249
27329W        W43463  13.281   7.356  13.678  0.1302  0.1052  0.1087
27330W        W43464  15.177  17.461  14.670 -0.0625  0.0785  0.3901
27331W        W43465   5.417  16.439  14.738  0.3748 -0.2158 -0.1552
27332W        W43466  16.110  11.868  12.349  0.1292  0.0195 -0.0066
27333W        W43467  15.914   5.829   0.201 -0.1318  0.0437 -0.0265
27334W        W43468   4.841   6.893   3.963 -0.4522  0.1473  0.2526
27335W        W43469   0.429   6.281   1.319  0.1207  0.1068 -0.0534
27336W        W43470  17.019   9.761  15.914 -0.0035  0.1942  0.3796
27337W        W43471  10.884   4.277   1.933 -0.3492 -0.2757 -0.2765
27338W        W43472  11.546   7.560   4.786 -0.1794 -0.0869  0.0891
27339W        W43473  17.006  10.461  11.247 -0.0512  0.0826  0.4197
27340W        W43474   7.700   5.280  14.253 -0.0363 -0.3748 -0.2882
27341W        W43475  10.939   0.601  14.916  0.0408  0.2285  0.2800
27342W        W43476   1.034   9.935  10.436  0.0287  0.1041  0.2563
27343W        W43477  17.409  14.608   0.860 -0.1337 -0.0961 -0.1625
27344W        W43478   9.453   6.503   5.284  0.2046  0.2528 -0.0176
27345W        W43479  17.267   5.607  10.595  0.0317 -0.2033  0.0695
27346W        W43480  16.673   3.614  10.162  0.1745 -0.2549 -0.4317
27347W        W43481   4.376  12.857   4.225 -0.1720 -0.1785  0.0343
27348W        W43482   3.096   6.603  14.433  0.1017  0.0609  0.0072
27349W        W43483  10.559  12.638  13.491  0.0812  0.2315  0.1549
27350W        W43484  15.361  12.994  13.374 -0.0177 -0.1399 -0.2844
27351W        W43485   3.357   3.092  10.217  0.0166  0.0999 -0.1337
27352W        W43486   5.282  10.110  14.316 -0.0108  0.1416 -0.2907
27353W        W43487   4.768   3.538   5.058 -0.1880 -0.1417 -0.0797
27354W        W43488   6.837  17.512   0.270  0.1875  0.0115  0.1201
27355W        W43489  11.504   7.989  15.031 -0.3463  0.1008 -0.4246
27356W        W43490   6.140   5.323  14.156 -0.4667 -0.3461 -0.4453
27357W        W43491   5.056   5.168   1.640 -0.1809 -0.0301  0.2785
27358W        W43492   3.048   8.477   0.177 -0.0444 -0.0250  0.3216
27359W        W43493   9.720  17.988   2.107 -0.2060 -0.1304  0.1070
27360W        W43494  10.046  11.902   2.464 -0.0591  0.0737 -0.0417
27361W        W43495   4.140  10.554  14.098 -0.1823 -0.2929 -0.2435
27362W        W43496   7.489   5.556   3.722 -0.1523 -0.2126  0.0106
27363W        W43497   1.346   2.929   1.681 -0.2589  0.1951 -0.0095
27364W        W43498  16.460  17.251  12.550 -0.0100 -0.0742 -0.0636
27365W        W43499  13.016  18.009  13.135 -0.0168  0.2746 -0.1756
27366W        W43500  16.400  13.700   3.099  0.2534 -0.0069  0.1887
27367W        W43501  11.218   9.807   2.531  0.0878  0.0197 -0.1092
27368W        W43502  14.845  17.404   2.537 -0.1914 -0.0929 -0.0538
27369W        W43503   0.083   7.987   3.765  0.2233 -0.3158 -0.1003
27370W        W43504  17.770   9.779  14.742  0.1828 -0.0212 -0.0162
27371W        W43505   6.603  12.090  12.563  0.0937  0.1249 -0.0532
27372W        W43506   1.263  16.150  14.535 -0.0321  0.2556  0.4564
27373W        W43507  14.842  13.570   1.086 -0.0840 -0.1521 -0.0024
27374W        W43508   2.970  11.593   2.697  0.0724  0.1571  0.1984
27375W        W43509   6.888  13.552   3.352  0.0331 -0.0500  0.2706
27376W        W43510  15.052  16.439  13.976 -0.0554  0.0145  0.3524
27377W        W43511  12.333  12.220  15.649  0.0022  0.1604  0.0404
27378W        W43512   9.057   2.851  14.368  0.0571  0.0088 -0.2451
27379W        W43513  14.568   0.731   0.410 -0.0159  0.2978  0.1030
27380W        W43514  11.713  14.689  13.547  0.0811  0.2892 -0.3036
27381W        W43515  14.897   9.975   5.345 -0.0135  0.0970  0.0366
27382W        W43516  13.720  12.517  13.887  0.0966 -0.0450  0.0769
27383W        W43517   9.604   6.751  12.408  0.1778 -0.1876 -0.1208
27384W        W43518   2.503   4.422   2.699  0.1541 -0.0663 -0.2055
27385W        W43519   0.278   8.136  10.927 -0.1698  0.1149 -0.0869
27386W        W43520   5.388  17.305   1.956 -0.0070 -0.2960  0.0843
27387W        W43521   5.292   3.086  12.203  0.0530 -0.0968  0.0210
27388W        W43522   2.995   7.904  12.514 -0.0608 -0.0182 -0.1029
27389W        W43523   4.570   6.815   4.427 -0.2299 -0.3266 -0.0300
27390W        W43524  11.873  12.228   2.490  0.0481 -0.2292  0.1031
27391W        W43525   8.724  18.482  11.677  0.0088 -0.1387 -0.1125
27392W        W43526   4.228   5.763   0.134  0.0887 -0.4386  0.3507
27393W        W43527  15.738   6.817   4.971  0.1030 -0.0396  0.0842
27394W        W43528   2.522   7.775  12.423 -0.2281 -0.0774 -0.1029
27395W        W43529   0.350   4.635   2.885  0.0758 -0.1037 -0.2907
27396W        W43530   9.830   3.415  11.233 -0.0411  0.0866  0.0060
27397W        W43531   3.555  11.770   0.054  0.1660 -0.0918  0.1135
27398W        W43532   7.407  11.608   1.667  0.0785 -0.1158  0.1019
27399W        W43533   1.531   7.143  12.976  0.1016  0.2748 -0.0459
27400W        W43534   9.355   5.808   0.571  0.0449  0.0955 -0.0995
27401W        W43535  13.532   5.450  14.413  0.0835 -0.1938 -0.1514
27402W        W43536   9.061   5.719   5.867 -0.3024  0.0283 -0.0679
27403W        W43537   6.553  10.321  15.087 -0.0076  0.0077  0.0378
27404W        W43538   3.921   0.221  14.629 -0.2116 -0.2456 -0.2433
27405W        W43539   5.418   2.850  14.948  0.2626 -0.0450 -0.2034
27406W        W43540  15.028  15.187   1.681 -0.1959  0.4313  0.1567
27407W        W43541   2.594   3.077  12.610  0.0193  0.0596 -0.3007
27408W        W43542  14.560   7.331  11.832  0.0497 -0.0632 -0.0018
27409W        W43543   8.362  15.814   3.964  0.0366  0.0200  0.0315
27410W        W43544  14.140   3.640   1.594  0.0542  0.0106 -0.1855
27411W        W43545  14.189   1.389   5.460  0.3819 -0.2258  0.1162
27412W        W43546   9.518  10.401  13.475 -0.2314 -0.0261 -0.2485
27413W        W43547  16.832   4.120  11.395  0.1073  0.0895 -0.0053
27414W        W43548  16.308   5.946  12.501  0.0453  0.0576  0.1315
27415W        W43549   7.471  15.402   1.790  0.3210  0.2952  0.3793
27416W        W43550   5.001   6.125  15.821  0.1249  0.3270 -0.1304
27417W        W43551   1.537   3.656   3.198 -0.0857 -0.0626  0.1109
27418W        W43552   3.751  17.646  12.504  0.1664  0.1323  0.4609
27419W        W43553   7.230   3.927  12.533  0.0328 -0.0183  0.0521
27420W        W43554   4.343   3.911  10.140  0.3255  0.2275 -0.0734
27421W        W43555   7.853   1.163  11.438 -0.0801  0.3223  0.1716
27422W        W43556   2.625  17.461   5.148  0.1615  0.1991 -0.1013
27423W        W43557   6.437   8.170   2.276 -0.1625 -0.0449 -0.2782
27424W        W43558   6.235  14.953   3.353 -0.0455 -0.2619 -0.2889
27425W        W43559  17.449   4.099  13.568 -0.2252  0.0689 -0.2055
27426W        W43560   6.525  12.659  12.405 -0.0677  0.0450 -0.3980
27427W        W43561   3.500  10.318  12.943  0.1598  0.1794 -0.2080
27428W        W43562  17.446  14.264   1.271  0.0653  0.0071  0.3458
27429W        W43563   0.015   1.604   1.518  0.2768  0.2157  0.2571
27430W        W43564   3.674   6.930   2.237 -0.1416 -0.0745 -0.0384
27431W        W43565  16.903  18.248  14.701  0.0242 -0.1278  0.0714
27432W        W43566   0.043   3.261   1.687  0.1534 -0.0090  0.0083
27433W        W43567   5.787   7.867  12.706 -0.0130 -0.0629  0.0828
27434W        W43568  11.304  14.580  15.660  0.2574  0.2180 -0.3292
27435W        W43569  10.425  15.742   1.624  0.0498 -0.0909 -0.1040
27436W        W43570   4.906  15.389  13.212 -0.0243 -0.1848 -0.2149
27437W        W43571   6.962  16.928   0.150 -0.1132  0.0166  0.0529
27438W        W43572   2.955   4.121   4.346  0.0453  0.0307 -0.0651
27439W        W43573   7.697  17.374   0.088 -0.1447  0.0354 -0.0945
27440W        W43574  17.689  13.238  12.584  0.2736  0.0104 -0.0677
27441W        W43575  12.031   4.176   4.109 -0.0330  0.2755 -0.0806
27442W        W43576  13.699  17.343   5.621  0.3224 -0.2464 -0.3405
27443W        W43577   9.094   1.743   0.348 -0.3168 -0.1808 -0.1865
27444W        W43578  18.318  10.442  14.288 -0.1455 -0.0990 -0.2927
27445W        W43579  14.469   3.665  11.380 -0.2035 -0.4128 -0.0787
27446W        W43580  18.077  16.992   4.726  0.1350  0.1966 -0.2031
27447W        W43581  11.635   7.756   2.808  0.0585 -0.2709  0.0805
27448W        W43582  16.258   6.023  15.358 -0.3552  0.1319 -0.0546
27449W        W43583  15.762   8.816  15.533  0.1644 -0.0466 -0.0338
27450W        W43584  15.108   2.936  13.053  0.3719  0.0986  0.0051
27451W        W43585   0.229  11.556   0.205 -0.5001 -0.0387 -0.2566
27452W        W43586   4.898  14.057  15.405  0.0905 -0.0297  0.0558
27453W        W43587  13.682   7.432  10.861 -0.0852 -0.1923  0.0730
27454W        W43588   9.518   4.364   4.323  0.1283 -0.0583  0.0073
27455W        W43589  13.935  12.808  14.203 -0.0740  0.1212 -0.1117
27456W        W43590  15.397  11.806   2.472 -0.0076 -0.2657 -0.2908
27457W        W43591   5.389  16.625   3.122  0.2055  0.2014 -0.0585
27458W        W43592  12.979   6.342  13.453  0.1722 -0.0582 -0.0350
27459W        W43593   3.074   9.962   2.014  0.0282 -0.0279  0.0054
27460W        W43594   1.686  12.359   0.111  0.0308  0.1637 -0.1249
27461W        W43595   0.573   6.737   4.297 -0.1294  0.2985 -0.3191
27462W        W43596  13.390  12.436   4.731  0.0539 -0.5975  0.1617
27463W        W43597  10.710   4.451   4.394  0.1931  0.1056 -0.0599
27464W        W43598   3.272  15.407   2.748  0.3965  0.1697 -0.0839
27465W        W43599   1.091  13.683  13.946  0.0680  0.0829 -0.1226
27466W        W43600  13.660   6.625  13.749 -0.0255 -0.2594 -0.1276
27467W        W43601   8.353   5.314  15.573  0.0148 -0.0576 -0.0966
27468W        W43602  15.472  17.809  12.635  0.0488  0.2027 -0.0414
27469W        W43603   8.497  17.170   1.720  0.1371 -0.3505  0.5488
27470W        W43604  15.507   3.717  13.348  0.0163 -0.1505  0.1793
27471W        W43605   5.958   7.439   5.435  0.0433  0.3683 -0.3045
27472W        W43606  10.113   0.500   4.556 -0.2916  0.0589 -0.1450
27473W        W43607   3.855  13.277   1.921  0.3766 -0.0561  0.0874
27474W        W43608   3.306   2.759  15.486  0.3073  0.2338 -0.5766
27475W        W43609   6.618   1.973   5.013 -0.0678  0.1306  0.0666
27476W        W43610  14.262   1.454  12.115  0.0537 -0.0063  0.2237
27477W        W43611   1.081   7.208  12.721  0.0763  0.2987 -0.1123
27478W        W43612  18.290   2.742   0.448  0.0071  0.1386 -0.1016
27479W        W43613  11.394  14.219  15.302  0.1840  0.2837 -0.0939
27480W        W43614   9.878  10.552   4.862  0.1943  0.1216  0.1257
27481W        W43615  18.095   2.997   4.603 -0.0226  0.0831  0.0977
27482W        W43616   1.377  15.383   1.668  0.3126  0.1188  0.0648
27483W        W43617  15.966  15.709  14.111 -0.0785  0.2878 -0.1119
27484W        W43618  12.683   7.118  13.091 -0.1146 -0.0488 -0.2966
27485W        W43619   0.470   9.974   1.299  0.1184  0.1668 -0.2640
27486W        W43620   8.253  13.927   2.425  0.1739 -0.1701 -0.0635
27487W        W43621   5.880   0.961   4.186 -0.2783  0.2424 -0.3300
27488W        W43622  13.858   1.708   1.018 -0.2219  0.1360 -0.0368
27489W        W43623   0.799  17.620  13.563  0.3237  0.0271 -0.0943
27490W        W43624  14.727  16.040   0.416  0.1710  0.1818  0.0498
27491W        W43625   3.368   7.556   3.925  0.2995  0.4602  0.0479
27492W        W43626   6.934   8.079  16.029 -0.1660 -0.2462  0.0666
27493W        W43627   2.268  16.979   2.404  0.3148 -0.0704 -0.1793
27494W        W43628   8.367   8.842  12.211  0.3272 -0.1247 -0.1145
27495W        W43629  15.000  11.542  12.333 -0.0258  0.0716  0.0060
27496W        W43630   1.080  17.580  11.715 -0.0253 -0.0265  0.1401
27497W        W43631  17.171   7.742  15.934  0.0427 -0.1596  0.0243
27498W        W43632  11.872  11.497   0.237 -0.2816  0.1995  0.0607
27499W        W43633  10.226   0.036  15.243 -0.2211 -0.3779 -0.1860
27500W        W43634   5.063  11.815   0.183  0.0047 -0.0737  0.1287
27501W        W43635  11.808   1.970   4.958  0.0248 -0.1012  0.0177
27502W        W43636  12.414  11.314   0.049  0.0001 -0.2290  0.1806
27503W        W43637   0.171   0.307  15.475 -0.0626 -0.3090 -0.2442
27504W        W43638  14.058   7.471   1.839  0.0077 -0.2044  0.1273
27505W        W43639   9.544   3.335   3.530 -0.1131  0.0699 -0.0144
27506W        W43640  15.164   6.732   3.435  0.1440 -0.4630 -0.1253
27507W        W43641   2.389   1.556  11.490  0.0909  0.2138 -0.0799
27508W        W43642  15.437   1.366   0.575 -0.1970  0.0916  0.0109
27509W        W43643   7.252   5.467   2.149  0.0996 -0.1415  0.2543
27510W        W43644  13.997  10.312  12.384  0.2533 -0.0700 -0.1753
27511W        W43645   8.915  13.803  12.958  0.2866 -0.4453 -0.0821
27512W        W43646   7.825  10.760  12.529 -0.2492 -0.0045 -0.3317
27513W        W43647  17.355   7.267  13.458  0.0521 -0.1070  0.0030
27514W        W43648   5.400  18.048   3.125 -0.0052  0.0571 -0.2451
27515W        W43649   2.009   6.401   0.818  0.3354 -0.0871  0.1634
27516W        W43650  10.092   4.373  15.211 -0.0089 -0.1107  0.0425
27517W        W43651  14.792  16.935  15.523  0.0597  0.0435  0.4210
27518W        W43652  17.475  10.849  14.060  0.2149 -0.1496 -0.1132
27519W        W43653  17.318   7.084  14.662 -0.2123 -0.0050 -0.3726
27520W        W43654  14.633   5.087   3.704 -0.0333  0.1729 -0.0530
27521W        W43655   5.732  10.838  11.681  0.1514  0.0920 -0.0623
27522W        W43656   1.462  13.742  15.644 -0.3228  0.0529 -0.2528
27523W        W43657   3.539  12.338   3.144  0.0367  0.1810  0.2152
27524W        W43658  12.650   5.811  15.932 -0.1149  0.2255 -0.1287
27525W        W43659   8.219  16.073  14.135  0.1055 -0.0288  0.2670
27526W        W43660  17.496   2.982   5.240 -0.0989 -0.1813 -0.0537
27527W        W43661   2.881  11.209  11.339 -0.1423 -0.0531  0.2046
27528W        W43662   0.016  10.174  11.882  0.0486  0.0382  0.0251
27529W        W43663   2.021  10.504  14.537 -0.2047  0.0729  0.0890
27530W        W43664  16.965   4.762  15.004  0.1179 -0.1116 -0.0559
27531W        W43665   1.340  14.140  12.143  0.0589 -0.2457  0.2395
27532W        W43666   1.857   7.754   1.205  0.1935  0.3896 -0.1701
27533W        W43667  13.334   9.871   0.343 -0.2206 -0.1666 -0.2405
27534W        W43668  16.777   2.577  12.558 -0.2058  0.0356 -0.0594
27535W        W43669  16.795   4.074  14.467 -0.0850  0.3873 -0.1915
27536W        W43670   6.697   0.288   5.391  0.0862 -0.2206  0.0293
27537W        W43671   4.367  13.631   0.624 -0.0094 -0.0003  0.2779
27538W        W43672   2.384   8.227  14.740  0.0855  0.1378 -0.2096
27539W        W43673  13.720   4.572  15.726  0.2549 -0.2109  0.1423
27540W        W43674   0.075   4.199  13.282 -0.1367  0.2561 -0.3966
27541W        W43675   0.775  17.887  14.469 -0.0285  0.2566 -0.2167
27542W        W43676   8.728  15.776  12.799  0.0844  0.0473 -0.2526
27543W        W43677  10.784   1.205   4.452 -0.0427  0.3779 -0.3889
27544W        W43678   0.950   5.967  13.250  0.4438  0.2723 -0.1114
27545W        W43679   0.368  15.937   4.309  0.1661 -0.0410  0.3722
27546W        W43680  13.451   2.357  14.669 -0.0567  0.1548  0.1519
27547W        W43681  13.960  10.518  11.933 -0.0936 -0.0366 -0.0053
27548W        W43682   8.168   8.234   3.803 -0.0303 -0.0230  0.0269
27549W        W43683  10.131  12.246   2.069 -0.3362  0.1231  0.1707
27550W        W43684  17.060  16.454   0.381 -0.2515 -0.4074 -0.1191
27551W        W43685  16.424   0.895   1.970 -0.1509  0.0872 -0.2440
27552W        W43686   8.703   8.166   2.068  0.0356 -0.0880 -0.0815
27553W        W43687   5.387  16.007  13.867 -0.0709  0.3377 -0.0752
27554W        W43688   0.229  18.004  10.943  0.0147  0.0976 -0.1940
27555W        W43689   6.771  10.491  12.021 -0.0054  0.1893 -0.2786
27556W        W43690   1.870  11.083  13.885  0.2052 -0.0085  0.0053
27557W        W43691  16.429  11.453   3.647  0.1332 -0.0383 -0.0613
27558W        W43692  15.598  13.434  15.496 -0.0102 -0.2125  0.1657
27559W        W43693   9.266   4.529   1.351 -0.0308  0.3627 -0.0591
27560W        W43694   7.782   3.755  11.557  0.2111  0.1695  0.2062
27561W        W43695  13.634  11.142   2.409 -0.2338  0.2580  0.0896
27562W        W43696  16.401  10.518   5.574  0.1901  0.0432  0.0957
27563W        W43697   6.117   4.510   4.694 -0.3664  0.2894 -0.0543
27564W        W43698   5.851   1.518   4.495 -0.0649  0.1088  0.0661
27565W        W43699   4.185  13.221   5.110  0.1271  0.1177 -0.2022
27566W        W43700   2.383   0.276  13.291  0.2688 -0.1441 -0.0588
27567W        W43701   8.190  16.220   3.682  0.2267  0.1355  0.1084
27568W        W43702   5.203   2.593  15.384 -0.0979 -0.1568  0.0399
27569W        W43703  11.056   2.811   4.239 -0.0992 -0.1387 -0.1651
27570W        W43704  17.299   2.417  12.805 -0.0037  0.2545 -0.0042
27571W        W43705   2.104   9.662  13.625 -0.2207 -0.0853 -0.2973
27572W        W43706   2.172  11.269   0.559  0.2187  0.0761 -0.1525
27573W        W43707   7.919   2.253   1.697  0.0511  0.5708  0.3925
27574W        W43708   3.191   1.353   1.102 -0.0290  0.2139  0.0527
27575W        W43709   4.474  11.959   4.121  0.1925 -0.2115 -0.1372
27576W        W43710  11.367   8.675   4.804 -0.1450  0.0704  0.1644
27577W        W43711   5.170  13.464   3.347 -0.1469 -0.0559  0.0766
27578W        W43712  13.677  16.304   3.575 -0.0788  0.2166  0.1986
27579W        W43713  10.556  15.806  15.227  0.1272  0.0729  0.2827
27580W        W43714  15.795  11.439  13.178  0.2564 -0.2070 -0.5562
27581W        W43715   8.009   5.205  12.528 -0.0413  0.0225 -0.2677
27582W        W43716   2.530  11.361   1.914 -0.1336  0.0276 -0.2579
27583W        W43717   8.803   0.927   2.582  0.1768 -0.0224 -0.1468
27584W        W43718  11.108   4.001  12.622  0.0144 -0.4476  0.0606
27585W        W43719   9.528  16.983  13.870 -0.0404 -0.4823  0.1501
27586W        W43720  10.213   0.060  13.439 -0.2592  0.0572 -0.1349
27587W        W43721  11.649  11.950  13.586 -0.0516  0.2463  0.3804
27588W        W43722   1.867   9.390  10.370 -0.0017 -0.5053  0.0225
27589W        W43723   8.662  16.670   2.487  0.1443 -0.3751 -0.0202
27590W        W43724   3.223   6.751  11.688 -0.0559  0.2046  0.1263
27591W        W43725   6.975   5.225  11.404 -0.1452  0.0192 -0.2072
27592W        W43726  17.369   4.582  12.666 -0.0064  0.3891  0.1140
27593W        W43727   3.748  13.306  10.938  0.0688  0.2651 -0.0626
27594W        W43728  18.494  17.333   0.938  0.0413 -0.1491  0.0477
27595W        W43729  16.950   8.456  12.641 -0.0035 -0.2261  0.3950
27596W        W43730   0.281   0.963  12.765 -0.2143  0.2892 -0.3067
27597W        W43731  13.704   9.751   1.596 -0.0422 -0.1724 -0.2270
27598W        W43732   2.272  16.644  10.167 -0.0667 -0.4408 -0.2410
27599W        W43733  18.121   0.189  12.546 -0.0879  0.1416 -0.0525
27600W        W43734  10.902   6.789   3.577  0.1193 -0.2095 -0.0572
27601W        W43735   0.269   1.489   2.930  0.0922 -0.0637  0.1523
27602W        W43736   5.880  15.736   4.704 -0.4513  0.2360  0.0284
27603W        W43737   1.112   6.883  10.992  0.0102 -0.0210  0.3587
27604W        W43738   1.929  17.967  12.204  0.1396  0.1356  0.0112
27605W        W43739   7.146  13.767  12.005 -0.0313  0.1039 -0.2286
27606W        W43740   8.729   4.765  13.120  0.1720  0.0987 -0.0104
27607W        W43741   6.546  14.529  12.943 -0.1575  0.1195  0.0325
27608W        W43742   2.306  15.440   0.233  0.3527  0.1399 -0.0206
27609W        W43743   0.189  17.944   3.131 -0.1717 -0.1181  0.2427
27610W        W43744   8.101   0.404   1.541 -0.2936 -0.1483 -0.4680
27611W        W43745  10.624   1.052  15.707  0.3210 -0.2673  0.3089
27612W        W43746  14.393   4.465  14.703  0.0652  0.0769  0.0021
27613W        W43747  17.195  11.953   2.498  0.1939 -0.3753  0.0619
27614W        W43748  12.629  14.652  15.484 -0.0007 -0.1283  0.2006
27615W        W43749   9.840  14.883   6.098 -0.1458 -0.0504  0.0821
27616W        W43750   4.521   9.537  11.754  0.0780 -0.0225  0.0777
27617W        W43751  17.788  15.108  15.731 -0.2697 -0.0976 -0.0058
27618W        W43752   9.563  14.122   1.289  0.0261 -0.1924 -0.1216
27619W        W43753   6.220   5.393   0.921 -0.0262  0.0157  0.1950
27620W        W43754  14.206   0.444   3.690 -0.0272  0.0299 -0.1657
27621W        W43755   7.932   3.138   2.710 -0.1237  0.3127  0.0635
27622W        W43756  12.599   4.579   1.873 -0.1897 -0.0075 -0.0263
27623W        W43757  16.848  16.793   4.409 -0.1659 -0.3940 -0.1874
27624W        W43758  11.025   1.342   1.445 -0.3882  0.0651  0.1775
27625W        W43759  14.523  16.641  12.549 -0.1996  0.0332 -0.2036
27626W        W43760   9.587   8.072  15.453 -0.0207 -0.1795  0.0308
27627W        W43761  17.359   7.630   2.534 -0.1983  0.3144 -0.3881
27628W        W43762   6.355   7.262   5.104 -0.0145 -0.0330  0.0698
27629W        W43763  10.312  17.874   2.994  0.3505  0.0826 -0.3361
27630W        W43764   9.083   9.011   2.749 -0.3997 -0.0042 -0.0707
27631W        W43765  14.430   7.577   4.542 -0.0259  0.0075 -0.0879
27632W        W43766   8.961   5.201   3.877  0.3240 -0.1333  0.2501
27633W        W43767   5.888  13.183  12.420  0.2489 -0.0139  0.0331
27634W        W43768   2.006  16.272   3.104 -0.0444 -0.0947 -0.0368
27635W        W43769  17.021   7.579  11.453  0.3448  0.1410 -0.0431
27636W        W43770   5.591  13.207  11.465  0.3743  0.2128 -0.1878
27637W        W43771  12.142   6.697   1.973  0.1702  0.2270 -0.1192
27638W        W43772  10.584   4.983   0.489  0.1535  0.1271 -0.1498
27639W        W43773  12.874  14.830   4.518  0.1159  0.0799 -0.3471
27640W        W43774   5.721  15.170   1.788 -0.1323 -0.0708 -0.0829
27641W        W43775   7.741   1.014   0.020  0.1461  0.0362  0.2228
27642W        W43776  16.325   0.468   3.030 -0.0051  0.0018 -0.0015
27643W        W43777  10.511  10.334  14.959 -0.3443 -0.2692  0.0330
27644W        W43778   5.880   6.355   5.321  0.2057 -0.0695 -0.0863
27645W        W43779   6.215   3.980  15.634 -0.2958  0.2118  0.0919
27646W        W43780  17.314   9.446   2.793 -0.1264 -0.0065 -0.0238
27647W        W43781  14.066  16.835  12.715  0.0651 -0.0177  0.1517
27648W        W43782   3.657   3.674   0.617 -0.2447 -0.0220 -0.0999
27649W        W43783   3.956  11.888   4.878  0.1367 -0.1378 -0.0638
27650W        W43784  14.666   9.560  15.792  0.0020  0.0237  0.2106
27651W        W43785   9.472  10.510   2.763  0.1693  0.0498 -0.1311
27652W        W43786  15.189  13.353   2.983 -0.1481 -0.0500 -0.1129
27653W        W43787   0.898  12.303   0.686 -0.1931  0.1357 -0.0812
27654W        W43788  12.040  12.239  14.388 -0.3256  0.0215  0.0023
27655W        W43789   1.742   1.593   4.519  0.0860 -0.2381 -0.0238
27656W        W43790   9.537   7.301  15.953  0.1399 -0.1587 -0.1811
27657W        W43791   3.501   8.181   5.149 -0.0683 -0.2959  0.2561
27658W        W43792  15.321  17.781   4.304 -0.3415 -0.2362 -0.1321
27659W        W43793  11.527  15.658   1.591  0.0010  0.2466  0.0311
27660W        W43794  12.954  11.638  15.931 -0.0222 -0.0230 -0.0707
27661W        W43795   9.863   1.660   4.422  0.0520  0.0799  0.2221
27662W        W43796   2.428  14.937   2.837 -0.1553  0.2844  0.0522
27663W        W43797   0.963   1.691  15.332  0.0105  0.0990  0.0380
27664W        W43798   8.233   7.401  11.772  0.4261 -0.2174 -0.2326
27665W        W43799   1.951   2.348  11.116  0.0989 -0.1805  0.2709
27666W        W43800   7.757  17.345   0.619  0.0665  0.1364  0.0575
27667W        W43801  13.749   6.294  12.553 -0.0304 -0.2470 -0.4869
27668W        W43802   6.750  10.409  13.298 -0.2192 -0.0008  0.0982
27669W        W43803  14.604  13.541  15.749  0.3357 -0.0582 -0.1722
27670W        W43804   4.194   0.455   1.931 -0.0747  0.2969  0.3502
27671W        W43805  10.729   2.836   3.202 -0.3659  0.4406  0.1372
27672W        W43806   7.598  10.615   1.876 -0.2089 -0.2581  0.1427
27673W        W43807  12.154  17.518   4.613  0.0252  0.0595  0.0168
27674W        W43808   1.196  17.928  13.890 -0.5188  0.2807  0.1685
27675W        W43809   6.113   8.579   3.593 -0.2950 -0.0089  0.3987
27676W        W43810  14.111  13.064   5.818  0.2083  0.0260 -0.2496
27677W        W43811   5.485   2.629  11.314  0.0320  0.0041 -0.0306
27678W        W43812  12.916   8.270   1.768  0.1372 -0.1586  0.2116
27679W        W43813   2.720  15.278  12.374 -0.1398 -0.0067 -0.2068
27680W        W43814   6.908  11.721  15.063 -0.3597 -0.0196  0.1084
27681W        W43815  18.071   2.277   3.972 -0.1655 -0.0106 -0.1023
27682W        W43816   4.309  15.849  15.970 -0.0231  0.2407  0.0025
27683W        W43817  11.074   0.472  15.670  0.2313  0.0968 -0.2328
27684W        W43818   0.772  11.858  14.665 -0.0056 -0.0400 -0.2397
27685W        W43819  16.209   5.104  15.445  0.1220  0.1101  0.1091
27686W        W43820   1.675   3.229  11.422  0.3165  0.3431  0.1455
27687W        W43821   1.188  17.178   2.037  0.3803 -0.4718 -0.1923
27688W        W43822   6.612   5.314  14.826 -0.0323  0.1002  0.0779
27689W        W43823  16.135  12.252  11.965 -0.3119  0.0308 -0.1180
27690W        W43824  18.291  16.522   4.717 -0.2016 -0.1220 -0.0386
27691W        W43825  14.142  16.854   1.668 -0.0416 -0.2901 -0.1712
27692W        W43826   3.230   3.123  13.924  0.0609 -0.2603 -0.1316
27693W        W43827   8.416   2.453  15.399 -0.1982  0.1932  0.3273
27694W        W43828  12.673  11.250   5.220  0.0819 -0.0738 -0.0246
27695W        W43829  16.924  10.915   2.537  0.2386  0.1170 -0.0219
27696W        W43830  11.788   8.935  13.772 -0.1308  0.1745 -0.1281
27697W        W43831   6.233   7.450  13.738  0.0074 -0.1499  0.0007
27698W        W43832   3.879  17.610   4.295 -0.0956  0.2607 -0.2087
27699W        W43833  16.090   5.500  11.416 -0.0102  0.3074 -0.1255
27700W        W43834   9.422   3.859  14.733 -0.1347 -0.1007 -0.1588
27701W        W43835  14.303  14.376   0.640 -0.0456  0.0854 -0.0445
27702W        W43836  16.249   3.029  10.842 -0.3098  0.2863  0.1624
27703W        W43837   7.318   6.944   4.343  0.0321  0.1438  0.0951
27704W        W43838  10.042   6.226  15.750 -0.3340 -0.1710  0.1258
27705W        W43839   8.722  13.722   0.975  0.3200  0.1337 -0.1304
27706W        W43840   0.891   5.121   2.849 -0.0018  0.3487 -0.0003
27707W        W43841  13.531  14.205   2.282 -0.2902  0.1482 -0.1356
27708W        W43842  18.096  13.762   0.028 -0.0684  0.0755  0.0619
27709W        W43843  16.649   3.397   4.331  0.1333  0.2834  0.0254
27710W        W43844  15.493  16.078   0.355 -0.2110  0.3741 -0.0523
27711W        W43845   4.664  12.842   1.565  0.2198 -0.1220  0.0387
27712W        W43846  13.518  14.723  11.261  0.0321  0.2603 -0.0871
27713W        W43847  11.849  13.832  12.196 -0.2001  0.2062  0.3026
27714W        W43848   0.157  14.292   0.236 -0.3413 -0.0682 -0.3679
27715W        W43849  15.605   7.775  13.268 -0.0219 -0.1918  0.0890
27716W        W43850   9.935   7.288  12.465  0.0808 -0.1137 -0.1426
27717W        W43851   4.547  11.437   2.883 -0.2425 -0.2486 -0.2403
27718W        W43852  11.808  16.280   3.208 -0.0108  0.0782 -0.2696
27719W        W43853   1.878  18.442  11.910  0.1598 -0.1108 -0.0806
27720W        W43854   7.361  11.108   0.562 -0.2579  0.1854 -0.3257
27721W        W43855   8.642   2.201  13.196 -0.0604 -0.1720  0.2592
27722W        W43856  17.262  12.929   3.210  0.0367  0.0034  0.2272
27723W        W43857   8.597  10.276  13.299 -0.2826 -0.0919 -0.0681
27724W        W43858  17.244   4.370  15.175  0.0959  0.1741  0.1437
27725W        W43859   2.712   4.367  11.507 -0.1059  0.1891 -0.1706
27726W        W43860  15.614   7.114   3.149  0.2188  0.1570 -0.3308
27727W        W43861  12.923   4.582  15.423 -0.2793  0.0945  0.1814
27728W        W43862  17.493  12.248  13.614  0.0402  0.3072  0.4083
27729W        W43863   9.217  16.893  13.469 -0.0581  0.0238  0.0103
27730W        W43864   7.690   8.484   0.165  0.3113  0.0148  0.0828
27731W        W43865   0.503  13.108   4.501  0.2428 -0.1078  0.2884
27732W        W43866   1.392  18.103   0.726  0.0462 -0.0417 -0.0936
27733W        W43867   3.456  13.670   5.404 -0.0129  0.2276  0.0866
27734W        W43868  14.146   1.600  15.362  0.1835 -0.1404  0.1628
27735W        W43869   7.900   0.181   5.653  0.1315 -0.0201 -0.2306
27736W        W43870   9.104   2.222  13.950 -0.0243 -0.1185 -0.3458
27737W        W43871   5.272  14.894  11.930  0.3810  0.3733  0.0303
27738W        W43872   3.006  14.545   2.511  0.1971 -0.0982 -0.1210
27739W        W43873   9.276   6.614   3.479  0.0377 -0.0925 -0.3670
27740W        W43874   5.681   2.117  15.661  0.2340  0.0000 -0.2486
27741W        W43875   1.909   9.351   1.825  0.1591 -0.1894 -0.1189
27742W        W43876  15.055   8.289  12.452  0.2168 -0.1041  0.1129
27743W        W43877  18.094   2.653  15.950  0.0212  0.2036  0.1826
27744W        W43878   9.869   2.278  13.406 -0.2053 -0.1146  0.3287
27745W        W43879  15.499   0.054   3.551 -0.2991  0.2091 -0.1978
27746W        W43880   8.534   2.908   0.620 -0.0893  0.2340  0.1776
27747W        W43881   3.590   4.332   1.507 -0.3763  0.0911 -0.0177
27748W        W43882   4.082  18.348  11.624  0.0842 -0.1457 -0.1368
27749W        W43883   3.823   8.228  15.662  0.1629  0.0672 -0.0676
27750W        W43884  11.607   5.462  14.130 -0.1945 -0.0590 -0.0800
27751W        W43885  16.021   2.356  13.006  0.0001 -0.2077 -0.0472
27752W        W43886   0.598  12.743  14.727 -0.0311 -0.1922 -0.1931
27753W        W43887  14.684  11.904  14.654 -0.0247  0.0233 -0.1097
27754W        W43888  10.386  10.872  13.717  0.2856 -0.0751 -0.3876
27755W        W43889   4.313  17.322   5.429 -0.0776  0.0419 -0.0962
27756W        W43890   8.005  10.175  13.303 -0.1898 -0.2728  0.0752
27757W        W43891   6.624  14.039  12.652  0.1119  0.2496 -0.0293
27758W        W43892   2.822   4.734  11.865 -0.2501 -0.0249  0.3017
27759W        W43893  17.821   9.356   2.944  0.1022 -0.1240 -0.1429
27760W        W43894   3.717   0.840  13.404  0.0800  0.3201 -0.1826
27761W        W43895  11.631   5.781  14.779  0.0802 -0.0545  0.0518
27762W        W43896  17.008   4.182  13.806 -0.0876  0.0570 -0.1005
27763W        W43897  14.652   0.295   0.224 -0.0747  0.1485  0.1214
27764W        W43898   9.182  15.307  11.957 -0.0403  0.2883  0.0998
27765W        W43899  12.571  13.972  14.153  0.1321  0.3351 -0.2916
27766W        W43900   6.288   7.864   0.394  0.2079 -0.0187 -0.4138
27767W        W43901  18.036  12.907   1.077  0.0143 -0.0424 -0.0291
27768W        W43902   4.665  10.891   4.723 -0.0658  0.2520  0.0212
27769W        W43903   5.839   7.564  15.311  0.1437  0.3517  0.2077
27770W        W43904   7.201   8.405  13.360 -0.0881  0.0425 -0.0624
27771W        W43905  10.343  14.287  16.050 -0.1685 -0.0699 -0.1493
27772W        W43906  10.098   1.277  14.862 -0.0557 -0.0121 -0.2496
27773W        W43907   9.169  12.540   5.213 -0.1205  0.2106  0.1964
27774W        W43908   3.336   8.004  11.500 -0.1359  0.0027 -0.0981
27775W        W43909  18.373   3.148  14.196 -0.0230  0.2770  0.1108
27776W        W43910   7.150   9.460   3.675  0.0174  0.1617 -0.0079
27777W        W43911  11.461  12.494   1.265 -0.3625  0.3452  0.1566
27778W        W43912   4.654   0.488   3.624  0.3393  0.1837  0.0374
27779W        W43913  17.325   0.720   0.641  0.1169 -0.1833  0.2239
27780W        W43914   1.794   1.716  13.969  0.0943  0.1446 -0.0097
27781W        W43915   0.148   8.993   3.342  0.0055  0.1079 -0.2403
27782W        W43916   4.339   1.409  15.011 -0.1304 -0.0347  0.0201
27783W        W43917   3.351  12.650   1.320 -0.0044 -0.0258 -0.0845
27784W        W43918  15.875   3.037   4.615 -0.0023 -0.2505  0.0036
27785W        W43919   8.124   8.881  15.093 -0.2303 -0.0515 -0.1994
27786W        W43920   6.036   9.935  14.283  0.1805 -0.2252 -0.1113
27787W        W43921   7.778   2.897   0.252 -0.1254 -0.2214 -0.1498
27788W        W43922   6.467   4.706   4.293 -0.0878  0.0112  0.1416
27789W        W43923   9.977  18.196   0.494  0.0078 -0.0531  0.2582
27790W        W43924   2.254   4.445  11.146  0.0104  0.0553  0.0890
27791W        W43925  12.313  15.121   0.626  0.3725  0.1769 -0.0454
27792W        W43926  14.783   1.428  13.963  0.0442 -0.0127 -0.2159
27793W        W43927   1.500  11.414  12.541  0.0539  0.2138  0.3735
27794W        W43928  12.503  17.566  15.658  0.1961 -0.1800 -0.0887
27795W        W43929  14.444  13.804   3.260 -0.0169  0.3247 -0.2507
27796W        W43930  13.682   3.848   1.646  0.0734  0.0383 -0.1882
27797W        W43931   4.848   6.307  13.552  0.3285  0.0052  0.1903
27798W        W43932  11.329  14.450   2.091 -0.0642  0.0361 -0.0593
27799W        W43933  15.015   5.066   2.533 -0.1742 -0.1195  0.3255
27800W        W43934   3.335  11.140  15.450  0.0410 -0.1351 -0.2238
27801W        W43935   8.150  17.630   4.393 -0.2720  0.1056 -0.0531
27802W        W43936   3.029  11.979   4.892 -0.1866  0.1014  0.2228
27803W        W43937  12.345   3.339   1.313 -0.2029 -0.2124 -0.3436
27804W        W43938   3.379  14.563   3.794  0.0027  0.3068 -0.1451
27805W        W43939   5.284  10.309   1.649  0.3345 -0.0062  0.2120
27806W        W43940   7.965  14.658   6.136 -0.0404  0.1774  0.2013
27807W        W43941   8.438  13.063  13.218  0.0475 -0.3303 -0.0523
27808W        W43942   7.619  15.158   3.063 -0.4116  0.0661  0.0680
27809W        W43943   3.824  14.102  10.102 -0.1059 -0.0525  0.0005
27810W        W43944   8.407   9.095   4.380 -0.2200  0.2377 -0.0528
27811W        W43945   2.150   4.064  12.299  0.0308 -0.3697  0.1857
27812W        W43946   3.260   0.064   3.319  0.2100 -0.0482 -0.0405
27813W        W43947  13.367   4.522  15.140  0.2625 -0.1713 -0.1912
27814W        W43948   8.920   6.138  14.623 -0.0541 -0.0815 -0.1919
27815W        W43949   7.213   7.234   2.697 -0.4103  0.2381 -0.0009
27816W        W43950   4.459  16.058  12.091 -0.1652  0.1982 -0.2219
27817W        W43951  10.217  16.327  12.585 -0.3919  0.0323 -0.2424
27818W        W43952   4.905  10.591   3.381 -0.0358 -0.4098  0.3722
27819W        W43953   1.559  18.115   4.982 -0.0986 -0.0489 -0.1968
27820W        W43954  11.360   3.117   0.581 -0.3273  0.2479 -0.0872
27821W        W43955   9.024  17.532  12.134 -0.1107  0.2716  0.2893
27822W        W43956   1.309  12.546  15.885 -0.0367  0.3534 -0.2881
27823W        W43957   2.235  17.477   3.766 -0.2227 -0.1548 -0.0194
27824W        W43958   8.564  18.384  13.919 -0.2720 -0.1087 -0.0527
27825W        W43959   2.243   6.150   1.299 -0.0495  0.1280 -0.1255
27826W        W43960   9.862  11.414  14.750  0.1745 -0.1029 -0.1481
27827W        W43961  17.271   8.528  13.844  0.0963  0.2111 -0.1872
27828W        W43962  15.173  11.841   2.925 -0.0638  0.0727  0.0855
27829W        W43963   4.360  10.908  10.654  0.3876 -0.2168 -0.7073
27830W        W43964   3.577   7.242  11.874 -0.0872  0.1108 -0.0662
27831W        W43965   6.568   3.715   1.594 -0.1710  0.1102  0.2750
27832W        W43966   5.727   5.803  15.205 -0.0922  0.0601  0.0874
27833W        W43967  15.456   2.415  13.759 -0.2730  0.1334  0.1010
27834W        W43968   9.131   9.981  14.681  0.0197  0.2925 -0.1310
27835W        W43969  14.606  16.627  11.052 -0.1752 -0.1393 -0.0010
27836W        W43970   3.509   6.838   1.690  0.0004  0.0428  0.0467
27837W        W43971   4.381   2.690   3.360 -0.0510  0.0721  0.0856
27838W        W43972  14.511   6.741   6.213  0.0146 -0.0518 -0.1335
27839W        W43973  17.018   1.396  11.964  0.1530  0.3360  0.2190
27840W        W43974  16.636   8.665   4.104 -0.0616 -0.1492 -0.3694
27841W        W43975  16.912   6.583  10.723  0.2257  0.2860 -0.0663
27842W        W43976   8.725  13.853   0.497 -0.0286  0.0561  0.0970
27843W        W43977   3.116   0.289  15.042 -0.1437  0.0834  0.2963
27844W        W43978   2.177   8.462  14.146  0.0973  0.1621 -0.1212
27845W        W43979   8.176   6.710  13.633 -0.0344  0.1453 -0.0279
27846W        W43980  13.980   3.475  13.284 -0.0175  0.1932 -0.0429
27847W        W43981   1.415  18.051  14.338  0.0147 -0.1493 -0.1091
27848W        W43982   6.016   4.921  15.488  0.1993  0.0032 -0.0869
27849W        W43983  12.737  16.759   4.851  0.0509 -0.0738  0.0632
27850W        W43984  13.327  16.068  14.543 -0.0199 -0.0291 -0.0348
27851W        W43985  13.731   8.409   0.666 -0.4661 -0.2650  0.1984
27852W        W43986  11.131  15.382   4.898 -0.2194  0.1505  0.3552
27853W        W43987   0.158  17.844  12.901  0.1368 -0.1770 -0.3497
27854W        W43988   3.568   9.113   3.643 -0.0639  0.1319  0.1653
27855W        W43989   7.217   0.161   4.538  0.1519  0.0864  0.1349
27856W        W43990  17.029   0.354   2.491  0.3507  0.1703  0.1346
27857W        W43991  13.552   7.750   5.537 -0.0608  0.2142  0.0658
27858W        W43992   8.210  18.287  11.813 -0.0166 -0.0233  0.0609
27859W        W43993  13.429   6.780   1.710  0.1215 -0.1895 -0.1031
27860W        W43994  11.245   7.672   1.680 -0.1394  0.0603 -0.0073
27861W        W43995   3.771  18.306  16.063 -0.0300  0.0197 -0.2027
27862W        W43996   1.057  14.703   4.037 -0.2437 -0.2429  0.3795
27863W        W43997  15.597  13.433  14.211  0.0219  0.1604 -0.2187
27864W        W43998   6.529  17.759  13.178 -0.3122  0.0704  0.0339
27865W        W43999   5.737   1.032   5.131  0.2237  0.1266  0.3157
27866W        W44000   8.411  11.596  10.353 -0.3052  0.0759 -0.0295
27867W        W44001   5.378   8.828  12.046 -0.0722 -0.0255 -0.0342
27868W        W44002   2.133   3.454   3.759 -0.3414  0.1300 -0.0950
27869W        W44003   3.642   9.340   2.029 -0.0642  0.1819  0.0836
27870W        W44004   6.555  13.990   3.940  0.1311 -0.1712  0.4171
27871W        W44005  11.154  16.833   4.790 -0.3652  0.0527  0.0078
27872W        W44006  12.270   9.994   4.711 -0.0007 -0.2569  0.1047
27873W        W44007   2.893   9.947   0.888  0.1667 -0.1692 -0.1306
27874W        W44008  16.067   3.153  11.379  0.1407 -0.2671  0.0080
27875W        W44009  10.506   7.674  15.785 -0.0019 -0.0329  0.2088
27876W        W44010  15.069  13.600   3.669  0.0307  0.0350  0.2221
27877W        W44011   2.388   7.177   1.118 -0.1664  0.0589  0.1148
27878W        W44012   3.700  14.676   3.413 -0.4614 -0.1808  0.1662
27879W        W44013  17.033   4.848  11.710 -0.0284 -0.3881 -0.1292
27880W        W44014  11.145  16.556   5.576  0.2386 -0.2866  0.2730
27881W        W44015  14.124  16.107   3.109 -0.1216 -0.0605 -0.0459
27882W        W44016  12.511  17.726  12.945 -0.0006  0.1039 -0.0179
27883W        W44017  13.830   6.808  12.258 -0.0392 -0.2914 -0.0579
27884W        W44018  18.314  15.631   1.757  0.2120  0.2782 -0.3245
27885W        W44019   3.198  17.150   0.734  0.2445  0.0625  0.1151
27886W        W44020  10.762   0.247  14.107 -0.4211 -0.1766  0.1260
27887W        W44021   8.132   5.124  12.070 -0.1453  0.4561  0.1508
27888W        W44022  13.751   5.107  12.708  0.0150 -0.0637  0.2158
27889W        W44023   9.270  16.842   3.984 -0.1429  0.1376 -0.0623
27890W        W44024  16.955  16.835   3.931  0.1334 -0.1173  0.2199
27891W        W44025   0.759  18.256   3.488  0.3281 -0.2563  0.1461
27892W        W44026   7.650  15.554   2.741 -0.0451 -0.0508  0.0662
27893W        W44027  12.626   6.868  12.313 -0.3072  0.1665  0.4136
27894W        W44028  13.554   3.849   1.054  0.0817 -0.2407 -0.0604
27895W        W44029   0.621   5.916  14.299 -0.0837  0.0492 -0.0404
27896W        W44030  13.906   8.198  12.161  0.0744 -0.0517  0.0745
27897W        W44031  12.823   0.663   2.061  0.1516 -0.1576 -0.1711
27898W        W44032   4.171   5.672   1.808 -0.4342  0.0855 -0.2026
27899W        W44033  11.375  12.005   3.491 -0.3212  0.2932  0.1567
27900W        W44034  12.068  11.324   1.383 -0.0204  0.1340 -0.3381
27901W        W44035   1.907   3.711  11.431 -0.0809  0.0635 -0.1503
27902W        W44036   3.792  15.523   3.798  0.0173  0.1590  0.2669
27903W        W44037   1.804   8.188  12.610  0.4893  0.2713 -0.1963
27904W        W44038   6.832  11.403   3.832 -0.3088  0.1045  0.0210
27905W        W44039   4.075   0.701   2.355 -0.0936  0.3006  0.2492
27906W        W44040   3.522  12.954   4.795 -0.2548  0.1151 -0.1067
27907W        W44041  17.800   6.915  12.368  0.2354 -0.4039  0.3356
27908W        W44042   7.744   0.391   1.884 -0.2252 -0.0374 -0.1543
27909W        W44043   6.677  14.325   0.175  0.1630  0.0484 -0.1434
27910W        W44044   0.439   4.029  14.485 -0.0700  0.1354  0.0667
27911W        W44045   2.506   6.103  10.691 -0.1590  0.2276 -0.0825
27912W        W44046  16.030   4.424   0.082  0.0366 -0.3797 -0.0793
27913W        W44047  16.623  16.009  12.288  0.0128 -0.0205  0.0876
27914W        W44048  12.125   1.815   1.663  0.1503 -0.1110 -0.1205
27915W        W44049  10.195   2.000  14.279  0.1020  0.1877  0.1048
27916W        W44050   8.664   8.027   0.500 -0.1057  0.1211  0.1517
27917W        W44051   9.931   3.891  15.269 -0.1037 -0.1838 -0.1096
27918W        W44052   8.789  13.890  15.619 -0.2087  0.0548 -0.0149
27919W        W44053  12.620   1.479   2.709  0.1936 -0.0625 -0.2132
27920W        W44054   6.705  14.173   2.928  0.3720 -0.0662  0.1253
27921W        W44055   9.045  11.696  13.311  0.3714 -0.3072 -0.0342
27922W        W44056   0.941   0.793  15.122 -0.0426  0.2642 -0.1162
27923W        W44057   5.128   1.725   5.164 -0.2127 -0.0073 -0.2772
27924W        W44058  17.025  11.621   9.420  0.0764 -0.4521  0.1094
27925W        W44059  17.582  16.394  14.367  0.0071  0.0833  0.1562
27926W        W44060  10.640   2.191   0.635  0.0023 -0.2642 -0.0622
27927W        W44061  13.322  13.775  10.589 -0.1434 -0.5953 -0.1302
27928W        W44062  13.884   8.626  15.229  0.0447  0.1834 -0.0732
27929W        W44063   0.989   2.303   5.253 -0.0454 -0.1870 -0.2394
27930W        W44064   3.446   2.156   3.131  0.2291 -0.0403 -0.0172
27931W        W44065   4.304  15.137  10.611 -0.2482  0.1777 -0.1368
27932W        W44066   1.397   0.485   0.429 -0.0917 -0.0171 -0.0952
27933W        W44067   1.527   7.865  12.248  0.1607 -0.0141 -0.0556
27934W        W44068   9.795  12.049  12.983 -0.2945  0.1951  0.1223
27935W        W44069   3.660   9.132  10.807 -0.0480  0.0472 -0.0613
27936W        W44070   4.370  13.693   5.341  0.1931  0.4373 -0.0400
27937W        W44071   5.078   6.134   4.623  0.1444  0.4442  0.1074
27938W        W44072  15.247   7.591   5.058  0.0812  0.1448  0.0488
27939W        W44073   1.241  13.883  15.053 -0.2137 -0.0559 -0.0933
27940W        W44074  17.206  13.398  12.712  0.0569 -0.1666 -0.0619
27941W        W44075  18.008  17.203   0.916 -0.1785  0.1935  0.2508
27942W        W44076   0.901  18.195   5.771 -0.0238 -0.0613  0.1196
27943W        W44077  14.551   5.639  12.979 -0.1061 -0.1787  0.0299
27944W        W44078  16.260  10.481  11.841 -0.2170 -0.2172  0.1168
27945W        W44079  14.161  13.748  12.304 -0.1885 -0.0329 -0.1190
27946W        W44080  11.017   2.149  12.845 -0.0651  0.3745 -0.1643
27947W        W44081   5.196   7.401   6.008 -0.0371 -0.1626 -0.0954
27948W        W44082  12.425  11.376  13.417 -0.3123 -0.0151  0.0713
27949W        W44083  15.623   8.278  13.492 -0.1199 -0.1961 -0.0473
27950W        W44084   1.485   7.148   2.771  0.2488 -0.1374  0.1312
27951W        W44085  16.726  13.954   2.810 -0.0056  0.1865 -0.0228
27952W        W44086   0.096  11.476   3.506 -0.0219 -0.0025  0.4067
27953W        W44087  10.047   1.526   3.888  0.0983 -0.0325 -0.0383
27954W        W44088   9.001  16.792  13.980 -0.1622  0.3312 -0.3001
27955W        W44089  17.009   1.121  14.917 -0.0162 -0.2891 -0.1089
27956W        W44090  12.072  12.944   0.027 -0.0933  0.0943  0.4281
27957W        W44091   0.293   6.083   3.875 -0.0744 -0.0604  0.0774
27958W        W44092  12.878   8.049   3.641 -0.2814  0.0128 -0.2678
27959W        W44093  17.142  10.351   0.917 -0.0125 -0.4209  0.1973
27960W        W44094   6.706   9.101   2.612  0.0568 -0.1229 -0.1193
27961W        W44095  15.048  11.332   2.760  0.0284  0.2492 -0.0096
27962W        W44096  14.199  10.592   0.793 -0.1784 -0.1858 -0.0098
27963W        W44097  12.419  17.829  11.594  0.0347  0.1130  0.2099
27964W        W44098   3.169   5.772  10.758  0.2186 -0.2056 -0.1845
27965W        W44099  13.475   7.555   1.152  0.2118 -0.0985  0.1584
27966W        W44100  10.668  13.309  12.449 -0.1429 -0.1673  0.2072
27967W        W44101  15.695   9.334   4.780 -0.4646 -0.0556  0.0877
27968W        W44102  11.824  14.558   5.704 -0.1136 -0.0128 -0.1879
27969W        W44103  15.873  12.428   3.126  0.0037  0.3400  0.2407
27970W        W44104  11.207   5.692   4.620 -0.0491 -0.2479  0.1128
27971W        W44105   1.476   4.742  12.138  0.0088 -0.0043 -0.1062
27972W        W44106   4.753  14.994  12.860 -0.2701 -0.1007  0.0256
27973W        W44107   4.108   9.167   1.673 -0.0023  0.0275 -0.1694
27974W        W44108   1.471   4.633  14.645 -0.0958  0.1126  0.1152
27975W        W44109  18.489  16.419  11.578  0.1738 -0.0719 -0.4059
27976W        W44110   8.820  14.045   2.839  0.1644  0.0346  0.0480
27977W        W44111   9.484   4.953  14.667  0.0102 -0.0099  0.1025
27978W        W44112   2.490   6.038  13.679 -0.1280  0.1408  0.1150
27979W        W44113  14.111   9.195   0.459 -0.0221  0.2228  0.1490
27980W        W44114   5.197  14.726  16.044  0.0878 -0.0781 -0.0698
27981W        W44115  16.911   1.119   4.750 -0.1790  0.1981  0.0542
27982W        W44116  16.887   5.393  13.953 -0.3486 -0.0396 -0.0402
27983W        W44117  11.538   2.728   0.290  0.0889 -0.2533 -0.0285
27984W        W44118  16.614   6.271  12.838  0.1109  0.3000 -0.1373
27985W        W44119   0.633  16.474  14.866 -0.0049  0.0064  0.0474
27986W        W44120   7.083   8.845   3.912 -0.0399  0.2358  0.1231
27987W        W44121  15.170   1.823   0.040  0.2508  0.2778 -0.0407
27988W        W44122  17.330  10.920  11.586 -0.0298  0.0847  0.0235
27989W        W44123  17.368   9.969   1.215  0.1211  0.0553  0.2016
27990W        W44124  18.311  14.751  11.532  0.1059  0.1594  0.0416
27991W        W44125  12.287  16.518  15.286 -0.0964  0.1438 -0.1936
27992W        W44126  10.602  12.144   0.105  0.1872 -0.2902 -0.4093
27993W        W44127   3.288  10.196  11.354  0.1667 -0.2586 -0.0458
27994W        W44128   1.654   6.010  11.754  0.1228 -0.2668  0.0442
27995W        W44129  16.244   1.493   1.270  0.3186  0.0772  0.0780
27996W        W44130  13.471   3.350  11.786  0.5048  0.1200  0.2729
27997W        W44131  11.162  12.836   0.526 -0.0073 -0.2428 -0.0434
27998W        W44132   2.718  10.517  12.159  0.0310  0.0536  0.1649
27999W        W44133  10.166   4.979  12.674  0.0215  0.0699 -0.2835
28000W        W44134   4.310   5.885   3.476  0.1908 -0.1622 -0.0196
28001W        W44135  17.807  16.492   4.978 -0.1124  0.0227  0.0146
28002W        W44136  13.397  14.048  13.858  0.1450  0.3945  0.1159
28003W        W44137   8.686  16.753   5.841  0.1449 -0.0452 -0.0983
28004W        W44138  17.378  14.840   2.520 -0.1289  0.4073 -0.0584
28005W        W44139  16.278  13.595  12.893  0.0042  0.1809 -0.4167
28006W        W44140   6.350  16.308   1.661 -0.2546 -0.0193  0.1123
28007W        W44141  11.135   3.074  13.778 -0.2671 -0.0193  0.0529
28008W        W44142  18.326   8.077   4.328 -0.1684  0.1137  0.1983
28009W        W44143  12.320  10.070  11.611 -0.3249 -0.2142  0.0278
28010W        W44144   2.073  14.231  11.299  0.0408  0.0076  0.0307
28011W        W44145  10.228  13.504  11.678  0.0463 -0.1650  0.4906
28012W        W44146  12.529  16.175  13.902 -0.0521 -0.0549 -0.2100
28013W        W44147  16.057   3.036  14.696 -0.1258  0.2516  0.1354
28014W        W44148   7.603   4.098  14.460  0.2654  0.0024  0.2999
28015W        W44149  16.826  12.807  11.583  0.1501  0.3118 -0.0259
28016W        W44150  17.428   8.510  14.837  0.2036 -0.1569 -0.0265
28017W        W44151  15.955   6.529   0.622  0.0797  0.1608  0.2464
28018W        W44152   8.821   7.682   1.771  0.3357 -0.2706  0.0284
28019W        W44153   5.858   4.130   3.367 -0.0778  0.1103 -0.3709
28020W        W44154   7.398   9.239   2.847 -0.0415 -0.1671  0.2068
28021W        W44155   7.423  13.248   0.684 -0.1290  0.2352 -0.1097
28022W        W44156   7.234  13.415   1.162  0.2049 -0.1644 -0.0607
28023W        W44157  17.989   3.716   0.197  0.3162  0.0307 -0.0099
28024W        W44158  13.535  17.110   4.923 -0.3210  0.0391 -0.2581
28025W        W44159   0.039  16.847   3.310  0.2944  0.1265  0.0456
28026W        W44160   2.761   6.727  10.782  0.0415 -0.0699 -0.3156
28027W        W44161   9.783  10.240   4.454 -0.1680  0.1001 -0.2997
28028W        W44162  14.975   8.589  15.642  0.0029  0.0350  0.0542
28029W        W44163  12.589   3.026   2.728 -0.0312 -0.3597 -0.0288
28030W        W44164   0.489   8.960   4.455 -0.1517 -0.1685  0.2965
28031W        W44165   2.465  12.534   2.456 -0.1759  0.1550 -0.0329
28032W        W44166   1.776   5.671  13.928  0.1273 -0.1646 -0.2001
28033W        W44167   8.927   2.273   1.202  0.0271 -0.2700 -0.2423
28034W        W44168   5.204  14.530   4.862  0.0432  0.1774 -0.0636
28035W        W44169   1.339   1.586  11.117 -0.3985 -0.0581 -0.0535
28036W        W44170   1.499   7.882   4.849 -0.2843 -0.2830  0.0602
28037W        W44171   0.428  16.095  13.145 -0.1568 -0.2168  0.0896
28038W        W44172   7.897  15.264   5.875  0.2085  0.5818 -0.1432
28039W        W44173   0.462  17.093   4.608 -0.0739 -0.2612 -0.0149
28040W        W44174   2.355  14.322  12.579  0.0834  0.3119 -0.1985
28041W        W44175   3.708   3.659  11.583 -0.2018 -0.0204  0.1756
28042W        W44176   7.954  12.233  11.819 -0.0405 -0.2200 -0.0983
28043W        W44177   6.186  12.999  15.252  0.0098 -0.1031 -0.1812
28044W        W44178   8.743   8.742   5.253  0.0486 -0.0362  0.0669
28045W        W44179  15.169  15.082   5.489  0.2592  0.0871  0.0157
28046W        W44180   2.363   4.604   1.014  0.1332 -0.0953  0.0098
28047W        W44181   8.050   9.861   0.143  0.0311 -0.0395 -0.0557
28048W        W44182   6.126  18.028   5.845  0.1707 -0.2775  0.1083
28049W        W44183  10.762   5.222   2.048  0.0125  0.0749 -0.0667
28050W        W44184  17.709  12.107   1.678 -0.0461 -0.3082  0.1918
28051W        W44185   1.318  16.384   4.265 -0.1568  0.1471  0.0787
28052W        W44186  16.128   8.922  12.482  0.1241 -0.0083  0.0397
28053W        W44187   6.793   4.151  13.366 -0.0920  0.0329  0.1459
28054W        W44188  14.327   4.456   3.931  0.1485 -0.0092 -0.1164
28055W        W44189   1.669  10.749  14.147 -0.2111 -0.1039 -0.0539
28056W        W44190  14.352   0.423   5.908 -0.0393  0.0959  0.0676
28057W        W44191   8.741  16.790   4.159 -0.2483  0.0186 -0.0577
28058W        W44192   2.028   8.368   3.080 -0.1029 -0.1369 -0.2203
28059W        W44193  11.526   2.500   1.213 -0.3209  0.2373 -0.1036
28060W        W44194   6.364  10.337  14.097 -0.1913  0.1579 -0.1837
28061W        W44195   6.093   7.428  10.797  0.0545 -0.3308  0.0323
28062W        W44196   6.798  12.565   0.965 -0.1263  0.3279  0.2290
28063W        W44197  11.830   5.558  12.812  0.1292 -0.0747  0.1223
28064W        W44198   6.340   4.732  12.402 -0.0965 -0.2382  0.2557
28065W        W44199   0.856   2.587  13.164 -0.1829  0.0385  0.0455
28066W        W44200  12.879   9.316  11.651 -0.0414 -0.0380 -0.1019
28067W        W44201  15.682  18.128  11.414 -0.1061 -0.0278  0.1291
28068W        W44202   1.251   1.610  12.457  0.5334  0.1124 -0.1482
28069W        W44203   2.573   5.129  13.724  0.0305  0.2064  0.2675
28070W        W44204  11.178  12.291  15.454 -0.0411  0.0153  0.1549
28071W        W44205  11.432   1.029   4.952 -0.1873 -0.1919  0.0220
28072W        W44206   8.620   3.378   0.387  0.0318  0.0731  0.1963
28073W        W44207  10.831   6.180   2.484 -0.0883  0.1490 -0.1066
28074W        W44208  11.497  14.352   5.373 -0.2963  0.0011 -0.3324
28075W        W44209  18.359   3.002   2.141 -0.3272  0.3149 -0.1186
28076W        W44210  17.366  15.861  14.199 -0.1595  0.2284  0.0870
28077W        W44211   9.381   7.410  15.076 -0.0008 -0.0617  0.0073
28078W        W44212   9.592   9.256   5.234  0.1453  0.1332  0.0398
28079W        W44213  16.708  17.713   2.731 -0.0777 -0.2983  0.1528
28080W        W44214   0.042   9.592   0.405  0.0843 -0.0363  0.2101
28081W        W44215   0.022   4.630  14.035  0.0130  0.1022  0.3133
28082W        W44216   7.691   8.014   2.628  0.5225  0.1580 -0.1196
28083W        W44217   9.898   1.085  15.479 -0.0931  0.1646 -0.3274
28084W        W44218  12.803  18.171   4.932 -0.0189 -0.2740 -0.0147
28085W        W44219  11.120  13.852   2.780  0.1480 -0.1850 -0.0035
28086W        W44220  12.865  10.264  14.118 -0.2486  0.1232 -0.2178
28087W        W44221   9.251  16.857   2.748  0.0245 -0.1791  0.0476
28088W        W44222  12.024  10.100  16.051 -0.5481  0.0544 -0.2274
28089W        W44223  12.169   8.762   5.868 -0.1318  0.1668 -0.1024
28090W        W44224  17.176   4.344  11.707  0.3032 -0.1413  0.1208
28091W        W44225   7.009   8.701   1.197 -0.2686 -0.2428 -0.0753
28092W        W44226   8.069   4.710   2.730 -0.0911  0.0185  0.1435
28093W        W44227  10.367   1.178   5.888 -0.2980 -0.2294  0.1187
28094W        W44228  17.853   2.162   0.491  0.1200 -0.1539 -0.1632
28095W        W44229   3.539  13.635   1.664  0.0938 -0.0407 -0.0280
28096W        W44230  10.155   2.596   3.457  0.2694 -0.1421 -0.1045
28097W        W44231   9.439  13.590   5.965 -0.1306 -0.0928  0.0960
28098W        W44232  14.080  14.133  11.926 -0.1293  0.4546  0.0937
28099W        W44233   4.670  16.849   0.911  0.2475 -0.1522 -0.0916
28100W        W44234  17.786   6.619  13.463  0.0281 -0.1279 -0.0649
28101W        W44235  14.668  11.002   2.073  0.1634 -0.0764 -0.0419
28102W        W44236  12.529  13.271   5.930 -0.2141  0.0025 -0.2304
28103W        W44237   3.384  14.459  14.905 -0.0813 -0.0512  0.1756
28104W        W44238  10.902  11.405  13.280  0.0392 -0.0113  0.1728
28105W        W44239   8.871   5.469  11.581 -0.0132 -0.3829 -0.1523
28106W        W44240   4.471  10.028  11.449  0.0336 -0.1010  0.0897
28107W        W44241   6.477  15.200  16.046 -0.1234 -0.0427 -0.1116
28108W        W44242   6.251   0.199   1.180  0.0303  0.3986 -0.3532
28109W        W44243  13.495  17.878  13.723  0.1106 -0.0203  0.2245
28110W        W44244  16.262   9.591   2.539  0.0949  0.0250 -0.0235
28111W        W44245   4.802   6.647  12.864  0.1364 -0.3240 -0.2027
28112W        W44246   4.621  11.120  13.052 -0.0169  0.1079 -0.0866
28113W        W44247   9.963   5.890  13.760  0.3449  0.2118  0.1622
28114W        W44248   4.167   8.934  10.635  0.0566  0.3214 -0.2076
28115W        W44249   7.063  15.637   2.671 -0.0202  0.1489  0.0992
28116W        W44250  13.188  14.153  12.174 -0.0466 -0.1620  0.0483
28117W        W44251  16.938   4.936   2.823 -0.2691  0.0117  0.0157
28118W        W44252  14.603  12.329  13.920  0.2856  0.0345 -0.0694
28119W        W44253   2.718  17.896   3.661  0.0581 -0.1313 -0.2277
28120W        W44254   4.129   4.548  11.754 -0.0776  0.1002  0.2330
28121W        W44255  15.628   9.615  12.996 -0.0912 -0.0440  0.1239
28122W        W44256   4.616  17.497   2.698 -0.0748  0.0821  0.1849
28123W        W44257  10.125   3.264   5.402  0.0015 -0.2762 -0.0710
28124W        W44258   3.352  11.457   1.967  0.0321 -0.2992 -0.1482
28125W        W44259  16.073  11.946  14.566  0.0387  0.2017 -0.0888
28126W        W44260  12.277  12.152   3.762  0.0952 -0.0106  0.1202
28127W        W44261   0.511   7.999   1.256  0.1811  0.1228 -0.0869
28128W        W44262   8.377   3.142   3.014  0.1917  0.2719 -0.2281
28129W        W44263   4.119   4.036  15.441 -0.0581  0.0114  0.0607
28130W        W44264  18.170   5.025  14.100 -0.3392 -0.1488  0.0182
28131W        W44265   9.382   2.118   0.770  0.0246  0.0685  0.0878
28132W        W44266  10.825  12.361  12.352  0.0387  0.2739 -0.2273
28133W        W44267  15.646  10.026  11.555  0.2123 -0.0970 -0.3068
28134W        W44268  16.319   6.832  15.360  0.0254  0.2157 -0.2126
28135W        W44269   8.741   4.399  14.779 -0.1763 -0.3371  0.4738
28136W        W44270  14.589   3.906  13.923 -0.2647 -0.1966 -0.0339
28137W        W44271  11.569  12.849   1.704 -0.2274  0.1669 -0.1685
28138W        W44272   9.061   6.415   0.658  0.3075 -0.2951  0.2010
28139W        W44273  14.001   0.381  13.073 -0.3158 -0.1279  0.0050
28140W        W44274   2.970   3.638  15.791  0.1661  0.3042 -0.0738
28141W        W44275   3.441   1.275   0.622 -0.2851  0.0484  0.1598
28142W        W44276  10.585  17.381  11.491 -0.0233  0.1049  0.0305
28143W        W44277  12.465   4.231   4.874  0.1463 -0.0113  0.2217
28144W        W44278   6.785   8.768  10.835 -0.0374  0.0676  0.0883
28145W        W44279  18.370  10.916   4.227 -0.0816 -0.0786  0.1141
28146W        W44280  12.984   2.188   1.107  0.2027  0.1486 -0.0874
28147W        W44281  15.371  15.552  13.452 -0.3432 -0.0913 -0.0589
28148W        W44282  13.707  13.338  10.712  0.1926 -0.1478 -0.1902
28149W        W44283   2.368   6.559  14.888  0.1731 -0.2354 -0.0782
28150W        W44284   2.700  13.633  12.199  0.3107  0.2235 -0.0221
28151W        W44285   7.705  15.447   1.161 -0.1036  0.0416  0.2590
28152W        W44286  11.569  17.577   3.276  0.2546 -0.4190  0.1798
28153W        W44287  12.491  10.101   3.089  0.1690 -0.3677  0.0607
28154W        W44288   6.089  10.262   1.006 -0.1284 -0.1812  0.0156
28155W        W44289  13.792  11.945  11.499  0.3851 -0.3068 -0.1119
28156W        W44290  10.724   1.776  12.678 -0.2954  0.0670 -0.0531
28157W        W44291  17.540   8.650   0.788  0.0545 -0.3721 -0.2532
28158W        W44292   7.725  14.457   2.072  0.1541  0.1863 -0.1213
28159W        W44293  16.196   4.347   5.571 -0.1078  0.1886  0.0899
28160W        W44294   1.630   7.974   4.327 -0.1893 -0.2075 -0.1798
28161W        W44295   5.001   4.804  11.606  0.3173  0.0328 -0.1443
28162W        W44296   5.586  17.506   0.547  0.2597  0.1418  0.1262
28163W        W44297   7.667  18.393   4.565  0.2127 -0.2182 -0.1187
28164W        W44298  11.248   1.712   5.604  0.0543 -0.2562 -0.0498
28165W        W44299   9.440  18.394  14.057  0.1628  0.2610 -0.5312
28166W        W44300   8.861  14.038   2.280  0.0612 -0.0737  0.1674
28167W        W44301   5.581   3.275   4.441  0.0989  0.0640  0.2435
28168W        W44302   1.138   8.010  10.222  0.1485  0.0875  0.0496
28169W        W44303   1.890  14.746   5.995 -0.0322 -0.0228  0.1433
28170W        W44304   4.832   8.992  12.579  0.1945 -0.1265 -0.0505
28171W        W44305  15.769  14.475  12.616 -0.2821  0.0973  0.0873
28172W        W44306   4.522   5.222   3.465  0.0034  0.4530  0.0517
28173W        W44307   7.537  14.805   1.083 -0.1511  0.3301 -0.0217
28174W        W44308  10.540  15.330  13.018 -0.0804 -0.1647  0.0935
28175W        W44309   1.082  12.799   1.534 -0.1339  0.2388  0.0057
28176W        W44310  14.908  11.440  13.433  0.0546 -0.0125 -0.2088
28177W        W44311  15.712  13.912   0.006 -0.0096  0.1398  0.0585
28178W        W44312   1.786  16.820   4.351 -0.0630  0.2448  0.2617
28179W        W44313  14.192   5.733   2.103 -0.2214 -0.2596 -0.1450
28180W        W44314   3.028  10.334  14.605  0.1045 -0.1615 -0.0263
28181W        W44315   1.626   2.532  15.084  0.0488 -0.0822  0.0740
28182W        W44316  14.943  11.132   3.621  0.1455  0.3831  0.1224
28183W        W44317  16.451   7.385   1.725  0.4456  0.1693  0.2610
28184W        W44318   9.657  12.929  12.504  0.1016 -0.3286 -0.0159
28185W        W44319  17.444  14.889   0.298 -0.0204  0.6693 -0.0747
28186W        W44320   5.457   5.810   4.597  0.2365 -0.1478 -0.0045
28187W        W44321   2.040   8.216  10.383  0.0886  0.1310 -0.0726
28188W        W44322  14.411  11.846   2.478  0.1106  0.2661 -0.0810
28189W        W44323  15.696  14.183  13.952 -0.0068 -0.0535  0.1714
28190W        W44324   9.856   7.384   3.786  0.2967  0.2062 -0.0010
28191W        W44325  14.307   2.465  15.189 -0.0336  0.3185  0.1188
28192W        W44326  11.677  15.940   0.804 -0.0332 -0.1710 -0.1307
28193W        W44327   1.519  14.812   3.753 -0.2082  0.0682  0.0993
28194W        W44328  12.464   8.520   5.387  0.1269 -0.0602 -0.0164
28195W        W44329  18.004   0.519   3.100  0.0645 -0.1851 -0.0557
28196W        W44330  14.918   2.392  11.446 -0.2779 -0.1754  0.0302
28197W        W44331   3.921   0.924   4.149 -0.1570  0.0227  0.3291
28198W        W44332  12.386  12.135  11.880  0.1268 -0.0542 -0.0214
28199W        W44333  17.188  17.881  11.666  0.0053 -0.0682 -0.1660
28200W        W44334   6.767   3.244  12.158  0.1804 -0.3242 -0.1218
28201W        W44335  16.548  16.168  14.696  0.0263 -0.1248 -0.1004
28202W        W44336   1.777  12.210   5.476  0.1950 -0.2387  0.1673
28203W        W44337  13.692  15.680  12.859  0.2497  0.2004 -0.0653
28204W        W44338  14.022   9.707  14.554  0.2329  0.2617 -0.1668
28205W        W44339   8.815   4.942   2.123  0.0361 -0.2708 -0.0442
28206W        W44340   5.505  14.659  15.105 -0.1093  0.0930 -0.0738
28207W        W44341  15.606   0.587   2.282  0.1340 -0.3170  0.3035
28208W        W44342   5.626   4.459   1.638 -0.0400  0.0669 -0.0180
28209W        W44343  10.861   0.561  12.028 -0.0052 -0.2180 -0.1517
28210W        W44344  16.265  16.722   0.338  0.0559  0.0637  0.3928
28211W        W44345  11.658  15.622  14.143  0.3254  0.0856 -0.1986
28212W        W44346  10.265  18.228   2.672 -0.0503  0.0838 -0.2653
28213W        W44347  10.945   0.441   5.124 -0.0532  0.1450  0.0302
28214W        W44348  11.774   6.667   4.671  0.0826  0.0323  0.0455
28215W        W44349  16.106  16.329   4.752  0.2531  0.3784 -0.0802
28216W        W44350   0.469   3.471   1.718  0.1298 -0.1192  0.3613
28217W        W44351   5.808  18.420  15.828  0.1967  0.0013 -0.0440
28218W        W44352  12.529  14.658   0.580  0.0908  0.0803 -0.0039
28219W        W44353   1.802   5.865   1.403 -0.0079  0.4834  0.0642
28220W        W44354   3.584  16.377   0.298  0.0115  0.1091 -0.0869
28221W        W44355   9.957   7.731   0.243 -0.2311 -0.2802  0.3172
28222W        W44356   9.938  12.528  12.799  0.2465 -0.0985 -0.0083
28223W        W44357  11.324   5.784   6.836  0.1719  0.0249 -0.1625
28224W        W44358   2.983  10.518  13.418 -0.2522  0.2836  0.0647
28225W        W44359  11.417   9.112  16.033  0.1971 -0.1975  0.1925
28226W        W44360   3.243   4.653  12.180  0.0815 -0.1199 -0.1203
28227W        W44361   0.975  12.843  14.356  0.0611 -0.1494 -0.1730
28228W        W44362  12.034  14.334   3.540 -0.0293 -0.1782  0.1209
28229W        W44363  18.228  14.757   3.300  0.2637  0.1553 -0.4290
28230W        W44364   8.983  14.761  12.971  0.2575 -0.1225  0.2728
28231W        W44365   8.891  13.965  13.816  0.1676 -0.0784 -0.1151
28232W        W44366   2.528  16.735  13.515 -0.0079 -0.2542 -0.1507
28233W        W44367   5.383  10.573  11.948 -0.2381  0.3512  0.2281
28234W        W44368  14.727  12.549  11.948 -0.2454  0.0178  0.0456
28235W        W44369   9.873  11.006  13.533 -0.1504  0.0934  0.1894
28236W        W44370  17.044  15.080  13.051 -0.2304 -0.0941 -0.2437
28237W        W44371  17.351   6.931  15.210 -0.2167 -0.2378  0.1412
28238W        W44372   1.422   1.871  11.658 -0.4436 -0.0242  0.0788
28239W        W44373  18.228  10.703  13.855 -0.1840  0.0649  0.1825
28240W        W44374   0.085   5.419   4.374  0.0308  0.3154  0.0195
28241W        W44375  10.240   3.715  13.534 -0.0496  0.0397 -0.0543
28242W        W44376   6.195   1.658  13.991 -0.1082  0.0687 -0.0341
28243W        W44377   1.467   5.439   1.515 -0.4169 -0.0443 -0.4777
28244W        W44378   4.918  17.402  11.336 -0.2129  0.1669 -0.1315
28245W        W44379  11.548   7.045  12.346  0.1935 -0.0706  0.2367
28246W        W44380   1.610   7.417   0.611  0.1093 -0.1283 -0.2019
28247W        W44381   5.388  13.299  13.196  0.0184  0.2275 -0.0511
28248W        W44382   5.096   4.730  14.489 -0.0144 -0.1715  0.0595
28249W        W44383  11.869   5.773   1.597  0.0681 -0.1883 -0.1835
28250W        W44384  15.978  16.353  13.988 -0.1916 -0.0395 -0.2084
28251W        W44385  12.331   2.285  13.853  0.3439 -0.2754  0.0306
28252W        W44386  14.547  12.748   5.233  0.0245 -0.0114 -0.0777
28253W        W44387  14.434  13.506  14.498  0.0205  0.1346  0.2800
28254W        W44388  11.773  11.089   2.702  0.0199  0.0558  0.1132
28255W        W44389   1.278   2.314   1.590  0.2753 -0.1034 -0.0474
28256W        W44390   6.513  13.194  14.177 -0.0711 -0.0951 -0.0374
28257W        W44391   7.299  11.341   3.555 -0.2737 -0.0549  0.2871
28258W        W44392  16.613  10.503  12.208  0.4693  0.0411  0.1621
28259W        W44393   4.613   5.739  15.313 -0.0858 -0.1903  0.2838
28260W        W44394   5.963  16.289  12.149 -0.1232  0.0739 -0.1015
28261W        W44395   0.445   7.897   5.041  0.0533 -0.2651 -0.2757
28262W        W44396   7.154  15.954  12.606  0.3368  0.0659  0.3962
28263W        W44397   7.051  14.526   1.894 -0.0782  0.0965  0.2303
28264W        W44398  11.103   6.651   5.754  0.0472  0.1353  0.2355
28265W        W44399  12.143  10.800   1.407  0.2432 -0.0669 -0.1444
28266W        W44400   2.510  13.425  11.133  0.0514  0.0130  0.2369
28267W        W44401  10.976   0.159   1.995  0.2419  0.1036 -0.1246
28268W        W44402  12.874  16.026  12.797  0.2268 -0.0218 -0.1430
28269W        W44403   3.716  12.376  13.895 -0.0130  0.1319  0.0502
28270W        W44404   2.628   3.830   0.693 -0.0159  0.6306  0.0846
28271W        W44405   1.087  14.024  13.507 -0.1618  0.0174 -0.1730
28272W        W44406  18.166   1.846   2.720 -0.0259 -0.1149 -0.0608
28273W        W44407   1.953   8.333  15.735 -0.2217  0.1517 -0.0848
28274W        W44408   5.524  14.772  15.635 -0.1679  0.0589  0.1953
28275W        W44409   6.126   6.619  15.155  0.0130  0.1189 -0.1414
28276W        W44410   0.316   5.667   0.164  0.1094 -0.0873 -0.1271
28277W        W44411  16.345  14.814   1.665  0.0138 -0.0011  0.3727
28278W        W44412  17.008   0.834  12.025  0.3346 -0.0074 -0.1616
28279W        W44413   6.225  17.594   5.248  0.1358  0.0621 -0.4519
28280W        W44414   3.727   7.339   9.997 -0.0717 -0.0094 -0.2612
28281W        W44415  13.890   9.197   0.892  0.0241  0.0869 -0.1614
28282W        W44416   3.168   6.363  13.016  0.1181  0.0955 -0.1300
28283W        W44417  15.501  12.614  11.361  0.0098 -0.3072  0.2791
28284W        W44418  13.935  17.180   2.601 -0.2910  0.2136  0.0285
28285W        W44419  15.040  12.098  10.277 -0.3696 -0.1874 -0.0816
28286W        W44420   3.105   2.110  13.846  0.0645  0.0777 -0.2287
28287W        W44421  16.832   8.008  12.197 -0.0566 -0.0146  0.2548
28288W        W44422   0.319   3.352   4.937  0.1123 -0.0785  0.0926
28289W        W44423   3.718   3.838  12.563 -0.0332  0.1228 -0.0203
28290W        W44424   1.327   2.827   0.147  0.1319 -0.1203  0.1234
28291W        W44425   6.430   7.074  12.569 -0.3156 -0.2845 -0.0408
28292W        W44426   0.225  18.104  11.973  0.1782  0.0263  0.0177
28293W        W44427   8.226  16.423   5.150  0.1088  0.0631 -0.0943
28294W        W44428   9.031   4.634   5.536 -0.0495 -0.1876  0.1505
28295W        W44429  13.653   7.624   2.782  0.0271 -0.5343  0.0650
28296W        W44430  14.450  14.918  11.810  0.0425 -0.2400 -0.0598
28297W        W44431  11.756   3.366  13.384  0.0292  0.1631  0.1363
28298W        W44432  12.695  13.340   1.572  0.2827  0.0667  0.2229
28299W        W44433   3.556   9.202  11.955  0.1671 -0.0591 -0.1408
28300W        W44434   7.180  17.372  15.408  0.1222  0.0745 -0.1435
28301W        W44435   0.134   2.045  13.505 -0.3614  0.2546  0.0976
28302W        W44436  17.643   4.123  11.800 -0.1632  0.0068 -0.0373
28303W        W44437   9.564   6.313   3.249 -0.0784 -0.0326 -0.2268
28304W        W44438  14.957  18.399  13.792  0.1129 -0.3365  0.2686
28305W        W44439   7.836   1.467  15.929 -0.0864 -0.0775  0.1955
28306W        W44440  18.096   1.516  13.273  0.3323 -0.2384  0.2704
28307W        W44441   3.026   3.606  12.028 -0.2333 -0.0127 -0.1979
28308W        W44442   6.931  12.314   1.957 -0.1315 -0.0995  0.1706
28309W        W44443   9.745  18.474  15.008  0.1037 -0.2199  0.0393
28310W        W44444  11.492   8.831  12.986  0.3375 -0.0422 -0.1938
28311W        W44445  18.363   9.198   3.639  0.0484 -0.3430  0.0397
28312W        W44446   2.387  14.613  13.454 -0.2920  0.0721  0.0868
28313W        W44447  15.147  12.191   4.756  0.2106  0.1278 -0.0840
28314W        W44448   5.097   2.370  12.649  0.1104  0.1683  0.0148
28315W        W44449   2.011  17.108  11.470 -0.0213 -0.3888 -0.1949
28316W        W44450  13.566   5.398   5.728 -0.2363 -0.0180  0.0215
28317W        W44451   1.113  14.948  14.344 -0.1716 -0.1522 -0.0686
28318W        W44452   8.649   9.224  15.054 -0.1449  0.0815  0.0338
28319W        W44453  11.035  13.442   1.505  0.1386  0.2172 -0.1140
28320W        W44454  14.795   7.841   4.865  0.2746  0.0697  0.3271
28321W        W44455   5.699  18.264   3.536 -0.2240 -0.0446  0.2547
28322W        W44456   4.919   5.128   3.987 -0.0612 -0.0932 -0.1247
28323W        W44457  18.493   8.033   2.506  0.3264 -0.0019  0.2170
28324W        W44458  13.129   2.726   1.424  0.1134  0.1445  0.0456
28325W        W44459   7.413   2.472   2.834 -0.1387  0.2421 -0.2460
28326W        W44460  12.021   2.455   1.016 -0.0721  0.3015 -0.0641
28327W        W44461  13.853  13.539   2.112 -0.1904 -0.0552 -0.2122
28328W        W44462   2.532  10.470   4.631  0.1723  0.3375  0.1768
28329W        W44463   9.667   0.646   5.319 -0.2243 -0.0377  0.1104
28330W        W44464  14.780   4.504   1.421  0.2056  0.1971  0.1694
28331W        W44465  15.012   1.570  10.939 -0.3951  0.0258  0.0761
28332W        W44466   7.486   1.597   1.177  0.0897  0.0599 -0.1154
28333W        W44467   2.581  14.501  10.675  0.0712 -0.4040  0.1819
28334W        W44468  11.068   4.853   0.358 -0.5629 -0.0853 -0.0687
28335W        W44469   6.695  18.032  12.713  0.2026  0.1279 -0.0071
28336W        W44470  12.130   3.176  13.035 -0.1152 -0.2968 -0.0367
28337W        W44471   0.921   1.050   3.624 -0.1832 -0.1782  0.0747
28338W        W44472  11.336  17.658   1.488  0.2095  0.1741 -0.2698
28339W        W44473  10.762  11.650  15.852  0.0717  0.1494  0.2690
28340W        W44474  15.311   8.234   1.871  0.4013  0.0149  0.2934
28341W        W44475  11.887  18.462   4.892 -0.2673  0.0925 -0.1455
28342W        W44476   6.176  17.482  13.258 -0.0882  0.1280  0.1157
28343W        W44477   1.478  10.103  11.832  0.0343 -0.1552  0.2832
28344W        W44478  16.498   3.397   0.005 -0.0718 -0.1606 -0.0966
28345W        W44479   6.693  15.463   3.907 -0.1033  0.4670  0.2769
28346W        W44480   2.881  17.609  12.337 -0.1061 -0.0441  0.0426
28347W        W44481   9.968  12.674  14.132  0.2252 -0.0625  0.0121
28348W        W44482  13.206  18.433   5.011  0.1490  0.1422 -0.0317
28349W        W44483   7.969   8.332  13.825  0.0570  0.1846  0.0024
28350W        W44484  16.449  12.134  10.629  0.0317 -0.2903 -0.0019
28351W        W44485   8.265  15.873   1.319 -0.1332 -0.0959  0.0648
28352W        W44486  14.993  14.409   1.893 -0.0678  0.2719 -0.1950
28353W        W44487  13.563   5.806   2.749  0.0629 -0.1054  0.2218
28354W        W44488  12.507  11.397   1.674 -0.0598  0.0434 -0.6770
28355W        W44489   6.058   5.760   0.505  0.2175 -0.4098  0.1935
28356W        W44490   0.510   0.188  15.853  0.0484 -0.2945 -0.1074
28357W        W44491  14.095  10.868  11.543  0.0070  0.2055  0.0517
28358W        W44492   2.231   0.262   0.800  0.1431  0.1168 -0.2690
28359W        W44493   9.731   2.450   4.180  0.1544  0.2128  0.1673
28360W        W44494  10.166   6.768   2.613 -0.1337  0.3487 -0.0447
28361W        W44495  16.492  17.848  11.257  0.3127 -0.1264  0.4741
28362W        W44496   2.049   6.051   4.179  0.0674 -0.0696 -0.1905
28363W        W44497  14.314  12.301   1.894  0.3274  0.3984 -0.3282
28364W        W44498   6.876  15.058  13.800  0.3288  0.0600  0.2976
28365W        W44499   6.661   8.412  12.666 -0.0360 -0.2460  0.2922
28366W        W44500  13.093  11.159   1.197  0.0176 -0.0455 -0.1428
28367W        W44501  12.862   3.005  15.078  0.1318  0.2099  0.2577
28368W        W44502   0.757   8.509  15.418 -0.3802  0.1311 -0.1018
28369W        W44503   8.870  17.729  12.825  0.0302  0.2340 -0.3167
28370W        W44504  10.692  17.254   4.637 -0.0585  0.0008  0.1911
28371W        W44505   2.954   3.347   1.277  0.1092 -0.1464 -0.2270
28372W        W44506   2.194  10.428   3.213 -0.0216 -0.2021  0.2229
28373W        W44507   2.358   1.249  12.486 -0.0179 -0.0057 -0.2926
28374W        W44508   6.152  10.141   1.499 -0.1211  0.4063  0.1890
28375W        W44509   7.627  12.235   0.021  0.0101 -0.3787  0.0912
28376W        W44510   2.931   0.506  12.045 -0.1886 -0.1864 -0.0498
28377W        W44511  13.595   0.673  13.220 -0.1235 -0.0666  0.3036
28378W        W44512   1.367   1.935   4.492 -0.0983 -0.0030 -0.0883
28379W        W44513   0.139  14.151   3.960  0.0721 -0.2490 -0.0932
28380W        W44514   4.945   5.300   3.016  0.0368 -0.2323  0.0824
28381W        W44515   1.716   5.171  13.982 -0.1369 -0.0623 -0.2237
28382W        W44516   1.611  10.327   2.229 -0.1056  0.0572 -0.0880
28383W        W44517   6.481   1.885  15.742 -0.0100 -0.1296  0.5519
28384W        W44518  14.907   2.093   0.759  0.0838  0.1320  0.1328
28385W        W44519   0.200  15.659  12.832  0.1707  0.0993  0.3015
28386W        W44520  11.405  10.491  14.073 -0.2239  0.2861 -0.2349
28387W        W44521  14.347   6.261   4.122 -0.0835  0.4403 -0.2620
28388W        W44522   8.519  13.553   4.492 -0.2201 -0.2123  0.0771
28389W        W44523  15.364   8.876  11.103 -0.0548 -0.2452  0.2761
28390W        W44524  17.834   2.730  10.980 -0.1202 -0.0541 -0.1524
28391W        W44525  10.626  18.332  13.181 -0.1304  0.2101 -0.1756
28392W        W44526  10.632  10.410   1.987  0.1676  0.3061 -0.1814
28393W        W44527   6.274   3.494  10.799 -0.1657  0.0180  0.0092
28394W        W44528   5.935  11.593  14.321  0.2284  0.2040  0.2619
28395W        W44529   5.840   9.902   0.639 -0.2229  0.0192  0.1204
28396W        W44530   6.619  16.982   3.262  0.3276  0.1721 -0.0648
28397W        W44531  13.785  15.670  11.441  0.3574 -0.5780 -0.3431
28398W        W44532   4.656   3.495   2.809 -0.1179 -0.0649  0.1020
28399W        W44533   8.717  17.089   3.321  0.1123 -0.1075  0.0027
28400W        W44534  10.923   9.500   2.235 -0.1346  0.1541  0.0868
28401W        W44535   3.230  10.062  13.296  0.0767 -0.1547  0.0109
28402W        W44536  17.841  11.352  11.701  0.1634  0.0671  0.1583
28403W        W44537  10.537   0.232  12.212  0.0512 -0.1424 -0.2301
28404W        W44538  13.312  18.108   6.036 -0.0880 -0.2742 -0.2559
28405W        W44539  16.330  14.795  13.438 -0.0926  0.1244  0.0254
28406W        W44540  15.437   8.506  15.700  0.0740  0.0327  0.0763
28407W        W44541   0.330   8.980  10.715  0.2067 -0.1844 -0.2083
28408W        W44542   8.429   7.294   6.202 -0.0679  0.4014  0.1175
28409W        W44543   7.264   1.754   2.151  0.2053  0.1221  0.0492
28410W        W44544  10.586  10.613   3.383 -0.0308 -0.4295 -0.2282
28411W        W44545  18.422   1.368   3.830 -0.3523  0.0387 -0.1714
28412W        W44546   8.899  12.702  15.642 -0.4091 -0.0421 -0.0601
28413W        W44547  12.804  14.953   2.305  0.0656 -0.1411 -0.0104
28414W        W44548   3.192   3.094   4.866  0.0989  0.0595  0.0022
28415W        W44549  14.211  17.962  13.341 -0.0977  0.2232  0.1033
28416W        W44550   9.877  11.694   1.203  0.0087  0.3677  0.1112
28417W        W44551   5.628   7.952   3.285  0.0927 -0.1717 -0.0752
28418W        W44552   4.576  12.495   2.993  0.0008 -0.0455 -0.4222
28419W        W44553   0.776  16.418   3.271  0.2191 -0.0882 -0.1089
28420W        W44554  14.909  14.157   5.628  0.1012  0.2069  0.0513
28421W        W44555   1.412   2.804   3.900 -0.0331  0.1090  0.3886
28422W        W44556   3.491   1.834   4.352  0.2766  0.0478  0.1272
28423W        W44557   8.063  13.419  14.997  0.2967 -0.1572  0.0233
28424W        W44558   5.483   2.049  13.427  0.2198  0.4494 -0.3012
28425W        W44559   8.798   3.329  12.994 -0.1010 -0.1908 -0.2273
28426W        W44560   7.698  13.810  14.879 -0.2554 -0.1422  0.0942
28427W        W44561   7.825  10.448   3.172  0.0887 -0.0729  0.0535
28428W        W44562  11.959  14.592   4.202  0.0863 -0.5627  0.0593
28429W        W44563  16.761  16.206  13.632 -0.0696  0.1812  0.0665
28430W        W44564   3.909   7.365  15.240  0.0932 -0.0324 -0.1298
28431W        W44565   9.793  12.206  15.482 -0.2845 -0.1415  0.1284
28432W        W44566  15.117   7.795  13.305 -0.0646  0.0222  0.3701
28433W        W44567   5.442  12.103   2.989  0.0487  0.3451  0.1427
28434W        W44568  18.333  10.886   9.615  0.0528  0.0587 -0.0727
28435W        W44569  15.566  16.713   1.047  0.0563  0.1332 -0.2059
28436W        W44570   5.119   3.824   3.460 -0.1393  0.1874  0.0192
28437W        W44571  12.202  15.190  14.739 -0.2255 -0.2373  0.3309
28438W        W44572   9.528  15.869   3.622  0.0048 -0.1338 -0.2399
28439W        W44573   3.658   7.671   4.995 -0.0675 -0.3030  0.0592
28440W        W44574   8.239   3.095   4.249  0.0035  0.0780 -0.2347
28441W        W44575  17.489   1.472  12.293  0.0021 -0.1666  0.2564
28442W        W44576   7.586   4.022   3.880 -0.1664  0.4644 -0.1494
28443W        W44577  11.544  12.177   4.889 -0.1792  0.0296 -0.0175
28444W        W44578  12.208   3.613   2.772  0.0034  0.0016 -0.2214
28445W        W44579   9.817   7.017   1.459  0.1405 -0.0369  0.3479
28446W        W44580  13.678   4.893  15.302 -0.0087 -0.0979  0.4156
28447W        W44581  17.059  14.920  10.678  0.1939  0.2161  0.0659
28448W        W44582  14.378   4.697  13.211 -0.0104 -0.0078 -0.1007
28449W        W44583   6.267   4.429   6.119  0.1247  0.0895 -0.1063
28450W        W44584   4.748  15.255   1.924 -0.0059  0.0947 -0.1942
28451W        W44585   8.264  11.483  11.476  0.1945 -0.0247 -0.3062
28452W        W44586  14.931  10.122  13.093  0.1118  0.1684 -0.1190
28453W        W44587  17.333   2.120   2.378 -0.0225  0.0225 -0.0256
28454W        W44588  16.571   5.170   0.439 -0.1580 -0.1241  0.1824
28455W        W44589   9.973   9.378  13.721  0.0860  0.2652 -0.0815
28456W        W44590   6.233   1.090   5.680  0.1750 -0.1967 -0.1913
28457W        W44591   8.603  16.606   3.100  0.0558  0.0050  0.1453
28458W        W44592   8.142   2.849  14.129  0.0203 -0.2344 -0.0776
28459W        W44593  13.862   2.769   2.626  0.2338 -0.2982 -0.0804
28460W        W44594   2.185   4.491   5.360 -0.2602  0.0487  0.3219
28461W        W44595   3.354  12.266  12.946 -0.2283 -0.1190  0.5157
28462W        W44596   6.458  14.531   0.553 -0.0696 -0.1932 -0.0819
28463W        W44597  18.387   5.402   0.199 -0.1803 -0.0002  0.1285
28464W        W44598  17.667   1.911  14.241  0.1758 -0.3398 -0.2866
28465W        W44599   4.563  12.850  13.101 -0.1317  0.0444 -0.4989
28466W        W44600   6.643   4.769   0.032 -0.3019  0.1111  0.3933
28467W        W44601  11.439   9.981   1.756 -0.0009 -0.1204 -0.1317
28468W        W44602   2.655   3.743  13.270  0.2868  0.0563  0.2398
28469W        W44603   0.956   9.905   5.107  0.1135  0.1487  0.0355
28470W        W44604   4.331   8.236  15.946  0.1621 -0.1230  0.2346
28471W        W44605   3.016   5.422  10.460  0.1711 -0.0791 -0.1723
28472W        W44606  13.201  16.414  12.094 -0.1225 -0.0890 -0.1754
28473W        W44607   1.363  16.155  11.844  0.0090 -0.0486 -0.1597
28474W        W44608  10.469  18.333   4.572  0.2294 -0.0748 -0.0891
28475W        W44609  16.515  12.016  11.671  0.0513 -0.0020 -0.1298
28476W        W44610  17.467  15.869  11.930  0.1534  0.2377  0.2164
28477W        W44611   9.850  13.949   5.804  0.0517  0.1656 -0.5126
28478W        W44612   6.989  11.595   3.282  0.0196 -0.0352  0.0435
28479W        W44613  10.379   2.812   4.674  0.0246 -0.1865 -0.0271
28480W        W44614  13.231   0.300  12.453  0.0780  0.1922  0.2066
28481W        W44615  11.672   6.887   3.004 -0.3407 -0.0582  0.0280
28482W        W44616   5.205   1.324  11.269  0.1539 -0.0567 -0.0937
28483W        W44617   4.457  11.807  11.642  0.0764 -0.2927 -0.2635
28484W        W44618   6.727  12.458  13.479  0.2011 -0.1718  0.0969
28485W        W44619  18.370   8.972   1.197 -0.0674  0.0838 -0.0213
28486W        W44620  14.211   7.509  12.811  0.0085  0.0826  0.1200
28487W        W44621  17.338   0.214   0.471 -0.0715 -0.0396  0.1310
28488W        W44622   2.307   0.145   4.024  0.2759  0.1543  0.1284
28489W        W44623   2.253  16.206   2.574 -0.3162 -0.2295 -0.0836
28490W        W44624   7.045   2.127  16.009  0.0089 -0.1236 -0.2018
28491W        W44625   7.397  13.836  13.921 -0.0018  0.1790 -0.1000
28492W        W44626  12.410  16.065   0.064  0.2809 -0.1261 -0.2893
28493W        W44627   3.391  17.023  15.894 -0.0453  0.1344  0.2057
28494W        W44628   2.108  17.536   1.039 -0.1952 -0.1307  0.3291
28495W        W44629   5.423   2.084  14.356  0.2176  0.2579 -0.1436
28496W        W44630  14.418   8.027  14.745 -0.1131  0.1819 -0.0671
28497W        W44631   3.423  14.092  12.011 -0.0278  0.0323 -0.0451
28498W        W44632   6.978   4.991   6.037 -0.0285  0.3367 -0.1304
28499W        W44633  12.994  15.727   3.037 -0.0626  0.1160 -0.1197
28500W        W44634  17.244  16.800   5.184  0.2998  0.0377  0.1343
28501W        W44635   0.275   5.839   3.048  0.2619 -0.1900  0.0509
28502W        W44636  17.017   8.086  13.659 -0.0709 -0.1384  0.1599
28503W        W44637   1.169  18.044  11.574 -0.1415 -0.2808 -0.1280
28504W        W44638   3.520  11.287  13.134  0.1987  0.1324  0.1068
28505W        W44639  10.712   6.164  14.113 -0.0440 -0.0048  0.1129
28506W        W44640   3.050  14.613  10.531  0.0033 -0.0553  0.1423
28507W        W44641   8.758  10.085  11.070 -0.1589  0.1503  0.2757
28508W        W44642   5.734   3.285  12.764  0.2204 -0.1195  0.2309
28509W        W44643   2.843  13.715  10.851  0.2423 -0.1426 -0.2239
28510W        W44644   6.551   2.279  15.986 -0.0469  0.4134  0.1098
28511W        W44645  12.616  16.042   6.061  0.1145  0.0557 -0.0577
28512W        W44646   2.691   2.179   3.949 -0.1321 -0.3326 -0.0213
28513W        W44647  10.631   0.333   0.452 -0.2281 -0.0977 -0.0910
28514W        W44648   3.295   9.513   1.660  0.0823 -0.0428 -0.2432
28515W        W44649   5.540   6.205   4.959  0.2330  0.0618  0.0109
28516W        W44650  12.897  18.309   3.616  0.1582 -0.0860 -0.0261
28517W        W44651  13.163   1.034   4.518 -0.0993 -0.2045 -0.0506
28518W        W44652  10.726  13.232   5.182 -0.2187  0.2216  0.1144
28519W        W44653  13.233   5.889  14.325 -0.2685 -0.1122  0.2019
28520W        W44654  13.534   1.622  12.982 -0.2038 -0.1396 -0.1401
28521W        W44655   9.011   0.329   3.695  0.2241 -0.2614  0.2052
28522W        W44656  10.349  14.426   2.154  0.0114 -0.0382  0.1309
28523W        W44657   8.943   0.998  15.042  0.0655 -0.1224  0.2337
28524W        W44658   7.847  15.736   0.227 -0.1291  0.1637 -0.1894
28525W        W44659  13.616  10.635   6.078  0.0431  0.0427  0.0451
28526W        W44660  14.669   6.316   3.699 -0.0592  0.1876  0.1894
28527W        W44661   4.727  18.271  14.926  0.1032 -0.0016  0.0277
28528W        W44662  12.222   0.837   1.915 -0.2115  0.4539  0.2709
28529W        W44663  12.408  11.170   3.833  0.0081  0.0113 -0.1301
28530W        W44664   9.675  11.348  15.882 -0.2281 -0.1409  0.3453
28531W        W44665   7.141  15.003   4.544  0.0431  0.1939 -0.0841
28532W        W44666  12.341   2.286   1.397 -0.2710 -0.3082  0.1043
28533W        W44667  12.744  12.376  14.337 -0.1625  0.3324  0.1582
28534W        W44668  13.233  17.835   1.775 -0.3362 -0.2284  0.3063
28535W        W44669  11.136   9.542   4.320 -0.1457  0.1023  0.0492
28536W        W44670   7.353   1.227   3.375  0.0600 -0.2174 -0.0191
28537W        W44671   8.442   4.491   4.861  0.1022  0.2937  0.1014
28538W        W44672   7.270   0.923  11.492  0.1618 -0.2057  0.2439
28539W        W44673  17.269  10.825   0.192 -0.1434  0.0876  0.1969
28540W        W44674  17.401  11.390   1.804 -0.1196  0.0434  0.3227
28541W        W44675   9.957  11.413   0.236  0.0049 -0.3100  0.1168
28542W        W44676   1.821   1.399   2.525 -0.1881  0.0923  0.0240
28543W        W44677   2.013   6.770   0.256 -0.1564 -0.0147 -0.1202
28544W        W44678   2.649  10.512   0.923  0.3761 -0.3180 -0.1032
28545W        W44679   7.763  16.490  11.748  0.0175  0.0439  0.1283
28546W        W44680  14.783  14.959   3.259  0.2135 -0.2301 -0.2191
28547W        W44681   0.077  18.078   0.305  0.0186 -0.2030  0.0446
28548W        W44682   9.217  14.314  13.001 -0.1175  0.0427  0.1113
28549W        W44683   5.619  15.642   1.985  0.2036 -0.2527 -0.1987
28550W        W44684   0.236  16.881  14.985 -0.2526  0.2039 -0.1010
28551W        W44685  13.303  10.955   5.802  0.2399 -0.1514  0.0106
28552W        W44686   4.008  11.500   5.211  0.1198  0.2475  0.0808
28553W        W44687   0.551  10.089  13.778 -0.2028  0.2922  0.0633
28554W        W44688   8.919  12.962   5.310  0.3375 -0.3607 -0.0957
28555W        W44689  13.912   5.975  11.704 -0.1204 -0.1091  0.2218
28556W        W44690   1.798   3.430  15.874 -0.1786  0.1401 -0.1014
28557W        W44691  16.440   3.908  11.171  0.2521  0.2652 -0.1722
28558W        W44692  11.542  11.035   0.682 -0.1287  0.2555 -0.1412
28559W        W44693   8.256  17.570  12.791  0.0680  0.4492 -0.0318
28560W        W44694  16.135   6.066  15.904  0.1509  0.0236  0.2890
28561W        W44695   5.683  10.958   1.844 -0.0099 -0.0505 -0.0296
28562W        W44696  10.522   0.661   2.674  0.4297 -0.0294 -0.0405
28563W        W44697   9.035   5.697   3.080 -0.1192  0.1686 -0.1390
28564W        W44698   1.672  10.660   1.487 -0.1344 -0.1630  0.1841
28565W        W44699  15.885  10.286   4.171  0.0449  0.1001  0.4020
28566W        W44700  11.184   1.884  12.460  0.3227  0.1793 -0.0503
28567W        W44701  17.604   0.207  12.719  0.0064 -0.2523  0.1661
28568W        W44702  11.255   6.041   5.011  0.2941 -0.0532 -0.3964
28569W        W44703  12.617   1.031   5.561  0.1672  0.2690  0.0106
28570W        W44704  15.702  12.731  13.050 -0.1639 -0.2864  0.1365
28571W        W44705  13.692  11.964   0.414 -0.2752 -0.1358 -0.0692
28572W        W44706   9.576   1.728  10.725 -0.1144 -0.0506 -0.3061
28573W        W44707   1.747  13.414   4.299 -0.2566 -0.2087  0.1624
28574W        W44708  16.622   4.384  14.065  0.2210 -0.3592 -0.0049
28575W        W44709   7.761   1.779   0.345  0.0698 -0.1527 -0.0297
28576W        W44710   2.680   4.572   4.175  0.1045  0.1737 -0.1426
28577W        W44711   1.079   1.283  15.619 -0.3373  0.2300 -0.1368
28578W        W44712  11.265   2.669  11.559  0.0771  0.2235  0.1881
28579W        W44713  14.183   3.126  14.204  0.0080 -0.2418  0.1277
28580W        W44714  15.758  16.465   1.627 -0.0903 -0.0395  0.0569
28581W        W44715   5.280   1.882  12.976  0.0740 -0.0915 -0.0761
28582W        W44716   8.128  10.114   1.460 -0.0434  0.0022  0.0719
28583W        W44717   2.836   1.080  13.807 -0.1242 -0.0300 -0.0266
28584W        W44718  17.424  13.255  12.186 -0.0001  0.0246 -0.2882
28585W        W44719  16.399   8.252  15.697  0.2899 -0.1700 -0.0191
28586W        W44720   1.900   9.253  13.806 -0.1299 -0.0026  0.0152
28587W        W44721  13.665  13.019   2.720 -0.3274 -0.0078  0.0823
28588W        W44722   1.154  10.581   2.974 -0.0634  0.0477 -0.0452
28589W        W44723   6.374   7.336  14.960  0.1481  0.0651  0.1514
28590W        W44724   0.179   7.703  15.996  0.0301  0.1261 -0.0786
28591W        W44725   7.334   9.339   1.342  0.1006  0.0717 -0.0009
28592W        W44726  16.683  13.815  10.798  0.2992  0.1304 -0.4057
28593W        W44727  15.727   0.888   3.862 -0.1523  0.1345  0.1045
28594W        W44728   1.558   3.890  15.584  0.2246  0.3967 -0.1721
28595W        W44729  16.509  16.232  14.044 -0.0406 -0.1448  0.0818
28596W        W44730   5.660   2.073  11.320  0.0407 -0.0691 -0.3177
28597W        W44731  12.981   9.889   1.780  0.1020  0.0314 -0.4067
28598W        W44732  14.736   9.005  15.657  0.1916  0.0376 -0.2661
28599W        W44733   3.918  11.556  12.918 -0.0284  0.3714 -0.0109
28600W        W44734  13.911   9.932  12.682  0.2427  0.0396 -0.0835
28601W        W44735  13.955   0.894   4.972 -0.0780  0.0735  0.1155
28602W        W44736   9.286  17.822   5.695  0.1611 -0.2031  0.1633
28603W        W44737  12.724   4.232   5.353 -0.2905 -0.1444  0.0460
28604W        W44738  16.843  11.584  12.289 -0.1574  0.1944 -0.2695
28605W        W44739   3.161  12.506   2.787 -0.0238  0.0846 -0.1104
28606W        W44740   9.049  17.404   3.100  0.2288  0.3173 -0.4849
28607W        W44741   7.039  10.390   0.081 -0.3355 -0.1595 -0.1003
28608W        W44742  16.153  15.831   4.526  0.1437  0.0711 -0.1824
28609W        W44743  15.956   5.478   4.294  0.0721  0.0187  0.1250
28610W        W44744   5.995   2.605   0.781 -0.0957  0.0144 -0.0956
28611W        W44745   5.101  13.046  11.712 -0.1895  0.1124  0.2944
28612W        W44746  16.324  10.880   2.983 -0.1808  0.4415  0.0771
28613W        W44747  14.922   9.876  14.246  0.0350  0.0171 -0.0764
28614W        W44748   1.582  16.733  13.913  0.2001  0.0003  0.4121
28615W        W44749  15.838   5.359  14.201 -0.3464  0.1001  0.0998
28616W        W44750   7.509   1.070  12.371  0.0286  0.3369  0.0795
28617W        W44751   3.631  13.780   1.108 -0.1290  0.1727  0.1154
28618W        W44752   3.165   8.026   0.071  0.0396 -0.1642 -0.0361
28619W        W44753   2.713   9.462  14.932 -0.1064  0.2770 -0.0190
28620W        W44754   1.439   9.751  12.561  0.0334  0.3203  0.0279
28621W        W44755   1.397   9.887   5.523  0.1037 -0.0664  0.1458
28622W        W44756   0.741  11.662  13.589  0.4158 -0.0891 -0.2520
28623W        W44757   8.984   0.820   3.726  0.1020 -0.4271  0.0087
28624W        W44758  14.233  17.529   0.143  0.2689  0.1926  0.0930
28625W        W44759   4.503   2.869  14.301  0.0570  0.3512 -0.0784
28626W        W44760   6.932   9.495  10.512  0.2086 -0.0646  0.3076
28627W        W44761  18.401  11.844   2.004 -0.1992 -0.2369  0.2065
28628W        W44762  12.174   9.009   4.520  0.0734  0.1681  0.0426
28629W        W44763   8.547  14.604  14.521 -0.3048  0.0373  0.0091
28630W        W44764  16.755  18.452   4.780 -0.0647 -0.2640  0.0494
28631W        W44765   1.014  15.317   0.598  0.2309  0.0304 -0.3099
28632W        W44766  13.575   5.225   1.834  0.0051  0.1693 -0.1189
28633W        W44767  11.750  15.298  15.564 -0.3302  0.0696  0.0015
28634W        W44768   6.413   5.082   2.248  0.0489  0.0668  0.2213
28635W        W44769   2.140  18.282   0.128  0.1307  0.0602 -0.0637
28636W        W44770   4.165   0.007   2.874  0.1658 -0.0815 -0.1320
28637W        W44771   7.611   4.671   0.895  0.2206 -0.0444  0.2338
28638W        W44772  13.937  13.399  13.094  0.3087  0.3101  0.2305
28639W        W44773  15.386   5.596  15.716 -0.1425 -0.0740 -0.2035
28640W        W44774  15.471   5.101  15.137 -0.1457 -0.1413  0.0700
28641W        W44775   6.778   5.483   0.985  0.0345  0.3180 -0.1653
28642W        W44776  14.791   1.139   3.840  0.0968  0.0177  0.0090
28643W        W44777   5.210   7.024  12.619  0.1627 -0.2127  0.1488
28644W        W44778   4.003  10.574  14.641 -0.0236  0.0892  0.2015
28645W        W44779  12.142   2.932  12.290  0.0210 -0.1054  0.2826
28646W        W44780  11.641   5.643   2.163  0.1586 -0.0736 -0.2177
28647W        W44781   6.076   5.747  11.515 -0.0927 -0.3765 -0.0970
28648W        W44782   4.641   6.801   2.335 -0.0790 -0.1606 -0.3119
28649W        W44783  10.239   7.562  15.372  0.0930 -0.1687  0.1802
28650W        W44784  18.310   2.711   4.279  0.0406 -0.1744  0.0110
28651W        W44785  16.698   8.742  14.792  0.0183  0.0177 -0.2661
28652W        W44786  10.482   2.632   4.188  0.2175  0.1652  0.0830
28653W        W44787   6.728   5.403   6.329  0.0677 -0.0556 -0.3848
28654W        W44788  17.618  11.207   0.231 -0.1967 -0.1314  0.0836
28655W        W44789   0.321   1.500   5.175 -0.2362  0.1831 -0.1665
28656W        W44790  12.743   0.371  13.668  0.0227  0.0347 -0.0532
28657W        W44791  13.529   7.031  11.325  0.0906 -0.3089  0.0944
28658W        W44792   3.391  10.745  12.694 -0.1225  0.1492  0.2897
28659W        W44793  16.215   2.963   2.310  0.2481 -0.1978  0.1580
28660W        W44794   6.883  15.979   0.503 -0.0717 -0.1797 -0.1322
28661W        W44795   5.071  11.272   3.012  0.1363  0.2913  0.0851
28662W        W44796  10.034   2.633   0.170  0.0915 -0.1544  0.3076
28663W        W44797   1.264   7.157   1.835  0.1676 -0.2224 -0.0609
28664W        W44798  14.023  11.012   0.411 -0.2210  0.0047 -0.0811
28665W        W44799  13.894   3.806  15.010 -0.0025  0.1057 -0.1225
28666W        W44800  10.784  16.684   1.721  0.2014  0.4095  0.0972
28667W        W44801  11.269  18.115   2.553 -0.1001 -0.0166 -0.1112
28668W        W44802   8.486   6.310   4.042 -0.4634 -0.2477  0.0144
28669W        W44803  11.645   8.084   5.409 -0.0214 -0.3615 -0.2204
28670W        W44804  15.316  14.071  10.831 -0.1066  0.1697 -0.0715
28671W        W44805  17.991  16.296   2.688  0.3978 -0.2607 -0.0426
28672W        W44806  18.133  16.093  10.750  0.1982  0.2835 -0.0975
28673W        W44807   8.833   2.509  13.547  0.0455 -0.0697  0.2185
28674W        W44808  18.261  13.170   4.659  0.0336  0.0213 -0.4019
28675W        W44809   9.726   5.577  15.773  0.2658 -0.2372  0.2450
28676W        W44810  10.463   1.503  15.604  0.4351  0.0584  0.1864
28677W        W44811  11.863  17.202   5.259  0.1162 -0.0994 -0.0922
28678W        W44812   5.957  18.276   1.053 -0.0084 -0.1745  0.1875
28679W        W44813   1.087   9.971   2.920  0.0234 -0.0832  0.1207
28680W        W44814   0.903   4.262  15.387  0.1591 -0.0877  0.0164
28681W        W44815  14.227   7.191   4.265  0.0003 -0.0658  0.0646
28682W        W44816   5.343  12.636  11.575  0.1453 -0.0268 -0.2027
28683W        W44817   7.472   8.292  13.856 -0.2436  0.1117  0.0592
28684W        W44818  17.481   4.713  11.719 -0.0032  0.0016  0.3318
28685W        W44819   3.096  11.203  13.423  0.2001 -0.3389  0.3995
28686W        W44820   6.703  17.263   6.083 -0.0698 -0.3139 -0.1560
28687W        W44821  12.691   4.968  15.742 -0.1002  0.5364 -0.2327
28688W        W44822   2.506   7.383  11.544  0.0387  0.4052 -0.0363
28689W        W44823  17.945  10.556  10.909  0.2923  0.0870 -0.0799
28690W        W44824   2.689   2.294   4.716  0.3113  0.1951  0.2337
28691W        W44825  11.537  17.115   1.609  0.1737  0.0908  0.0883
28692W        W44826   0.143   4.845   1.169 -0.1625  0.0662  0.1072
28693W        W44827  11.562  12.306  14.571  0.1107 -0.0164 -0.1138
28694W        W44828  14.000   5.297  14.197 -0.0680  0.2038  0.0266
28695W        W44829   2.821  17.716  13.990  0.1913  0.0435  0.0852
28696W        W44830   0.826   9.530  11.802  0.1584 -0.0130  0.0731
28697W        W44831   4.049  17.636  13.278 -0.1209  0.2776 -0.0878
28698W        W44832  10.728  15.028  13.385  0.1223  0.2235  0.1094
28699W        W44833  13.060   7.650   0.632  0.0419 -0.0573  0.3186
28700W        W44834   7.397   0.912   4.520 -0.3146 -0.2711 -0.0076
28701W        W44835  12.248  16.287   5.488  0.0606  0.0136  0.3403
28702W        W44836   5.221  18.496  11.770  0.0471 -0.5536  0.1485
28703W        W44837   9.220   2.762   2.147  0.1561 -0.1782  0.2075
28704W        W44838   1.956   7.963   4.717 -0.2826  0.2497  0.0688
28705W        W44839  11.351   9.758  15.622 -0.1630 -0.2842  0.0745
28706W        W44840  15.876   4.563  13.742 -0.3991 -0.1101 -0.1519
28707W        W44841   9.785   0.209   0.248  0.1470 -0.1160  0.0077
28708W        W44842  12.619   7.615   4.400 -0.0782  0.0109 -0.1431
28709W        W44843  16.559   2.831   0.008  0.2040  0.2031 -0.0765
28710W        W44844   8.060   9.276   3.485  0.0824  0.0692 -0.0617
28711W        W44845  15.924   9.741  11.930 -0.0992 -0.2453 -0.0616
28712W        W44846  10.367   0.710   0.653 -0.1666  0.1425  0.2369
28713W        W44847  14.992  12.519  13.396 -0.1499 -0.0162  0.1074
28714W        W44848  17.298   2.748  10.931 -0.0059 -0.0530  0.3885
28715W        W44849  13.615  11.336   4.035 -0.2201  0.4432 -0.2658
28716W        W44850   7.430   7.204   3.924  0.0945 -0.0638 -0.2208
28717W        W44851  15.759  15.593   1.979  0.0652  0.1730 -0.2904
28718W        W44852   6.708   0.564  12.689 -0.2870  0.0590  0.1337
28719W        W44853   1.923  13.636   2.058  0.0294 -0.0464 -0.1412
28720W        W44854   9.734   2.773   5.441 -0.2373 -0.2188 -0.0107
28721W        W44855  15.242   6.766  12.382 -0.4361  0.0305  0.0902
28722W        W44856   7.480  12.715   4.705 -0.3341 -0.0286 -0.3074
28723W        W44857   5.427   8.280  13.049  0.0427  0.0625  0.1743
28724W        W44858  15.521   5.507  11.230 -0.0301  0.5074 -0.0708
28725W        W44859   9.175   5.596   4.052  0.2106  0.1059 -0.2007
28726W        W44860  17.800   1.097  12.329 -0.2649 -0.0368 -0.0381
28727W        W44861  14.238  13.052   4.983  0.1310  0.0321 -0.1150
28728W        W44862  17.513  10.184  14.365 -0.2749 -0.1414  0.0913
28729W        W44863  12.473   0.011   3.466 -0.1284 -0.1383 -0.2071
28730W        W44864  13.172   0.005  16.056 -0.1104 -0.1759 -0.3578
28731W        W44865  10.494  12.581  12.737 -0.0389  0.0172 -0.0834
28732W        W44866   7.441   0.169  12.114 -0.2646  0.0822  0.2081
28733W        W44867  12.063  17.971  14.801  0.0819 -0.1582 -0.1277
28734W        W44868   3.725   4.147   0.072 -0.1602  0.2297  0.1926
28735W        W44869   5.824   1.634  13.139  0.3021  0.0384  0.2524
28736W        W44870  15.092  12.149  11.164 -0.1786  0.0696 -0.3189
28737W        W44871  17.620   5.859  13.214 -0.0573  0.0238 -0.2345
28738W        W44872  17.369   1.469   5.650 -0.1632  0.3231  0.1158
28739W        W44873  18.352   0.916   0.995 -0.0238 -0.0634  0.5595
28740W        W44874  13.977   4.281  14.907  0.4577 -0.2166 -0.1217
28741W        W44875   5.232  12.267  12.768 -0.1816 -0.1422  0.1174
28742W        W44876  12.885  17.778  12.581 -0.1923  0.2313 -0.4660
28743W        W44877   0.593  13.392  12.807 -0.0282  0.0063 -0.0363
28744W        W44878   8.414   8.323  11.010 -0.5250 -0.0158 -0.0801
28745W        W44879  11.428  16.510   3.498  0.0018  0.2037 -0.0443
28746W        W44880   1.239   6.070   2.052  0.0172  0.0364 -0.1284
28747W        W44881   2.199  14.081   4.827 -0.1646  0.0604  0.2850
28748W        W44882   4.184  18.467   2.015 -0.2034  0.1450  0.0817
28749W        W44883  16.883  15.767  13.485  0.0409  0.2412 -0.3045
28750W        W44884   2.025   5.084   1.975  0.1389 -0.0050  0.1871
28751W        W44885   6.232  12.652   4.425  0.0476 -0.1576 -0.0595
28752W        W44886   8.414   1.491  15.159  0.0718 -0.0885  0.2252
28753W        W44887   6.005   8.780   2.212 -0.3343  0.3711  0.2114
28754W        W44888   9.480   0.643   0.072 -0.3326 -0.1586  0.2018
28755W        W44889  17.341  11.194  15.017 -0.3531 -0.1469  0.3855
28756W        W44890   3.262  14.829   4.436  0.0499 -0.0798  0.2244
28757W        W44891  16.070  11.013  13.500 -0.0108 -0.3971 -0.0413
28758W        W44892   0.219   7.378   3.173  0.2031 -0.1829  0.5062
28759W        W44893  15.323   5.650   0.125  0.0906 -0.0737 -0.1145
28760W        W44894  11.268  13.325  14.727 -0.0682  0.2875 -0.0273
28761W        W44895  11.619   7.894   4.232  0.1430 -0.0991  0.2479
28762W        W44896   2.528  11.962  10.458 -0.0202 -0.1257 -0.1230
28763W        W44897   3.893   2.287  14.791 -0.2844  0.0350 -0.2240
28764W        W44898  15.621  11.091   3.153 -0.2351  0.3205 -0.0056
28765W        W44899   0.499   9.694  13.475  0.1061  0.6300  0.1349
28766W        W44900  16.203  13.904   1.590  0.1441 -0.0613  0.2046
28767W        W44901  10.663  15.842  13.491  0.1397 -0.0892 -0.2046
28768W        W44902   4.402  13.477   3.117 -0.0761 -0.4031  0.0616
28769W        W44903   5.550  15.172   3.327 -0.1981 -0.0772 -0.3353
28770W        W44904   7.908   2.057  13.946 -0.2910  0.0184  0.0814
28771W        W44905   0.794   2.826   3.147  0.0719 -0.0785  0.2856
28772W        W44906  10.493   2.432   1.250 -0.0772  0.3009 -0.1430
28773W        W44907   3.760  15.752  12.450  0.0172  0.0377  0.1816
28774W        W44908  18.251   3.921  12.158  0.1890  0.0969 -0.0531
28775W        W44909  13.891  14.226   2.708 -0.1936 -0.1038 -0.0194
28776W        W44910   3.024   8.188  11.928 -0.1535 -0.0681 -0.0244
28777W        W44911   8.043  18.240  12.599 -0.1678 -0.2433  0.0354
28778W        W44912  13.292  16.717   4.725 -0.0120 -0.0695  0.1434
28779W        W44913  12.621   0.073   1.750  0.2443  0.1129 -0.2510
28780W        W44914  10.653   8.371   2.185 -0.2183 -0.1519 -0.3943
28781W        W44915  12.340   0.873  12.837 -0.3084  0.2906  0.0195
28782W        W44916   4.389   4.211   4.563  0.3107 -0.0401 -0.0591
28783W        W44917   1.920  16.476  15.245  0.2439 -0.1585  0.1154
28784W        W44918  13.476  13.715  13.131  0.0554  0.0500  0.1732
28785W        W44919   6.681  11.602  11.793  0.0471  0.1586  0.2611
28786W        W44920  17.996   6.211  13.219 -0.2149  0.1699 -0.3552
28787W        W44921   8.538  17.624   4.042 -0.1431 -0.0540 -0.0910
28788W        W44922  12.717   1.100   1.682 -0.1249 -0.0952 -0.2187
28789W        W44923  12.416   7.677  12.240 -0.0373  0.1659 -0.1175
28790W        W44924  16.667   1.328   4.320  0.2956  0.3337 -0.2212
28791W        W44925   5.587   4.533  12.526 -0.1730  0.2335  0.1353
28792W        W44926   1.596   7.930  15.571  0.0243 -0.1235  0.0296
28793W        W44927   0.581  16.436   2.746  0.0131  0.2580 -0.1330
28794W        W44928  17.867  17.681  10.930  0.0627  0.1466 -0.1578
28795W        W44929   9.420  13.351  12.160 -0.2172  0.1554 -0.1573
28796W        W44930   7.228   7.722   4.003 -0.1023 -0.4958 -0.4161
28797W        W44931   5.862  17.614  13.708 -0.5537  0.2173  0.1395
28798W        W44932   9.902   2.133   3.146 -0.1738 -0.4305 -0.1080
28799W        W44933  17.204  13.399   4.446  0.0882 -0.2069  0.3081
28800W        W44934   9.282   5.273  15.626 -0.0294  0.2275 -0.2460
28801W        W44935  17.027  11.581   3.102 -0.1672 -0.1697  0.1799
28802W        W44936  11.039   5.440   6.425  0.1465  0.1897 -0.1128
28803W        W44937  11.955  15.664   4.769 -0.1732  0.0550 -0.3591
28804W        W44938   4.418  17.278   0.565  0.1531 -0.0371 -0.0314
28805W        W44939   6.783  17.813   4.449  0.1666  0.1643  0.0254
28806W        W44940  16.550  12.289   2.973 -0.2203  0.2336  0.0155
28807W        W44941  18.291  14.318   2.273  0.0130 -0.4177 -0.0058
28808W        W44942   0.841   7.376   0.394  0.0069  0.0129  0.1552
28809W        W44943   8.097  12.944   1.042 -0.1592  0.0331 -0.0436
28810W        W44944   9.745   8.926  15.834 -0.2286  0.1409  0.1203
28811W        W44945   0.201  13.081   4.931  0.0450 -0.3995 -0.1315
28812W        W44946   8.991   8.571  15.820 -0.1393  0.0395 -0.2894
28813W        W44947   5.223   3.934  15.644  0.0818  0.1835  0.1127
28814W        W44948   5.561   8.641  15.276 -0.1049 -0.1868  0.0286
28815W        W44949   2.568  12.611  12.482 -0.1303 -0.1267 -0.0467
28816W        W44950  17.332  14.991  13.603 -0.0798 -0.3360 -0.0269
28817W        W44951   1.103  11.805  13.149 -0.0360 -0.1657 -0.1169
28818W        W44952  10.581   0.098  12.716  0.0160  0.1291  0.2751
28819W        W44953  11.083  16.089   0.292  0.2654 -0.0833  0.0342
28820W        W44954  10.405   0.302  11.717  0.1202 -0.3991 -0.0770
28821W        W44955   5.943  10.766   1.415 -0.4557  0.0601  0.0168
28822W        W44956  14.887  16.909  11.370 -0.0290  0.0135  0.0431
28823W        W44957  11.298   0.533   2.667  0.2053  0.0864  0.1308
28824W        W44958   6.534   0.713  14.580 -0.1005 -0.0673  0.3848
28825W        W44959  17.023   9.022   9.878  0.1824  0.1038  0.2588
28826W        W44960  15.263  11.111  10.340 -0.0047 -0.0088  0.0605
28827W        W44961   1.452  13.227   3.886  0.1261  0.2015  0.0349
28828W        W44962  14.754   1.684   0.947  0.0637 -0.0621  0.2183
28829W        W44963   3.310   4.381  14.208 -0.0325  0.1950  0.1945
28830W        W44964   8.510   0.107  12.576 -0.0726  0.2993  0.0370
28831W        W44965  12.311   5.414   5.448  0.1549 -0.3909 -0.2903
28832W        W44966  13.515   7.540  15.211 -0.1366  0.0297  0.2507
28833W        W44967  17.975   7.888  14.596 -0.1985  0.1576  0.0624
28834W        W44968  14.355   3.335   4.695  0.0889 -0.0192  0.1897
28835W        W44969  16.377  15.832   2.506  0.1431  0.1378  0.1390
28836W        W44970   5.128   8.092   2.152 -0.0770 -0.1943  0.1060
28837W        W44971   5.203  18.173   0.447  0.1080  0.2221 -0.0448
28838W        W44972  16.250   0.331  12.570  0.0121 -0.1323 -0.2951
28839W        W44973  18.299   5.620  12.216  0.1249 -0.3180  0.0880
28840W        W44974   8.069  14.881   3.068 -0.1542  0.4877  0.0287
28841W        W44975  12.420   1.681   2.254 -0.0064  0.3291  0.0647
28842W        W44976   6.531  12.178  15.778 -0.1540  0.3611  0.1027
28843W        W44977   3.432  12.135   1.400 -0.3625 -0.0019 -0.1706
28844W        W44978  16.182   0.606  12.147 -0.0000  0.0142 -0.1144
28845W        W44979  14.848  10.450   2.293  0.0805  0.2081  0.1629
28846W        W44980  13.944   2.153   3.903  0.4728 -0.1647  0.0733
28847W        W44981   9.448   6.622   6.462 -0.0396  0.0561 -0.1376
28848W        W44982   4.043  16.886  14.661 -0.1375 -0.0494  0.0228
28849W        W44983  13.166   4.912  11.136 -0.2691  0.0045 -0.4175
28850W        W44984  16.538   2.806  15.410 -0.1086  0.1489 -0.0790
28851W        W44985  15.792   3.758   5.804  0.0908 -0.0625 -0.3253
28852W        W44986   9.934  14.011  14.808  0.1201  0.0735  0.0720
28853W        W44987  16.982  13.831   2.374  0.0913  0.2354 -0.3771
28854W        W44988  17.996  12.874   3.844  0.3729 -0.1958  0.3159
28855W        W44989  10.240   6.754   3.148  0.1714 -0.0221  0.2659
28856W        W44990   7.333  10.401   4.849  0.1201  0.0140  0.2280
28857W        W44991   8.061  17.905   3.317  0.1582 -0.2301 -0.0368
28858W        W44992   7.092  10.834   4.206  0.0691  0.1851  0.2880
28859W        W44993   0.005   2.387  14.475  0.0024 -0.0989 -0.2192
28860W        W44994  17.445   9.089   4.935  0.1362  0.2681  0.1554
28861W        W44995   1.956  10.623  15.022 -0.1471  0.1617  0.2104
28862W        W44996   1.783   8.145   3.854  0.0457 -0.1300  0.1745
28863W        W44997   7.342  11.824  14.776 -0.1493 -0.0945  0.1812
28864W        W44998   4.282  13.251  11.716  0.2023 -0.0090 -0.2064
28865W        W44999  14.741  16.958  11.887  0.1679  0.1340 -0.0338
28866W        W45000   3.294   7.871  14.544  0.4258 -0.0240  0.1180
28867W        W45001  16.307  10.859  13.900  0.0458 -0.1481  0.0685
28868W        W45002  13.975   1.157  11.203  0.4324  0.3383  0.2922
28869W        W45003  17.372  16.987  15.478 -0.0859 -0.1090 -0.0543
28870W        W45004  13.918  14.501  15.770  0.0895 -0.1290 -0.2228
28871W        W45005  15.824   8.114   1.948  0.1728 -0.1263  0.2398
28872W        W45006   6.867   3.690   1.206 -0.0415 -0.2087 -0.2193
28873W        W45007   7.645  14.145   2.514  0.1237  0.1059  0.1146
28874W        W45008   9.020  18.335  15.648 -0.1642  0.1754  0.2445
28875W        W45009  14.407  16.267  16.020  0.3238 -0.1681 -0.3846
28876W        W45010  17.199  14.650   2.951  0.2089  0.2048 -0.1085
28877W        W45011  11.928  18.010   2.047 -0.0576 -0.2766 -0.2005
28878W        W45012  13.783  13.543   5.756 -0.0034 -0.1356  0.0936
28879W        W45013  17.088   8.092   9.874  0.1313 -0.0531  0.3434
28880W        W45014   6.580   0.874   4.766  0.3128 -0.1888 -0.0225
28881W        W45015  14.022   2.174   1.833  0.1255  0.1945  0.0075
28882W        W45016  12.667   0.684  13.239 -0.0987 -0.1986 -0.3233
28883W        W45017  10.496   8.572   1.765 -0.1803 -0.2578 -0.1993
28884W        W45018   2.017  13.139  13.663  0.0659  0.0343  0.0821
28885W        W45019   3.558  16.701  12.814 -0.1735 -0.0568 -0.3004
28886W        W45020   9.645   0.309   4.419 -0.0204 -0.0291  0.0409
28887W        W45021  10.593   1.718   6.082 -0.0753  0.1635  0.3821
28888W        W45022  16.010   2.375   0.449  0.0482 -0.0438  0.2325
28889W        W45023   3.989  13.386  14.810  0.1263  0.1192 -0.1479
28890W        W45024   7.718   7.094   1.213  0.1072  0.1404  0.2943
28891W        W45025   6.799  18.175  15.743 -0.3309 -0.0956  0.2184
28892W        W45026  17.585   8.981   2.659  0.0575  0.3625 -0.5460
28893W        W45027  14.420   3.373   4.126  0.0829  0.2146  0.0660
28894W        W45028   8.602   1.064  15.416  0.0293  0.0649 -0.0452
28895W        W45029   0.531   7.490   1.463  0.0811 -0.0632 -0.0701
28896W        W45030   8.262  18.381  15.572 -0.1939 -0.1363  0.1045
28897W        W45031   3.412   9.923   1.061  0.3342  0.0523  0.2163
28898W        W45032   1.547  16.351  14.941 -0.0614  0.0220  0.1025
28899W        W45033  14.269   3.500   3.672  0.6909  0.3146 -0.0855
28900W        W45034  11.499   7.466   0.755 -0.1608 -0.1837  0.1642
28901W        W45035   0.855   4.766  15.163 -0.0338  0.0621 -0.2303
28902W        W45036  11.534   8.860   5.405 -0.1295  0.0946  0.1828
28903W        W45037   8.600  12.639  16.077 -0.3021  0.0809  0.1731
28904W        W45038   2.924   9.933  15.044  0.0507 -0.0760 -0.1500
28905W        W45039   4.149  18.350   4.693 -0.0306  0.0593 -0.1569
28906W        W45040   9.502  13.416  11.671  0.1888 -0.3022  0.0185
28907W        W45041  13.888   5.787  15.109 -0.1211 -0.1517  0.1245
28908W        W45042   1.729  14.164   3.153 -0.0286  0.1320 -0.2780
28909W        W45043   5.808   4.052  14.458 -0.0985  0.2931  0.2780
28910W        W45044   7.785   6.607  14.768 -0.0028 -0.1744 -0.0474
28911W        W45045   1.043   5.177   3.307  0.1673  0.1120 -0.0930
28912W        W45046  12.079  15.080   1.730 -0.0332 -0.2777  0.0175
28913W        W45047  14.672  16.338  15.002  0.2196 -0.2139  0.0004
28914W        W45048   3.955   1.128  14.731 -0.3381  0.0312  0.0635
28915W        W45049  14.839   1.944  12.251 -0.1042 -0.0550  0.0312
28916W        W45050   6.020  17.388  12.787  0.1618  0.3374 -0.0274
28917W        W45051   9.511  16.998   5.353  0.0145  0.1181 -0.0085
28918W        W45052   9.235   8.209  13.815 -0.0547 -0.1737  0.2544
28919W        W45053  13.207   4.703   3.685  0.2824 -0.2450 -0.0636
28920W        W45054  15.161   7.220  15.890  0.3691 -0.0748  0.0478
28921W        W45055  10.162   8.200   2.078 -0.0272  0.0919 -0.1923
28922W        W45056   7.279  12.581   4.244 -0.0504  0.1730  0.1272
28923W        W45057   3.589   3.663   4.946  0.1158 -0.1330  0.1088
28924W        W45058  11.722  15.763  15.762 -0.1976  0.2982  0.1426
28925W        W45059   6.374   5.097  15.806 -0.3494  0.0125 -0.0142
28926W        W45060   1.301  11.022   2.888  0.1881 -0.0907  0.4062
28927W        W45061   4.320  14.538   2.307  0.0344 -0.3008 -0.0311
28928W        W45062   6.294   2.842   1.137 -0.2203 -0.0100 -0.0248
28929W        W45063   7.328  14.947   3.466  0.2009 -0.0752 -0.1713
28930W        W45064   5.123  12.616  13.375  0.0682 -0.0197  0.0336
28931W        W45065   7.453   9.152  12.363  0.1282  0.0321 -0.2327
28932W        W45066   8.915  14.996  14.627  0.0553  0.1412 -0.0210
28933W        W45067   1.542   0.140  10.998 -0.2237  0.1059  0.0942
28934W        W45068  17.599   8.647   0.216 -0.0406  0.2590  0.0045
28935W        W45069   7.693   7.260   4.702  0.1006  0.2574  0.0238
28936W        W45070  15.188   5.740  12.971  0.0868  0.2414 -0.4837
28937W        W45071   1.144   5.472   9.459 -0.1579 -0.1612 -0.0767
28938W        W45072   7.158   4.603  14.771  0.1238 -0.3241 -0.0407
28939W        W45073   2.449  12.948  12.961 -0.1720 -0.1729 -0.0323
28940W        W45074  18.089   4.622  13.862  0.2163  0.3601 -0.3898
28941W        W45075   7.359  12.598   0.814  0.1868 -0.1657  0.0251
28942W        W45076  16.159   5.416   1.478  0.1429  0.1757  0.0256
28943W        W45077  18.367  16.611   3.734  0.0102 -0.0154 -0.1659
28944W        W45078  12.837  11.453  13.085 -0.1596  0.2122  0.0107
28945W        W45079  13.087  11.617   2.983 -0.0056 -0.1025  0.1126
28946W        W45080   3.041   2.773   5.657  0.1054 -0.1823 -0.1842
28947W        W45081   9.042   1.205  13.849  0.0036 -0.1003  0.1657
28948W        W45082   2.736   8.905   0.009  0.1470 -0.2398  0.2377
28949W        W45083   6.663  18.281   3.328  0.0276  0.0559 -0.2052
28950W        W45084   6.741   4.712  15.617 -0.0340  0.1568 -0.1739
28951W        W45085  15.912  17.587   1.121  0.1908  0.1000 -0.2490
28952W        W45086  11.711  10.828   1.666  0.1305  0.0220 -0.3651
28953W        W45087  15.683  16.320   0.802 -0.1192  0.2206  0.2063
28954W        W45088   5.953  15.724   2.639  0.0723 -0.0444  0.2773
28955W        W45089  17.448  12.218   1.259  0.1952 -0.2713 -0.3268
28956W        W45090  16.075  11.736  11.795  0.1295  0.2837  0.1642
28957W        W45091  13.794   3.616   5.184  0.3002 -0.0783  0.1791
28958W        W45092  17.840  11.884   1.097  0.0052  0.1032 -0.0039
28959W        W45093  13.223  16.547   0.885 -0.2899  0.4015 -0.0709
28960W        W45094  16.293  15.639   0.412  0.1644 -0.3269 -0.2855
28961W        W45095   5.501  15.056  11.417  0.2026 -0.1514  0.2153
28962W        W45096  15.996   4.142   3.156  0.2077 -0.1022  0.1230
28963W        W45097   6.923   6.198  12.368  0.2771  0.1549  0.0423
28964W        W45098  11.860   2.297  15.754 -0.0995  0.5391 -0.0232
28965W        W45099   3.307   1.586  14.325 -0.1617  0.0652 -0.0308
28966W        W45100  14.677  16.166  12.473 -0.0973  0.3432 -0.0888
28967W        W45101  13.601   3.124   5.302 -0.2580 -0.0665  0.1430
28968W        W45102   1.129   2.613   4.828 -0.0300 -0.1023  0.0677
28969W        W45103   1.319  14.597  15.829  0.0438  0.0240 -0.0655
28970W        W45104  13.337   0.427  16.013 -0.0559  0.1041 -0.0525
28971W        W45105  17.717  13.066  10.188 -0.0537  0.0760  0.4262
28972W        W45106   9.174  15.708   1.355 -0.0654  0.1284 -0.0578
28973W        W45107  11.670   6.016  14.025 -0.2084  0.1610  0.0259
28974W        W45108  15.055  14.583   0.433 -0.1380  0.2396  0.1632
28975W        W45109   4.756   2.135  14.641 -0.0930  0.5049 -0.1096
28976W        W45110   9.090  12.893   4.463  0.2610  0.0690 -0.0376
28977W        W45111  12.346  10.986  14.327 -0.1754 -0.1133 -0.0882
28978W        W45112   1.073   4.703  12.973  0.0860 -0.0487 -0.2364
28979W        W45113  13.543  10.367   2.231  0.0771  0.0471  0.0888
28980W        W45114   5.165  16.305  14.275  0.0609  0.1750  0.4555
28981W        W45115  11.789   6.783   3.497  0.0543  0.0875  0.0589
28982W        W45116   0.965   2.982  15.000  0.0208 -0.0940  0.0066
28983W        W45117  13.904   6.042   1.891  0.0352  0.0969  0.1458
28984W        W45118  10.379  15.289   0.120  0.3866 -0.0454 -0.1500
28985W        W45119  11.270   8.179  14.198  0.1846  0.2278  0.2248
28986W        W45120   6.996   0.627   4.635 -0.0010  0.1313  0.0884
28987W        W45121   6.133  14.260   0.929 -0.0439  0.2606 -0.0115
28988W        W45122  14.633  18.317   1.400  0.1088  0.3891  0.0138
28989W        W45123  18.337   3.683   3.855 -0.2796  0.0121 -0.0967
28990W        W45124   0.889   3.809  12.798  0.1146 -0.0115  0.1512
28991W        W45125   2.053  17.364   4.181  0.2019  0.2402 -0.1970
28992W        W45126   5.017   7.260  14.703  0.2378  0.5051  0.1082
28993W        W45127  16.975   1.100   0.434 -0.0052  0.0148 -0.0276
28994W        W45128   9.361   9.138   4.203  0.1335 -0.1475 -0.3449
28995W        W45129  17.104   4.546  11.062  0.1194 -0.0180 -0.1311
28996W        W45130  16.897   0.715   5.037  0.0049  0.2685 -0.0991
28997W        W45131   3.934   5.938   0.502  0.2028  0.0790 -0.2207
28998W        W45132  16.431  18.500  11.592 -0.1322 -0.2966 -0.2328
28999W        W45133   2.568   4.763   0.538 -0.2541  0.1397  0.0007
29000W        W45134   8.112  15.915  15.520 -0.0523 -0.4039  0.0874
29001W        W45135   7.080  15.041   1.799  0.0554  0.0339 -0.2985
29002W        W45136  17.315   7.119   9.705  0.1337  0.2281  0.3563
29003W        W45137  11.531  13.291   1.505 -0.0899  0.4293  0.1573
29004W        W45138  12.395   3.312  12.586  0.1207  0.2408  0.0715
29005W        W45139   6.523   4.228   4.508 -0.1963  0.0314  0.0701
29006W        W45140   1.944   3.667   2.879  0.2131  0.1354  0.0714
29007W        W45141   6.781   3.378   2.223  0.2727 -0.0494  0.1246
29008W        W45142  15.770  10.706  12.005  0.1130  0.1145 -0.2570
29009W        W45143  17.776  10.871  11.910 -0.0679  0.1641  0.0782
29010W        W45144  10.750  14.515  13.379  0.1509  0.0163  0.3956
29011W        W45145   9.494  13.586   1.117  0.4799  0.1632 -0.0773
29012W        W45146  10.891  11.376  13.899 -0.1307 -0.0728 -0.0296
29013W        W45147   9.578   2.784  16.060  0.1384 -0.1373  0.1493
29014W        W45148   4.580  17.373  14.146  0.0221  0.1165 -0.0322
29015W        W45149  12.766   2.011  12.759 -0.0687 -0.1188  0.0503
29016W        W45150   6.824  12.284  15.285 -0.2249  0.0160  0.4134
29017W        W45151   8.560  11.660   1.114  0.2087 -0.1260 -0.0364
29018W        W45152  11.684  13.405   5.524 -0.1195  0.1555  0.0281
29019W        W45153   3.448  18.101   0.794  0.1061 -0.3253  0.0690
29020W        W45154   8.460   8.703   3.894 -0.2791  0.2347 -0.1751
29021W        W45155  18.396  16.709  14.575  0.2244 -0.0325 -0.0997
29022W        W45156   7.267   1.383   4.561  0.1086 -0.1632  0.2564
29023W        W45157   9.647   1.644   5.610  0.1731 -0.1568  0.0883
29024W        W45158   4.911  10.855   1.228  0.1898 -0.0244  0.0198
29025W        W45159  15.561  14.708  13.920  0.0853  0.1153 -0.1389
29026W        W45160   3.843  16.841   4.011 -0.1324  0.0319  0.0452
29027W        W45161  10.936  10.041  14.746 -0.0083  0.0121  0.0093
29028W        W45162  13.973  12.003   2.146  0.2475  0.2393 -0.0496
29029W        W45163  11.396   0.428  14.038  0.4021  0.2018  0.3103
29030W        W45164   8.547  16.885   0.252  0.0324  0.3623  0.0291
29031W        W45165  17.963  11.372   3.897 -0.1572  0.0910 -0.1785
29032W        W45166  14.922   6.655  14.149  0.0382  0.2197  0.1066
29033W        W45167   9.530   4.189   2.874  0.3268 -0.0772  0.0396
29034W        W45168   3.579  14.492   4.630 -0.2034 -0.2425  0.4410
29035W        W45169  12.010   9.847  14.072 -0.0346  0.1798 -0.0232
29036W        W45170   1.251  11.209  15.295  0.1035  0.4183 -0.3949
29037W        W45171   4.684   6.463   4.761  0.0957  0.2705  0.0024
29038W        W45172   7.045  17.907  11.226  0.2041 -0.2333 -0.3342
29039W        W45173   3.312   4.850   3.981  0.1029  0.4546  0.2688
29040W        W45174   1.139  10.523  12.520 -0.1995  0.0980  0.0630
29041W        W45175  14.652  12.315   5.592 -0.0122 -0.1604 -0.1300
29042W        W45176  14.815  11.574  15.507  0.0018  0.1040 -0.0845
29043W        W45177   7.205   2.430  12.131 -0.4159 -0.2436 -0.0835
29044W        W45178   7.020   2.950   4.126  0.2060 -0.0375 -0.1405
29045W        W45179   2.014   4.267  10.730 -0.2106 -0.3167 -0.1006
29046W        W45180  17.624  15.548   3.169  0.0628 -0.0733 -0.2617
29047W        W45181   4.416   0.839   3.350  0.0081  0.0421  0.1672
29048W        W45182  13.062   2.793   2.598 -0.1212  0.0074 -0.3893
29049W        W45183   1.713  16.492   4.945  0.0908 -0.1882  0.1781
29050W        W45184  14.338  17.564   4.717  0.0267  0.1078 -0.1263
29051W        W45185   0.831  18.275  15.199 -0.2963 -0.4146  0.2005
29052W        W45186   4.876   0.352   1.095  0.1631  0.0634  0.2335
29053W        W45187  14.205   5.044   4.014 -0.2749  0.2424  0.3952
29054W        W45188  10.534  15.509  11.653 -0.0724 -0.2312  0.5749
29055W        W45189   3.883   1.420   4.907 -0.0043 -0.1171  0.0741
29056W        W45190  11.651  13.708   0.662  0.0390  0.0619 -0.0847
29057W        W45191  15.035  10.990   3.152 -0.1279 -0.2109 -0.2429
29058W        W45192   6.029  14.906  15.819 -0.2887 -0.2385 -0.1505
29059W        W45193  10.844  14.595   2.982 -0.2029 -0.0019 -0.3018
29060W        W45194   9.918   3.034  15.603  0.1954  0.1874  0.1537
29061W        W45195   6.453  12.191   4.394  0.0399 -0.1738 -0.0864
29062W        W45196   2.561   8.678  14.981 -0.1832 -0.0038 -0.0755
29063W        W45197   1.891  10.361   9.890  0.0546 -0.1608  0.1197
29064W        W45198  18.132  15.784   5.567 -0.0317  0.1028  0.1702
29065W        W45199   9.747  12.236  13.641  0.1857  0.1065 -0.0372
29066W        W45200   1.494  13.181  12.556  0.1613  0.1998 -0.2426
29067W        W45201   6.722  11.847   1.168 -0.3007 -0.0178 -0.2674
29068W        W45202  14.291  12.273  15.737  0.1866  0.0273  0.4085
29069W        W45203  12.444  16.120  11.861 -0.1987 -0.0298 -0.3518
29070W        W45204  13.242   5.884   4.285 -0.0745 -0.0855  0.0425
29071W        W45205  10.845  11.826  13.024 -0.1380 -0.1077  0.0310
29072W        W45206  15.831  13.912  11.861  0.0670 -0.3023 -0.3721
29073W        W45207   0.919  14.324  11.764 -0.0647  0.1749  0.4023
29074W        W45208   6.725  12.764  12.936  0.1150 -0.0820 -0.1549
29075W        W45209   3.093   7.629   3.095 -0.0401  0.1834 -0.1056
29076W        W45210   5.334  15.783   2.518 -0.4464 -0.2072 -0.0758
29077W        W45211   7.987   5.936   0.461  0.0945 -0.2396 -0.2014
29078W        W45212   8.878   9.724  11.408 -0.2329 -0.0557 -0.1541
29079W        W45213   7.436   4.600   4.377 -0.3364  0.1778 -0.1704
29080W        W45214   4.244   7.106  12.389 -0.0311 -0.0258 -0.4328
29081W        W45215   9.294   2.393   5.281  0.0640 -0.2233 -0.0577
29082W        W45216   3.814   7.696  11.686 -0.0457 -0.0640  0.1086
29083W        W45217  14.384  10.956   3.332 -0.2963  0.0069 -0.1885
29084W        W45218  16.948   7.473  14.565  0.2166  0.0129  0.2820
29085W        W45219   6.126   6.152  15.776 -0.2750 -0.1984 -0.0299
29086W        W45220   0.367   0.302   0.245 -0.0338 -0.0570 -0.0087
29087W        W45221  11.396  11.726  14.100  0.0628  0.0370  0.1232
29088W        W45222   6.041  12.496   2.426 -0.0942  0.2298  0.0474
29089W        W45223  12.861  15.809  15.444  0.0805  0.1957  0.0554
29090W        W45224   1.652  13.690  12.671  0.2059 -0.0953  0.1328
29091W        W45225  12.287   0.582   0.348  0.0635 -0.0529  0.1503
29092W        W45226   3.944   9.712   1.050  0.4231 -0.0201 -0.0603
29093W        W45227   8.573   3.179   1.423  0.0651 -0.2064  0.4057
29094W        W45228   5.265  17.262  15.977  0.3081  0.0690 -0.0870
29095W        W45229  17.075  14.521  15.094  0.1349 -0.2060 -0.1193
29096W        W45230  12.121   5.508   4.981  0.0487 -0.0430 -0.0059
29097W        W45231  17.357  15.701   5.032  0.2357 -0.0330  0.0352
29098W        W45232   8.394   7.724   2.104  0.0342 -0.0335 -0.0505
29099W        W45233  14.973   9.221   3.661 -0.0128  0.3194 -0.3893
29100W        W45234   9.693   4.613   2.581 -0.2452  0.2324 -0.3303
29101W        W45235  17.674  10.449   4.852 -0.1498  0.4731  0.1344
29102W        W45236  16.089  17.670   3.581  0.0634 -0.0095 -0.3138
29103W        W45237   6.037  10.001  11.204  0.3792  0.0141 -0.0550
29104W        W45238   5.039   7.050  16.026  0.1507 -0.2759 -0.0517
29105W        W45239  15.526  11.108   0.279 -0.0062 -0.2535  0.1451
29106W        W45240  12.337   8.790  13.652 -0.2070  0.0988 -0.2638
29107W        W45241   6.298   6.975   4.194 -0.0565  0.1399  0.0376
29108W        W45242   7.090   8.405  12.879 -0.1713 -0.2924 -0.3173
29109W        W45243   7.155  18.246   1.430 -0.0843 -0.1060  0.0465
29110W        W45244  13.184   6.405   2.451 -0.0456  0.2497  0.1554
29111W        W45245   6.610   2.864  14.898  0.1170  0.1071 -0.0162
29112W        W45246   8.865  15.300   2.118  0.2624  0.1233 -0.0739
29113W        W45247   6.239  12.609  10.861 -0.2077 -0.1176 -0.4561
29114W        W45248   8.618  15.624   5.145  0.2330  0.0528  0.0129
29115W        W45249   2.663   6.841  15.197  0.1263  0.1394 -0.0226
29116W        W45250  17.381  15.570  12.852 -0.0499 -0.0925  0.4016
29117W        W45251   5.274   4.845   2.819  0.0873  0.1827 -0.3031
29118W        W45252  12.753  16.814  15.104 -0.3789  0.1977  0.1103
29119W        W45253  12.034  13.539   0.042 -0.2233  0.2731  0.2632
29120W        W45254  14.795  18.487  15.463  0.2691 -0.1056  0.1269
29121W        W45255  11.170  15.544   3.350 -0.3133  0.1301 -0.0186
29122W        W45256   7.242  17.306   0.372 -0.1024  0.3246 -0.1311
29123W        W45257   7.796   8.496   4.187  0.0659  0.0478  0.1139
29124W        W45258   5.098  15.937  13.305 -0.2991  0.1464  0.1491
29125W        W45259  11.000   1.789   1.655 -0.0478 -0.0491 -0.1350
29126W        W45260  16.809  11.168   4.623 -0.0416  0.1050 -0.0055
29127W        W45261  17.598   8.609  11.120  0.0339  0.0688 -0.0404
29128W        W45262   4.317   1.938   0.494 -0.0687  0.0613 -0.4743
29129W        W45263   6.242   9.517  14.221  0.0129  0.1184  0.0256
29130W        W45264   4.239   6.141   3.021  0.2584 -0.3053  0.1274
29131W        W45265  18.054  12.958   2.627 -0.1185  0.1019  0.0974
29132W        W45266   5.867   8.193   0.633  0.5346 -0.0365  0.0081
29133W        W45267   9.533  11.768  14.577  0.1332  0.1287 -0.1772
29134W        W45268   8.051   3.722   5.026  0.0588  0.1156 -0.3266
29135W        W45269  17.143  16.038   2.017  0.1092 -0.0768  0.0066
29136W        W45270   0.770  16.817  14.401 -0.0435  0.2333  0.0791
29137W        W45271   8.608  16.152   4.921 -0.2793 -0.0315 -0.0930
29138W        W45272   2.407  10.778  15.232 -0.2141 -0.1169  0.1840
29139W        W45273  10.303   6.697  11.916 -0.1141  0.1040 -0.0647
29140W        W45274  13.211   5.568  14.847 -0.0292  0.1051 -0.0031
29141W        W45275  13.723  17.093  11.482 -0.0556 -0.0502 -0.0858
29142W        W45276   7.604  13.052  15.009 -0.1957  0.0887  0.0798
29143W        W45277   7.415  13.272   5.548  0.0031  0.1785  0.0278
29144W        W45278  17.397   3.765   1.556 -0.0712  0.0691 -0.0914
29145W        W45279   4.382  11.625  13.149  0.0826  0.0756 -0.2414
29146W        W45280   2.531   1.879   4.960 -0.1114 -0.0888  0.2001
29147W        W45281   5.019   3.668   0.854 -0.1802 -0.1976 -0.0138
29148W        W45282  15.092  13.541   5.076 -0.1171  0.0523  0.1730
29149W        W45283   7.864  15.939   6.176 -0.2240  0.0142 -0.1274
29150W        W45284  16.766  11.861   2.740  0.0833 -0.0611  0.0702
29151W        W45285   8.127  17.474   0.999  0.2019 -0.0288  0.0904
29152W        W45286  16.561   5.346  11.782 -0.2204 -0.0862  0.2680
29153W        W45287   1.621   7.471  13.380  0.1016 -0.0025 -0.0592
29154W        W45288  12.188   8.098  15.233  0.2413  0.1544 -0.0085
29155W        W45289   7.421  16.846   6.298 -0.1303 -0.2609 -0.0308
29156W        W45290   3.950  16.712  13.103  0.1183  0.2331  0.2184
29157W        W45291  12.810  16.056   2.013 -0.0306  0.1514  0.2408
29158W        W45292  15.956   3.528   3.888  0.0571  0.0190 -0.1928
29159W        W45293   4.987  12.291  11.051 -0.0455 -0.0407 -0.1399
29160W        W45294  14.913  13.923   3.256  0.1369 -0.0705  0.2561
29161W        W45295   1.440  17.833   1.502 -0.0356 -0.0876 -0.1121
29162W        W45296  11.128   5.589  14.833 -0.2795  0.2221  0.1462
29163W        W45297   3.824   9.986  14.397 -0.1642  0.2157 -0.1196
29164W        W45298  15.389  16.466  12.226 -0.1449 -0.2188 -0.2264
29165W        W45299  17.682  17.544   0.779  0.2931  0.1139 -0.0952
29166W        W45300  15.681   8.014  15.114 -0.2446  0.1607 -0.1339
29167W        W45301   7.384   6.336   5.157  0.2370 -0.2385  0.1400
29168W        W45302   0.594  10.949  14.962 -0.2334  0.2510  0.2382
29169W        W45303  10.456  12.921   6.347 -0.2850 -0.0649  0.0679
29170W        W45304  11.989   3.589   2.329  0.1063 -0.1855  0.0119
29171W        W45305   6.935  18.477  15.275  0.0976 -0.1119  0.2053
29172W        W45306   1.649   1.259  12.020  0.0129  0.2225  0.0016
29173W        W45307  18.157  16.187  15.035  0.0090  0.0314 -0.0501
29174W        W45308  15.176   0.365   0.891  0.3097 -0.0943  0.0221
29175W        W45309   5.103  14.403  11.800  0.6355 -0.2372  0.2618
29176W        W45310  12.743   9.696  15.776  0.0505 -0.1209  0.0149
29177W        W45311   2.835  14.396   3.519 -0.0913 -0.1120 -0.0166
29178W        W45312   9.125  15.486   5.024 -0.1302  0.4329 -0.0376
29179W        W45313  12.852  12.749  14.007 -0.1632 -0.2393 -0.2454
29180W        W45314  15.434  13.453  15.987  0.0806 -0.0428  0.0186
29181W        W45315  14.843   1.318   0.013 -0.0110  0.1308  0.1790
29182W        W45316   9.298  14.211   2.661 -0.1471  0.1309 -0.4355
29183W        W45317   1.644   5.015   1.686  0.2589  0.2621 -0.0824
29184W        W45318   1.098   3.669   4.164 -0.1361  0.2226  0.0226
29185W        W45319   1.991  15.221  11.460  0.1236  0.1312 -0.1227
29186W        W45320   9.974   6.359  15.278 -0.2367  0.2670 -0.0128
29187W        W45321   5.344  17.666  14.907  0.0942 -0.1737 -0.3992
29188W        W45322   9.795   1.967  15.721  0.0989  0.0714  0.2052
29189W        W45323   4.804  10.518  12.765  0.2390 -0.0570  0.3523
29190W        W45324  13.428   8.326  12.481  0.1458  0.1479 -0.1207
29191W        W45325  14.149   5.091  15.035  0.3329 -0.1320 -0.1999
29192W        W45326   9.564   8.677  11.549 -0.0363  0.0321  0.2561
29193W        W45327  11.299   5.608   3.116  0.0206 -0.1878 -0.0755
29194W        W45328   5.630   5.585  11.313  0.0175  0.1014 -0.1652
29195W        W45329   2.673  14.194  13.604 -0.0711  0.0464  0.0350
29196W        W45330   7.243   3.959   1.070 -0.1905 -0.0212  0.2224
29197W        W45331  15.996  12.612   4.816 -0.0566 -0.0191 -0.0860
29198W        W45332   3.032  13.856   1.668 -0.2283  0.3038 -0.2087
29199W        W45333  16.441  10.656  12.839 -0.1151 -0.0134  0.0498
29200W        W45334  16.934   6.528  15.576 -0.1556 -0.2051 -0.2286
29201W        W45335   4.367   4.630   5.171  0.0247 -0.0332 -0.1457
29202W        W45336   3.770   8.000   3.273 -0.1583 -0.1063 -0.1519
29203W        W45337  16.567  15.699  10.450 -0.4709 -0.0163  0.1744
29204W        W45338   5.430   7.113   0.374 -0.0043  0.1225  0.1694
29205W        W45339  14.960   7.937   0.957  0.2825  0.0738  0.1439
29206W        W45340  16.495  12.073   1.380  0.1020 -0.0370 -0.1270
29207W        W45341  11.203   7.725   2.508  0.2003 -0.1777  0.1283
29208W        W45342  17.622  10.037   4.422  0.0048  0.0333 -0.1787
29209W        W45343   7.892   3.197  15.903 -0.0612 -0.3836 -0.1533
29210W        W45344   6.036   5.226  11.613 -0.0176  0.0706  0.0625
29211W        W45345   7.287  15.107   1.336 -0.1775  0.3558 -0.5491
29212W        W45346   8.102  18.222   2.889  0.2040 -0.2597  0.2592
29213W        W45347   9.742  14.643  12.150 -0.2886  0.1622 -0.1013
29214W        W45348  15.834  10.766  15.158 -0.0580 -0.1588  0.1893
29215W        W45349  17.917   1.698   4.571 -0.0493 -0.1241 -0.1267
29216W        W45350   7.567   9.441  11.857 -0.0349 -0.0785 -0.3592
29217W        W45351   6.310   2.029  13.052 -0.0590  0.3929  0.0012
29218W        W45352  12.512  15.686  14.105 -0.0825 -0.0437  0.0580
29219W        W45353  13.784   1.310   1.374  0.0296 -0.0295  0.2083
29220W        W45354  13.582   3.425  14.774  0.3314  0.3878 -0.1829
29221W        W45355  17.932   2.524  12.916 -0.2551 -0.2302  0.2019
29222W        W45356  14.788   6.919  11.591  0.3571  0.3101 -0.1683
29223W        W45357   7.136   0.019  13.126  0.1563  0.0159 -0.1071
29224W        W45358   7.166  17.934   3.318 -0.1897 -0.0466  0.0554
29225W        W45359   7.763   2.556   2.563  0.0568 -0.0019  0.0290
29226W        W45360   5.438  13.228  12.654  0.0743 -0.0267  0.1012
29227W        W45361   4.934  16.360  15.577 -0.1698  0.1257 -0.0854
29228W        W45362  12.545  14.862   5.399  0.1816 -0.0248  0.2166
29229W        W45363   6.366  12.079   0.155  0.0779 -0.4211  0.1476
29230W        W45364  17.602  10.631   1.661  0.0582  0.1859 -0.1982
29231W        W45365  16.636  11.985   4.467 -0.0046  0.1562  0.0187
29232W        W45366   0.559  13.942   2.461 -0.0711 -0.2246  0.1415
29233W        W45367   6.979  11.106  14.876 -0.4976  0.1864 -0.2217
29234W        W45368  11.446   2.804  14.498  0.0023  0.0599 -0.0433
29235W        W45369   3.892   0.752  15.613 -0.1928 -0.0037  0.0381
29236W        W45370  10.807   4.176  11.763  0.0912  0.1626 -0.0826
29237W        W45371  10.496  14.720  12.011 -0.2534  0.1888  0.0065
29238W        W45372  11.171   8.721  15.876  0.0904 -0.0633 -0.0017
29239W        W45373   7.080   7.565  15.817  0.0938 -0.1809 -0.2650
29240W        W45374   1.529   5.795  13.263 -0.1391  0.0423 -0.0434
29241W        W45375   1.891   6.512   3.642 -0.2305 -0.1198  0.2035
29242W        W45376   1.340  11.634  10.491 -0.3527  0.1934  0.1342
29243W        W45377   4.946   5.078  12.026 -0.2501  0.0687  0.0757
29244W        W45378   8.642   9.972   1.523  0.1384 -0.2716  0.0104
29245W        W45379   3.887   6.293  13.629 -0.0976  0.0811  0.3463
29246W        W45380   7.945  12.852   1.502  0.1652  0.0873 -0.0618
29247W        W45381   7.411   1.508  14.636  0.1082 -0.4464  0.5304
29248W        W45382  17.262  15.026  15.928 -0.0728 -0.3016 -0.0735
29249W        W45383   2.009  16.603  14.187 -0.2177  0.5741  0.0014
29250W        W45384   0.378  16.783  10.612  0.2810  0.0084 -0.0721
29251W        W45385   2.169  17.110   4.602  0.1540 -0.1892 -0.0718
29252W        W45386  10.654  10.969  15.688  0.2067  0.3269 -0.0218
29253W        W45387   4.371   9.217  14.694  0.0724  0.2156 -0.0916
29254W        W45388  17.401   0.030   4.037 -0.0193  0.1932 -0.1609
29255W        W45389   0.399  14.567  15.482 -0.0249  0.1059 -0.2351
29256W        W45390  10.520   6.940   4.117  0.2271 -0.1795 -0.1216
29257W        W45391   6.153  11.011  15.934 -0.0060 -0.0924 -0.2956
29258W        W45392  17.980   6.162   4.631  0.1459 -0.3568 -0.3881
29259W        W45393   3.146   7.455  12.356 -0.0012  0.0899  0.1167
29260W        W45394  11.752   6.946  15.532  0.0452  0.3906  0.0409
29261W        W45395   8.694  10.186  14.700  0.0884 -0.0231 -0.0229
29262W        W45396  16.098   6.904  12.723 -0.3536  0.1743 -0.0292
29263W        W45397  14.073  14.849  13.271  0.0944 -0.3810  0.2039
29264W        W45398  14.252   3.587   0.949 -0.0054 -0.2136  0.2045
29265W        W45399  16.994  13.560  10.379  0.3197  0.1905 -0.6616
29266W        W45400  15.461   3.519  12.052 -0.0859 -0.0211  0.1510
29267W        W45401   9.531   7.843   3.800 -0.1509 -0.1327  0.3062
29268W        W45402  12.882  14.163  13.805  0.1498  0.2536 -0.0749
29269W        W45403   1.266   7.153   0.365 -0.1484  0.1173  0.2843
29270W        W45404   3.434   3.314   3.723 -0.0876  0.1050 -0.1006
29271W        W45405  16.073   3.441   0.250 -0.0673 -0.0971  0.0920
29272W        W45406  18.458  15.520   4.626 -0.0479 -0.3582  0.1398
29273W        W45407   3.577   6.279   1.556 -0.2546 -0.1940 -0.1832
29274W        W45408  11.372   9.423  14.115 -0.1973  0.1595 -0.0847
29275W        W45409   2.812  18.334  11.187 -0.1293 -0.3536 -0.1045
29276W        W45410  16.638  12.895  12.076  0.2728  0.3100  0.0361
29277W        W45411  14.713   3.253  11.509  0.3142  0.1560  0.0758
29278W        W45412  17.119  11.968   1.558 -0.0009 -0.0638 -0.2648
29279W        W45413  18.252  12.343  15.808  0.1133 -0.0166 -0.1854
29280W        W45414  15.094  11.613  14.976  0.4147 -0.1556 -0.3919
29281W        W45415   1.474   3.516   2.621 -0.0007  0.1180 -0.1520
29282W        W45416   2.538   5.158  14.749  0.0288  0.1952 -0.1751
29283W        W45417   4.212   0.631   1.085  0.2116  0.0207  0.0403
29284W        W45418   4.491   4.143  12.162 -0.0158  0.2720 -0.2042
29285W        W45419   3.602  14.451  11.752  0.3314 -0.1986  0.2639
29286W        W45420  11.165   2.798  13.321  0.1763  0.1251  0.1374
29287W        W45421  14.616  15.302   5.855 -0.1341  0.0393  0.2002
29288W        W45422  14.628   0.637  11.489 -0.1302  0.2779  0.0653
29289W        W45423  12.539  13.851  13.608  0.1400 -0.3754  0.2091
29290W        W45424   4.700  12.312  11.943  0.1654  0.1181 -0.1831
29291W        W45425  17.113  14.805   2.084  0.0291 -0.0485 -0.0441
29292W        W45426  17.930  10.370  13.406  0.2061 -0.1812  0.0884
29293W        W45427   4.543   2.731  15.839  0.1496 -0.0213  0.4153
29294W        W45428  11.422  10.776  14.532  0.0661  0.0859  0.1212
29295W        W45429  13.403   6.550   1.239 -0.2673  0.1130  0.2296
29296W        W45430  18.271   0.240  14.547  0.1031 -0.0275 -0.0132
29297W        W45431   1.762   7.863  11.791  0.0805  0.0756 -0.1226
29298W        W45432  10.317   2.775  13.035  0.1702  0.1195  0.0821
29299W        W45433  13.726   7.184  16.063  0.1220 -0.1286 -0.1545
29300W        W45434   5.574   3.944   2.604 -0.3671  0.0484  0.0833
29301W        W45435  14.889  14.509   3.611 -0.0771 -0.5368  0.0966
29302W        W45436   1.700  18.429   3.696 -0.0385  0.0003  0.3248
29303W        W45437  15.823  10.444  13.319  0.0261 -0.2109  0.1474
29304W        W45438   2.299   7.285  12.444  0.1439 -0.0585  0.0383
29305W        W45439  10.358   8.993  16.019  0.2840 -0.1063 -0.0320
29306W        W45440   8.893  14.154  13.340  0.1313 -0.1913  0.3269
29307W        W45441   4.764   9.580  14.776 -0.1903 -0.0462 -0.1393
29308W        W45442  10.801   1.465  14.437 -0.2266 -0.2797  0.3097
29309W        W45443   9.919  16.222   2.165 -0.0079  0.0696 -0.1868
29310W        W45444   5.814   7.111   0.663 -0.3725  0.0895 -0.0052
29311W        W45445   1.469  15.312   1.119  0.1998  0.0431  0.3002
29312W        W45446  10.728   9.213  14.398 -0.3165  0.1789  0.1185
29313W        W45447  15.918  18.238  11.842 -0.0152  0.2013 -0.1641
29314W        W45448   4.779   4.132   0.352 -0.1891  0.2981  0.0922
29315W        W45449  15.033  17.984   4.709 -0.4606 -0.3295  0.1018
29316W        W45450   0.622  10.912   3.935 -0.1011  0.4142  0.3550
29317W        W45451  10.257   6.760  13.694 -0.2250  0.2895 -0.0412
29318W        W45452  11.146   3.754  15.351  0.1041 -0.5075  0.0538
29319W        W45453   8.632   0.312  12.093  0.0830 -0.0361  0.1315
29320W        W45454  17.685  17.689  15.868 -0.1388  0.1582  0.0722
29321W        W45455   2.897  15.717   0.360  0.0950  0.0829  0.2560
29322W        W45456   4.006   3.270   2.360 -0.1463 -0.1145 -0.2407
29323W        W45457   5.555  10.035  10.997 -0.1875 -0.0795  0.0819
29324W        W45458   3.238   5.581  15.083  0.0413 -0.0958 -0.0252
29325W        W45459  17.415   8.808   3.969 -0.1626  0.0629 -0.1695
29326W        W45460  14.390   0.034   2.439 -0.3962 -0.1467  0.1686
29327W        W45461  16.579  10.787   0.550  0.4056  0.0243 -0.0354
29328W        W45462  14.960  16.005   0.842 -0.1295  0.1503 -0.3292
29329W        W45463   7.490   9.575  15.098  0.0508 -0.2575 -0.0320
29330W        W45464   0.657  10.487  15.712 -0.2280  0.0323  0.2424
29331W        W45465   9.934  16.486  15.135  0.2988 -0.0220 -0.2544
29332W        W45466  17.941   6.712   2.226  0.2228 -0.2301  0.2827
29333W        W45467  16.719  12.890  15.129 -0.0498  0.0858 -0.0614
29334W        W45468   0.583  10.593  13.359  0.2021 -0.0008  0.0175
29335W        W45469   1.305   7.808  11.331 -0.5043  0.0343 -0.2996
29336W        W45470  13.749   4.103  15.915 -0.0765  0.2246 -0.1944
29337W        W45471   4.247   0.849   0.621 -0.2022  0.1560  0.0330
29338W        W45472  15.589  11.182   4.759  0.2081  0.0367 -0.2298
29339W        W45473  17.425   6.549  12.519  0.0900  0.0003 -0.4452
29340W        W45474  11.234   2.274   4.314 -0.0355 -0.0796  0.1923
29341W        W45475   9.575  18.295  11.820 -0.0934 -0.2450 -0.0873
29342W        W45476  13.181  12.460  14.587 -0.4551 -0.0408  0.1758
29343W        W45477  10.807  16.513  12.409 -0.2809 -0.0083 -0.1625
29344W        W45478  11.855   4.954  11.598  0.1930  0.0946 -0.1219
29345W        W45479  12.240  11.829   1.498 -0.2794  0.1153  0.3205
29346W        W45480   7.010  15.453   4.309 -0.1454  0.4585 -0.1328
29347W        W45481  15.492  15.321  15.766  0.1071  0.1831  0.1306
29348W        W45482   6.572  16.792  12.925 -0.0882 -0.0100 -0.2692
29349W        W45483  18.407   1.024   1.485  0.0127  0.1710  0.2913
29350W        W45484   7.356   8.707   0.413  0.0212  0.0430 -0.2772
29351W        W45485  17.539  18.417   1.791 -0.0235 -0.1548  0.0323
29352W        W45486   6.492   9.283  12.121 -0.0829  0.5182  0.0976
29353W        W45487  17.506   9.479   4.557  0.1526 -0.2637  0.3880
29354W        W45488  16.746  10.898   5.130 -0.1402 -0.0775 -0.0412
29355W        W45489   7.254  16.373  11.750  0.2630 -0.2165 -0.0478
29356W        W45490  16.561   6.405   4.418  0.1768 -0.1012  0.1125
29357W        W45491   1.284  12.585   0.551  0.1749  0.1677 -0.2016
29358W        W45492   3.648   4.704   0.165  0.5181 -0.1666  0.2621
29359W        W45493   9.503  18.114  15.287 -0.0442 -0.0243 -0.2048
29360W        W45494  13.951   1.475  14.529  0.1883  0.2335  0.0518
29361W        W45495   2.748  10.412  10.798 -0.0962 -0.2279  0.3173
29362W        W45496  11.153   2.106  15.127 -0.1824 -0.0127  0.0606
29363W        W45497  13.200  11.155  11.782 -0.2993 -0.2972  0.0860
29364W        W45498   6.074  11.573  13.694  0.1733  0.4960  0.1613
29365W        W45499  17.070   6.285  14.343  0.0330 -0.0672 -0.1916
29366W        W45500  15.685   1.710   0.244 -0.1924 -0.2298  0.2797
29367W        W45501   6.893   6.814  15.907 -0.1021  0.2241  0.2013
29368W        W45502  14.870  10.915   1.094  0.1812  0.4694 -0.0527
29369W        W45503  17.756   6.690  10.733  0.0652  0.2864 -0.1860
29370W        W45504  13.074   3.282   2.765 -0.0769 -0.3790 -0.1417
29371W        W45505  13.887  17.750   1.149  0.1632 -0.3352  0.0201
29372W        W45506   0.740   7.069   3.917 -0.2551  0.1639 -0.2762
29373W        W45507   9.559   0.288   1.150 -0.3329  0.0710 -0.1927
29374W        W45508   0.998  18.233   0.404  0.0453 -0.0057  0.2868
29375W        W45509   5.925   7.064  12.519  0.2174  0.0793 -0.2233
29376W        W45510   4.090   2.070  13.767  0.0916 -0.1031  0.0534
29377W        W45511  14.660  16.525  11.548  0.1293 -0.1257 -0.1478
29378W        W45512   0.709   9.717  12.352  0.0227 -0.0288  0.0320
29379W        W45513  13.759   0.930   2.242 -0.1062  0.0213 -0.0610
29380W        W45514  10.684  12.727  11.496  0.1518 -0.2007 -0.2510
29381W        W45515   0.451  15.838  11.812  0.2058  0.0969 -0.2083
29382W        W45516   4.725  14.863  14.805 -0.0918 -0.0109 -0.2882
29383W        W45517   2.938  11.130  15.801  0.3157  0.0505  0.0825
29384W        W45518  11.650   7.876  15.872 -0.3090 -0.0708  0.1791
29385W        W45519   0.817   4.560   4.128  0.0998  0.2263  0.1048
29386W        W45520   9.256  12.075  13.706 -0.0271  0.0521 -0.1776
29387W        W45521  12.610   9.589   0.697 -0.2960  0.2188  0.1407
29388W        W45522   1.176   3.022   4.374  0.0423  0.1451 -0.1969
29389W        W45523  18.005  12.123   3.224 -0.0528  0.0012  0.0597
29390W        W45524   4.034  15.902  11.290  0.2247  0.2341 -0.1630
29391W        W45525  10.274  15.128  14.780 -0.1036 -0.0223 -0.1825
29392W        W45526   4.725  11.850  10.904 -0.2147  0.1810 -0.2834
29393W        W45527  13.778  16.647  15.216 -0.0503 -0.0617 -0.0799
29394W        W45528  11.453  10.170  12.381 -0.1433  0.1691 -0.1112
29395W        W45529   6.999  12.088   3.199 -0.3063 -0.2223 -0.2069
29396W        W45530   7.748   6.799  16.061  0.1410  0.0791  0.2221
29397W        W45531  10.223  12.545   5.419  0.0537 -0.0595 -0.1572
29398W        W45532   0.484   0.024  11.795 -0.0391 -0.0481  0.3726
29399W        W45533  11.541   1.755   4.591 -0.1360  0.2106  0.0460
29400W        W45534  17.072   9.227   4.650  0.1025  0.2739  0.3798
29401W        W45535   4.929  11.041   3.694  0.2211 -0.2170  0.0363
29402W        W45536   6.463   7.671   2.230  0.0738  0.3572 -0.0305
29403W        W45537  12.112  10.921   0.909  0.1731 -0.2336 -0.1268
29404W        W45538   9.348   3.474   6.386 -0.0665  0.0455  0.1687
29405W        W45539   7.334  17.291  11.814 -0.0320  0.0006 -0.1200
29406W        W45540   1.469  13.740  14.307  0.1534 -0.4030 -0.0549
29407W        W45541   6.944   2.117  13.552  0.1279  0.0918 -0.0961
29408W        W45542   0.567  17.835  15.495  0.1610  0.1805 -0.2764
29409W        W45543   7.347  11.186   4.045  0.4899 -0.0743 -0.2130
29410W        W45544  15.619   1.522  13.489  0.0318 -0.0562 -0.1843
29411W        W45545   6.659   0.677   2.448 -0.1471 -0.0700 -0.0448
29412W        W45546   0.680   9.928   4.695 -0.0446  0.1791 -0.1666
29413W        W45547   7.962  15.612  14.361 -0.0267 -0.3856  0.1525
29414W        W45548  10.591   6.750  15.192 -0.3569 -0.2557 -0.2213
29415W        W45549  18.266   8.370  10.369 -0.1574  0.2084  0.2237
29416W        W45550   0.033  13.129  10.824 -0.1889 -0.2003 -0.1207
29417W        W45551   3.119   8.713   4.625  0.0793 -0.0404  0.1680
29418W        W45552   2.061  17.763   3.166  0.3031  0.2582 -0.1613
29419W        W45553  10.647  11.087  14.252  0.0456  0.0535 -0.2107
29420W        W45554   0.450   0.326   4.233  0.1620  0.2613 -0.0604
29421W        W45555   0.156   5.193  12.598 -0.3174 -0.0360 -0.2111
29422W        W45556  13.609   6.465   3.762  0.1107  0.0426 -0.0231
29423W        W45557   8.605   1.555  12.595  0.0919 -0.0497 -0.1574
29424W        W45558   8.076  16.417  15.576 -0.3159  0.2688  0.1781
29425W        W45559  11.881  14.034  12.689  0.0426  0.0781  0.0148
29426W        W45560   1.423   9.177  12.696  0.1333 -0.1444 -0.2177
29427W        W45561  11.868  13.461  10.311  0.2353 -0.1576  0.4001
29428W        W45562   7.709  12.258  12.397  0.0926  0.0474  0.0631
29429W        W45563  10.960   8.016   3.536 -0.1119 -0.1762 -0.1139
29430W        W45564   4.257   5.271   4.685 -0.0111 -0.1749 -0.1627
29431W        W45565  14.025   9.867   2.934 -0.0072  0.1134  0.0341
29432W        W45566   3.250  16.866  14.531  0.1913  0.0908  0.1254
29433W        W45567   2.541   0.339   4.421  0.4107 -0.1312  0.2189
29434W        W45568  18.119  15.308   0.608 -0.1137 -0.0768  0.2275
29435W        W45569   0.220   4.194  14.910  0.3756 -0.0570  0.0398
29436W        W45570   4.632   1.765  13.921 -0.0077 -0.2094 -0.0001
29437W        W45571   4.105   9.040  12.478 -0.0190 -0.1701 -0.2862
29438W        W45572   3.118  11.592   9.330  0.2583  0.2559  0.0737
29439W        W45573  10.094  11.439   2.871  0.3075  0.0189 -0.2279
29440W        W45574   6.160  10.252   4.262  0.0224  0.1533  0.0468
29441W        W45575   5.895  14.549   3.446  0.1897 -0.0868  0.0155
29442W        W45576   6.607  15.949   4.095  0.3627 -0.2979 -0.1478
29443W        W45577   8.673  17.907  13.734 -0.1705 -0.0476  0.0303
29444W        W45578  12.219  14.455   3.002 -0.2889 -0.0571 -0.2938
29445W        W45579  16.524   1.711  13.461 -0.1743 -0.1118 -0.0635
29446W        W45580  13.100  10.785   3.554  0.3030  0.1160  0.3610
29447W        W45581   5.785   1.640  13.718 -0.0846  0.1396 -0.3149
29448W        W45582  16.298  12.420   0.333  0.2471 -0.0037 -0.2065
29449W        W45583  13.571  15.019   2.773  0.0260  0.3191 -0.1842
29450W        W45584   3.380   2.891   4.102 -0.0883 -0.1253  0.1847
29451W        W45585  15.777   9.982  11.061 -0.0503  0.0346 -0.1886
29452W        W45586  17.197  12.944  15.461 -0.1548 -0.4411 -0.2413
29453W        W45587   2.585  17.064   2.881 -0.2604 -0.3517 -0.1050
29454W        W45588   4.181   8.945  13.013  0.0807  0.3059  0.0574
29455W        W45589   7.436  17.634   5.593 -0.0063 -0.1612  0.2502
29456W        W45590   4.617  12.599   9.589 -0.2222  0.2815  0.1630
29457W        W45591   9.865   6.435  12.899 -0.2211  0.0046  0.0708
29458W        W45592   4.361  16.617   1.256 -0.0430 -0.0062 -0.1175
29459W        W45593   1.990  13.288  12.779 -0.1924 -0.0708 -0.1428
29460W        W45594  10.316   2.472  12.237 -0.1402  0.0282 -0.1412
29461W        W45595   7.974   5.359   0.389 -0.0174 -0.1418 -0.0593
29462W        W45596   8.764  12.690  13.096 -0.0182 -0.1144  0.0798
29463W        W45597  16.789  13.768   3.451  0.0662  0.0972  0.1852
29464W        W45598  12.519   6.671  15.545 -0.0992 -0.0318  0.1049
29465W        W45599  10.724   4.890   4.748  0.1252 -0.1133  0.0139
29466W        W45600   8.615  14.073   4.577  0.1426  0.3033 -0.0312
29467W        W45601  15.554  11.472  14.308  0.1010 -0.0016 -0.0216
29468W        W45602   1.492  16.122   3.849  0.0328  0.0073  0.0902
29469W        W45603   1.019  12.407  14.640 -0.1404 -0.2394  0.1879
29470W        W45604   2.907  15.721   1.914  0.1301  0.2656  0.0631
29471W        W45605  14.793   9.182   3.064 -0.1616 -0.0706  0.2862
29472W        W45606  10.913   0.911   4.902 -0.4483  0.1851 -0.0996
29473W        W45607  15.693  13.264   1.244  0.1544  0.0824 -0.0758
29474W        W45608  11.718  13.664   4.119 -0.2295  0.2110 -0.3964
29475W        W45609   3.111   0.947  11.131 -0.0699 -0.0826  0.1417
29476W        W45610  13.008  12.077  12.167 -0.0744  0.0872  0.1662
29477W        W45611  14.883  16.512   5.422  0.1014  0.0942  0.0350
29478W        W45612  12.396  17.575  13.799 -0.0764  0.0290  0.1306
29479W        W45613   7.012  12.354  13.070 -0.1879 -0.0239 -0.1188
29480W        W45614   0.886   0.060   1.320  0.1088 -0.1726 -0.0807
29481W        W45615  17.725  10.051   3.480  0.0034  0.0786 -0.2297
29482W        W45616   3.581  18.452  12.639 -0.0151  0.3599 -0.0431
29483W        W45617  17.041   7.034  11.049  0.1249 -0.1875 -0.0873
29484W        W45618   3.183  16.152   2.161  0.1377 -0.1723  0.0272
29485W        W45619   3.737  18.366   1.097 -0.2596  0.0710  0.1723
29486W        W45620  17.047  11.267   0.951 -0.0323  0.0137 -0.1734
29487W        W45621  14.771   9.958  12.513  0.0772 -0.2489 -0.1249
29488W        W45622   6.022   1.752  15.585 -0.0551 -0.0486 -0.2228
29489W        W45623  12.597   2.716   0.711 -0.2052 -0.1491  0.1901
29490W        W45624   1.936   9.433  11.236 -0.0673  0.0919  0.1920
29491W        W45625  14.633  10.055  13.811 -0.2696 -0.1153 -0.1885
29492W        W45626  16.570   8.808  12.618 -0.1360  0.2890 -0.3662
29493W        W45627  13.203   6.730   0.837  0.2447  0.0832 -0.1684
29494W        W45628  10.653  12.158   5.040 -0.1345 -0.2477 -0.2047
29495W        W45629  16.439   7.440  14.590 -0.0042 -0.1179 -0.0053
29496W        W45630  16.945  17.111   0.779  0.3138 -0.2426  0.0204
29497W        W45631  14.768  18.289   3.868  0.2419  0.1406  0.1821
29498W        W45632  13.750   9.632   0.062 -0.0354 -0.0985  0.3178
29499W        W45633  10.482  12.799  13.960  0.3068  0.1454 -0.1237
29500W        W45634  13.191   0.232   5.458 -0.2727 -0.1260  0.0674
29501W        W45635  11.223   4.087   3.566 -0.2918 -0.2173 -0.0227
29502W        W45636   5.818  10.613   3.824  0.0395 -0.2409  0.0589
29503W        W45637   0.293   0.595  15.068  0.1604 -0.1176 -0.3819
29504W        W45638  10.549  12.884   1.092  0.2075  0.0086 -0.3268
29505W        W45639   2.663   8.430  14.317  0.5403 -0.3704  0.2417
29506W        W45640   3.138  13.396   1.359  0.1736  0.1294 -0.1318
29507W        W45641   3.154  17.919  13.603  0.2780  0.2254 -0.0440
29508W        W45642  12.750  14.237  12.429  0.0248 -0.1584 -0.1606
29509W        W45643  15.162   8.531  14.479  0.0558 -0.0399 -0.0363
29510W        W45644  17.288  10.331   5.726 -0.2096  0.0830 -0.0107
29511W        W45645  18.345   4.203   1.739 -0.0176 -0.0596 -0.3945
29512W        W45646   2.387  10.953  10.651 -0.1819 -0.0439 -0.3685
29513W        W45647  16.189  16.569  14.422  0.0375  0.1756  0.1863
29514W        W45648  17.890   5.928  12.139  0.2081 -0.0193 -0.1063
29515W        W45649  13.632   6.365  12.091  0.0065 -0.0082 -0.4182
29516W        W45650  13.585  18.480  14.378 -0.2787 -0.0403 -0.2270
29517W        W45651   6.794  12.871   2.385 -0.2982  0.1552  0.0901
29518W        W45652   4.873   7.636  13.315  0.0182 -0.0118 -0.0616
29519W        W45653   9.023  11.360   1.142  0.1558 -0.0315 -0.0161
29520W        W45654   8.328   0.314   1.131 -0.0029  0.3226  0.0622
29521W        W45655   9.188  11.445  15.876 -0.3110  0.0879  0.0057
29522W        W45656   9.861  13.088   3.994 -0.3430 -0.4416  0.3249
29523W        W45657  14.455   4.542  14.167 -0.2899  0.0261 -0.1130
29524W        W45658  16.758   4.436   4.360  0.0818  0.0923 -0.2867
29525W        W45659   1.614   2.686   2.986 -0.1601 -0.2032 -0.0351
29526W        W45660  13.999   2.956   3.927  0.0530 -0.0481 -0.0330
29527W        W45661   8.543  13.280   5.256 -0.0478  0.1825 -0.0330
29528W        W45662   5.736  15.625   1.504  0.0659  0.1147 -0.0006
29529W        W45663  12.289  18.276   2.742 -0.0025  0.2107  0.3938
29530W        W45664   1.927  15.838   2.306  0.2107 -0.5882  0.1953
29531W        W45665  11.526  11.295   4.281 -0.2760  0.1014  0.1076
29532W        W45666  16.995  14.397   1.689 -0.2824 -0.0070  0.4810
29533W        W45667  11.288  10.518   0.820 -0.1265  0.1955 -0.0354
29534W        W45668   2.596   6.335  15.366  0.0764 -0.2313 -0.0943
29535W        W45669  11.627  14.376  14.569 -0.2161 -0.1841 -0.2730
29536W        W45670   5.764   1.269  12.247 -0.0413 -0.1691  0.0324
29537W        W45671   9.582   0.817   4.707  0.4285 -0.0425 -0.0582
29538W        W45672  17.538  15.175  13.109  0.4147 -0.1080  0.0467
29539W        W45673  17.691   4.463  10.836  0.0414  0.2903  0.0586
29540W        W45674   2.165   2.688   0.790  0.0748 -0.0224 -0.0820
29541W        W45675  18.406   5.512   3.151  0.3125 -0.2269 -0.0747
29542W        W45676  17.535   3.729   3.444  0.2916  0.1084  0.1139
29543W        W45677   6.004   6.066  12.681 -0.1890 -0.2583 -0.2083
29544W        W45678  11.827   7.403   3.140  0.0231  0.0981  0.0043
29545W        W45679   6.625  16.873  13.416 -0.0062 -0.0764 -0.0673
29546W        W45680  18.087   0.148   4.480  0.2045  0.0199 -0.1328
29547W        W45681   5.438   9.271   2.999 -0.0809 -0.0239 -0.0231
29548W        W45682   1.609  12.906  15.144 -0.1899 -0.0616  0.1123
29549W        W45683   5.845  10.641  13.817  0.0174 -0.1778  0.1528
29550W        W45684   1.068   5.139  15.415  0.1691 -0.1569  0.2041
29551W        W45685  14.207   9.754   3.484 -0.1532 -0.1968  0.2042
29552W        W45686   1.468   3.727  15.003  0.2514  0.2697  0.2403
29553W        W45687  12.565  11.708   2.477 -0.1288  0.1872 -0.2085
29554W        W45688   1.697  15.199  12.559  0.0326 -0.3320 -0.0515
29555W        W45689   0.115   6.632  14.707  0.4094 -0.1197 -0.0931
29556W        W45690  17.913   0.276  14.209  0.0930  0.0520  0.0932
29557W        W45691   9.165  16.009   5.696 -0.0322 -0.0864  0.0551
29558W        W45692  12.237   6.596   3.314  0.2127  0.0453  0.0168
29559W        W45693   6.476  16.364  12.215 -0.1457 -0.1806  0.1001
29560W        W45694  17.089   7.346  12.745  0.2162  0.3318  0.1138
29561W        W45695   7.923  13.788   2.785  0.1028  0.1210  0.0048
29562W        W45696   3.096  13.299  10.834  0.0867  0.2680 -0.2148
29563W        W45697  16.712   2.760   3.739 -0.1527  0.2221 -0.1556
29564W        W45698  15.630  10.460  12.515 -0.0570  0.1929  0.0495
29565W        W45699   7.218  14.413   2.695 -0.0160  0.0611 -0.2250
29566W        W45700  16.194   8.111  11.496 -0.0920  0.0401  0.3029
29567W        W45701  11.547  18.469   4.043 -0.1543  0.1359  0.0463
29568W        W45702  11.241  11.428   0.465  0.1513  0.0881 -0.0579
29569W        W45703   8.242  14.766   0.555 -0.1084  0.1887  0.1301
29570W        W45704   9.988  15.136   1.819 -0.2504 -0.0117  0.1781
29571W        W45705   3.196   3.579   0.750 -0.0471  0.2437 -0.1658
29572W        W45706   8.434   5.324   3.858 -0.2140  0.1370 -0.1297
29573W        W45707   7.473  14.779   1.687  0.0416  0.1638  0.1605
29574W        W45708   0.363  18.045  15.077 -0.1908  0.1952  0.1783
29575W        W45709  10.279  14.761   5.009 -0.3870  0.0087  0.0871
29576W        W45710  12.712   6.603  13.832  0.1970 -0.1425  0.0838
29577W        W45711   5.751   1.612   1.211  0.0148 -0.2478 -0.0510
29578W        W45712  15.275  15.323  11.589 -0.0161 -0.0461 -0.1650
29579W        W45713   6.800   5.628   1.976  0.2502  0.0072  0.0863
29580W        W45714   9.138   4.093   1.021  0.1469  0.0256 -0.0521
29581W        W45715   5.696  15.008   5.472  0.0829 -0.0439  0.2502
29582W        W45716   1.627   5.035   1.184  0.2965 -0.3250  0.0068
29583W        W45717   8.134  13.772  10.693 -0.2976  0.2902 -0.1176
29584W        W45718  14.055   6.965   5.171  0.1602 -0.1042 -0.1998
29585W        W45719  17.646   7.780  15.578 -0.0035  0.3649 -0.1882
29586W        W45720  11.880   1.716  15.098  0.2036  0.0557  0.1118
29587W        W45721   4.114   1.127   1.232  0.0686 -0.0475 -0.1249
29588W        W45722  16.333   1.681   4.778  0.2908  0.2669  0.1537
29589W        W45723   8.589   3.112  14.787 -0.2272 -0.0750 -0.2514
29590W        W45724   6.202  13.503   5.036 -0.0149 -0.2396  0.0752
29591W        W45725  12.205   4.161  14.239  0.2738 -0.1873 -0.0808
29592W        W45726   8.715  18.134   0.898 -0.1439  0.0979  0.3294
29593W        W45727   7.914  15.042   0.275  0.1199  0.1464 -0.1318
29594W        W45728  12.376   9.867  13.388 -0.1849 -0.1240 -0.2544
29595W        W45729   0.580   4.464  10.839  0.3083 -0.2884  0.1181
29596W        W45730  10.645  16.820   0.838 -0.1997 -0.0866 -0.1366
29597W        W45731   3.746  12.668   4.474  0.1013  0.0280 -0.1579
29598W        W45732   5.293   4.437   6.170 -0.2393  0.3854  0.1692
29599W        W45733   0.691   8.524  14.061  0.2350  0.1448 -0.3346
29600W        W45734   7.984   8.530   2.490 -0.1655  0.0968 -0.1063
29601W        W45735  17.969   7.229  10.792 -0.1379 -0.0851  0.1804
29602W        W45736   8.362   5.366   1.197  0.0826  0.0351  0.2401
29603W        W45737   9.265  16.205  15.249  0.2855  0.1409  0.1249
29604W        W45738  11.127  18.197   2.071  0.3202 -0.0577 -0.2913
29605W        W45739  15.360   2.624  11.649  0.1053 -0.2598  0.3059
29606W        W45740  17.018  12.033  11.872 -0.1137  0.0362 -0.1229
29607W        W45741   4.958   0.163   4.459 -0.0010 -0.2813  0.1058
29608W        W45742  11.945  16.293  13.489 -0.1537  0.2140  0.2281
29609W        W45743   7.748   5.503   1.330  0.1167  0.1175 -0.1544
29610W        W45744   4.739  17.332   3.653 -0.1342 -0.1784  0.4014
29611W        W45745  12.642   4.119   0.139 -0.1596  0.2679  0.1507
29612W        W45746   1.701  16.496   0.760  0.2964 -0.0740  0.1341
29613W        W45747   1.910  16.450   1.757 -0.1308 -0.0521  0.0293
29614W        W45748  14.686  10.135  15.089 -0.2169 -0.2019 -0.1350
29615W        W45749   2.713  13.501  13.779  0.2504 -0.3719  0.0732
29616W        W45750  11.783  17.929  11.844 -0.0887  0.0040 -0.1783
29617W        W45751   4.417  16.067   2.989  0.0967  0.0650  0.1175
29618W        W45752  15.262  10.401  12.028 -0.2879  0.0213 -0.0878
29619W        W45753  16.221   8.237   0.073 -0.0296 -0.3541 -0.1213
29620W        W45754  12.839  12.616   1.984 -0.0839  0.2115 -0.0223
29621W        W45755   1.966  14.399   5.145  0.1068  0.2079  0.5161
29622W        W45756   3.943  16.220   0.062  0.0538 -0.0404  0.4585
29623W        W45757  15.048   3.797   0.441 -0.1037  0.1119 -0.2000
29624W        W45758   8.615   9.586   1.793 -0.2838 -0.1319  0.0541
29625W        W45759   1.231  14.382   4.922  0.2046  0.4094 -0.2520
29626W        W45760  17.212  17.170  13.783  0.1117 -0.1382  0.1878
29627W        W45761   0.473   1.702  11.670  0.1494  0.1592 -0.1502
29628W        W45762  17.864   4.559  12.643 -0.3670  0.3063 -0.0495
29629W        W45763  16.219   0.855  12.610  0.2414  0.0222 -0.0679
29630W        W45764   9.959  17.092  12.019  0.0047  0.3274  0.2068
29631W        W45765   7.883   0.074  13.663 -0.0310 -0.1263  0.0010
29632W        W45766  11.809   0.599   5.548 -0.0172 -0.2100 -0.2366
29633W        W45767  16.366   4.177  13.644  0.1413  0.3705  0.1075
29634W        W45768   9.428  11.302   1.855 -0.0368  0.0820 -0.1500
29635W        W45769   0.747  13.170  15.198 -0.0500 -0.3320 -0.0024
29636W        W45770  12.235  18.146  11.944 -0.1184 -0.0727 -0.0560
29637W        W45771  12.758  11.547   0.945 -0.2704 -0.2289  0.3559
29638W        W45772  14.719  17.135  10.940 -0.1427 -0.2862 -0.1636
29639W        W45773   1.049   3.461  14.874  0.2225 -0.0726 -0.2142
29640W        W45774   1.813   6.061   2.719 -0.2186  0.0916 -0.1538
29641W        W45775  17.481   9.078   3.239  0.2364  0.0934  0.1119
29642W        W45776   1.420   9.453  15.353  0.0460 -0.0526 -0.1905
29643W        W45777  12.375  11.378  15.238  0.0371  0.2227  0.0935
29644W        W45778   7.891   7.632  10.849 -0.1635 -0.1868 -0.3084
29645W        W45779   9.858  15.462   2.846  0.2248 -0.1334 -0.0733
29646W        W45780  14.750   4.573  11.429 -0.0412 -0.6405  0.0108
29647W        W45781   9.153  14.756   4.329  0.1045 -0.1559  0.0909
29648W        W45782  10.961  16.421   0.681 -0.0658 -0.1515 -0.1762
29649W        W45783  18.418  11.655  12.342 -0.0430  0.4149  0.1611
29650W        W45784   6.729   9.940   4.374 -0.2708 -0.0738  0.4518
29651W        W45785   5.432   4.253  15.211 -0.1274 -0.0048  0.1861
29652W        W45786   5.667  16.915   1.800 -0.1936  0.0302 -0.0311
29653W        W45787  14.164   4.945  14.489  0.2071  0.0516 -0.2826
29654W        W45788  14.098   7.235  12.054  0.3140 -0.1423 -0.3655
29655W        W45789   2.349   2.087   3.597 -0.0548 -0.0301 -0.2220
29656W        W45790   4.739  10.025  13.063 -0.1849  0.0305  0.2988
29657W        W45791   4.720   8.606   2.724 -0.1600  0.1836  0.1213
29658W        W45792  14.593   1.987   1.948 -0.0855  0.1832 -0.0445
29659W        W45793  15.004   2.301  13.478  0.0529 -0.0409  0.0824
29660W        W45794   7.993   0.676   2.267  0.0281  0.3318 -0.3902
29661W        W45795  10.854   8.946   2.185  0.0257  0.1031 -0.0360
29662W        W45796   4.172   9.430  10.790  0.2859  0.0077 -0.1169
29663W        W45797  10.140   5.652   3.908 -0.2404 -0.5283 -0.2554
29664W        W45798  16.374  18.331   0.692 -0.1154  0.1032 -0.0823
29665W        W45799   9.642  11.806   0.153  0.0854  0.0792 -0.1716
29666W        W45800   3.751  14.826   1.549  0.0964  0.2509  0.3902
29667W        W45801   0.138  10.318  13.964  0.1907 -0.1472 -0.0776
29668W        W45802  13.980   2.691   1.293  0.1694 -0.0211 -0.0934
29669W        W45803   7.917   1.917  15.712  0.1896 -0.0280  0.0980
29670W        W45804  11.185   0.968   2.322  0.3258  0.0905 -0.1429
29671W        W45805   4.155  16.470  14.983 -0.0388  0.3058 -0.0311
29672W        W45806  12.828   2.307  12.333  0.2288 -0.1052 -0.0539
29673W        W45807   5.292   3.505   3.849  0.3091 -0.1385  0.0894
29674W        W45808   9.774   8.293   3.817  0.1390  0.2221  0.0045
29675W        W45809  13.194   8.070   5.383  0.0796  0.1727  0.0005
29676W        W45810   3.753   7.410  12.335 -0.1383  0.1504 -0.0571
29677W        W45811  13.486   6.133   5.031 -0.3381  0.3319  0.0414
29678W        W45812   5.407   9.086  12.485  0.2663 -0.0129 -0.0862
29679W        W45813   1.061  10.046  12.791  0.3601 -0.4086 -0.0257
29680W        W45814   1.786  16.004   0.867 -0.2502 -0.0686  0.3134
29681W        W45815  17.061   8.005  14.970 -0.0828 -0.0225 -0.1430
29682W        W45816   9.573  11.803  13.421  0.1315  0.2449 -0.1166
29683W        W45817   0.269   8.656  15.443 -0.1687  0.1400 -0.2869
29684W        W45818  11.393   8.768  14.879  0.0871 -0.0536 -0.1052
29685W        W45819   7.991   0.748   1.003  0.0044  0.0801  0.1094
29686W        W45820   6.640   9.822  12.333 -0.3014  0.2371 -0.3730
29687W        W45821   8.723   0.157  15.346  0.0905  0.1853 -0.0124
29688W        W45822   9.256   8.142  12.962 -0.2666  0.1733 -0.0850
29689W        W45823   1.322   4.200  14.305 -0.2426 -0.1203  0.2968
29690W        W45824  14.802  13.792   4.176  0.1727  0.0495 -0.1136
29691W        W45825   6.163   2.936  13.417  0.0521 -0.2307  0.0685
29692W        W45826   3.641  15.947   3.537 -0.4525 -0.1928 -0.2017
29693W        W45827   4.150  12.107  15.307  0.1730  0.1607  0.1178
29694W        W45828  12.703   3.715   0.542 -0.2162 -0.0355 -0.1330
29695W        W45829   2.446  15.805  14.150 -0.2068  0.0918  0.0566
29696W        W45830  14.178  12.009   4.550 -0.0829  0.2481  0.2194
29697W        W45831  10.975   3.058  15.162  0.3717  0.2384 -0.2707
29698W        W45832  15.513   5.923   3.507 -0.2979 -0.1182 -0.3190
29699W        W45833   7.251   4.074  13.123 -0.0344 -0.1935 -0.3284
29700W        W45834   1.763   4.884   4.827 -0.1209  0.3277 -0.0880
29701W        W45835  13.476  18.001  14.645 -0.1266  0.1532  0.0449
29702W        W45836   9.639  14.992  14.446 -0.2689 -0.0495  0.2093
29703W        W45837   8.506   8.400   2.468  0.1532 -0.0427 -0.0159
29704W        W45838  17.165   3.573  12.701 -0.2450  0.0079 -0.0733
29705W        W45839   6.407   2.228   4.097  0.0518  0.0285 -0.1073
29706W        W45840   6.927   8.624   0.212  0.0182  0.1284 -0.0744
29707W        W45841  13.076   1.613   2.820  0.2395  0.0313 -0.2750
29708W        W45842   6.677  11.773   4.128  0.3296 -0.0386 -0.1473
29709W        W45843   4.118  11.005  13.334 -0.0157 -0.3346 -0.4127
29710W        W45844  16.755   3.507   2.584  0.1384 -0.0716  0.0438
29711W        W45845  16.615   1.983  15.083  0.3760 -0.1773 -0.1040
29712W        W45846   8.977   2.640  15.374 -0.0141 -0.1725  0.2951
29713W        W45847  13.832   4.382  12.368  0.0004 -0.0550 -0.3438
29714W        W45848  12.656   6.000  12.482 -0.0404  0.0998  0.3895
29715W        W45849   4.491   9.498  14.277 -0.2360  0.0847  0.1569
29716W        W45850  17.744  13.789  15.729  0.0919 -0.1074  0.1825
29717W        W45851  12.125  14.372  14.683  0.1652  0.0348 -0.2033
29718W        W45852  13.468  10.764   1.411 -0.1918 -0.0821  0.0113
29719W        W45853   1.926  15.662  12.491  0.1046 -0.0050 -0.0025
29720W        W45854  12.024   9.494  14.926 -0.0230 -0.2741  0.0464
29721W        W45855  12.896   6.989  15.499 -0.0112 -0.4000  0.0616
29722W        W45856  12.526  13.584  15.063 -0.1709  0.1013 -0.0266
29723W        W45857   0.454   6.717   5.361 -0.2671  0.0383 -0.1289
29724W        W45858  13.461  11.958  14.415 -0.1671  0.2273 -0.2522
29725W        W45859  12.668   8.608   0.377 -0.3246 -0.0698  0.1327
29726W        W45860  11.881   5.426   4.513  0.1403 -0.0341 -0.1563
29727W        W45861  18.063   7.316  14.325  0.0542  0.1677 -0.0979
29728W        W45862   7.269  15.639  15.654 -0.2867  0.0492 -0.1277
29729W        W45863  17.478  10.678  11.076  0.0085  0.0495  0.1214
29730W        W45864  18.090   9.053   3.254  0.1875 -0.2180 -0.1924
29731W        W45865   1.685  15.233   3.548  0.0019  0.0206  0.0658
29732W        W45866   0.932   3.964   3.422 -0.2150 -0.0735  0.0946
29733W        W45867  10.061   0.956   5.500  0.0098  0.1745 -0.2513
29734W        W45868   5.341   5.141  10.113  0.0380  0.0776  0.0803
29735W        W45869  16.648   2.091   0.826  0.0465 -0.0151  0.6087
29736W        W45870   9.564  15.611  12.082 -0.2087  0.1043  0.2614
29737W        W45871   6.745  13.587   1.145 -0.0204  0.2392  0.3631
29738W        W45872   6.813   5.260  15.579 -0.0097 -0.1874 -0.2875
29739W        W45873   2.870  10.850  13.031 -0.1587 -0.0154 -0.0182
29740W        W45874  17.628  16.037  15.144 -0.0460  0.2506 -0.1473
29741W        W45875  14.804   6.105  12.885  0.2248  0.5841 -0.0596
29742W        W45876  14.790   3.252   4.538 -0.0021  0.1947  0.1961
29743W        W45877  16.693  12.686   5.378  0.1400  0.4806 -0.2057
29744W        W45878   0.663  12.104   2.656  0.4476  0.0902  0.1077
29745W        W45879   2.499   1.784  14.661  0.0227 -0.1148 -0.0526
29746W        W45880  14.929   1.557  14.616  0.0041 -0.0071 -0.0215
29747W        W45881  12.817  10.418   5.286  0.1596 -0.0160 -0.0873
29748W        W45882  16.393   0.387  14.951  0.0224  0.1567  0.0491
29749W        W45883  16.401  12.526  11.425 -0.1781 -0.1071  0.0842
29750W        W45884   2.541   5.185   1.302 -0.0779 -0.1522 -0.4831
29751W        W45885  14.646  14.669  11.191 -0.1148 -0.1185 -0.0802
29752W        W45886  13.604  11.677  13.652  0.1887 -0.0968 -0.1081
29753W        W45887  10.588   1.844   0.149  0.1894 -0.0849 -0.3556
29754W        W45888  15.256   7.610  14.641  0.0105  0.0427 -0.0193
29755W        W45889   5.258  12.355   4.141  0.2212 -0.0622  0.0110
29756W        W45890   5.496  16.244   5.398 -0.1780  0.0349 -0.1499
29757W        W45891   2.626  16.202   0.682  0.0347 -0.1102 -0.3536
29758W        W45892   2.010  18.250  15.692  0.0644 -0.4333  0.0240
29759W        W45893   2.016   3.609  14.014 -0.0575 -0.1798  0.2978
29760W        W45894   6.467   0.403   0.764  0.2001 -0.1365  0.2173
29761W        W45895   9.935   0.461  11.768  0.0177  0.1352  0.3174
29762W        W45896  12.489   9.577  11.796 -0.4539 -0.0723 -0.0313
29763W        W45897   6.489   3.434  15.104 -0.4375 -0.0908 -0.0724
29764W        W45898   4.107  12.208  11.485 -0.3506  0.1537 -0.1630
29765W        W45899  11.554   6.211   4.658  0.1416 -0.0973  0.2128
29766W        W45900   6.540   6.490   2.231  0.1287 -0.0072 -0.5137
29767W        W45901  16.746   3.727  14.107  0.0589  0.2556 -0.1882
29768W        W45902   2.899   8.734  10.533 -0.2501  0.2947 -0.0153
29769W        W45903   5.375  17.292  13.493  0.2848  0.0567 -0.0425
29770W        W45904  11.095   3.834   2.174  0.0789 -0.1804 -0.0847
29771W        W45905  13.866  13.633   2.621  0.0964 -0.2869 -0.0863
29772W        W45906  13.977  14.882  13.948 -0.1582 -0.1330 -0.1957
29773W        W45907  15.006  17.313   4.115  0.0906 -0.1595 -0.0884
29774W        W45908  12.877   0.389  15.859 -0.1896  0.2149  0.1949
29775W        W45909   9.505   6.833   1.888 -0.2014  0.1427  0.2134
29776W        W45910   1.380   2.200   5.986 -0.2710  0.3248 -0.2025
29777W        W45911  11.636  12.754  15.961  0.1300 -0.0187 -0.0495
29778W        W45912   2.426   2.324  11.906  0.0019 -0.1367 -0.1170
29779W        W45913  15.647   3.480  11.384  0.1454  0.0403  0.0670
29780W        W45914  15.652  13.881   2.867 -0.1256 -0.0955  0.2405
29781W        W45915  13.619   0.115   0.704  0.0220  0.0611  0.3493
29782W        W45916  13.777   9.199  15.365  0.4271 -0.1645 -0.1143
29783W        W45917  14.737   9.536  12.118 -0.2186  0.0908 -0.0465
29784W        W45918  13.652  12.904   4.747  0.1393  0.0593  0.1420
29785W        W45919  17.478   4.457  12.150  0.0892 -0.1169  0.1725
29786W        W45920  11.193   6.935  14.535 -0.1614  0.0426  0.1781
29787W        W45921  15.456  13.885  12.282 -0.0864 -0.0540  0.2279
29788W        W45922  15.740  13.223   4.912 -0.0108 -0.1488 -0.0686
29789W        W45923   0.119   6.057  11.405  0.2309 -0.1188  0.1858
29790W        W45924   2.553   0.673  14.204  0.2481 -0.0488  0.0431
29791W        W45925  17.705  12.374  10.986  0.0409  0.0836 -0.2300
29792W        W45926   6.314  18.169   0.401  0.0613 -0.2856 -0.0034
29793W        W45927  10.107  16.533   3.806  0.0411 -0.0942 -0.2667
29794W        W45928   5.423  10.571  14.615  0.1042  0.0288 -0.0819
29795W        W45929   4.331   2.015  16.088 -0.0263  0.0245 -0.0028
29796W        W45930  11.149  11.201   0.905 -0.0490 -0.0681 -0.0794
29797W        W45931  13.133  12.471  10.366 -0.0948 -0.0334  0.0761
29798W        W45932   3.707   4.231  15.645  0.0853  0.2358  0.2052
29799W        W45933   8.700  11.592   2.643 -0.0271 -0.1411 -0.1394
29800W        W45934   1.884  11.088   2.600  0.1002  0.1895 -0.0869
29801W        W45935   2.313   9.707  12.387  0.0528 -0.0554  0.0342
29802W        W45936   3.364   1.332  15.993 -0.1959  0.0414  0.2373
29803W        W45937   1.269   1.699   1.968  0.1275  0.0577  0.0754
29804W        W45938  13.480  17.343   0.534 -0.0624  0.1020 -0.2982
29805W        W45939   2.721   5.910   4.102 -0.1317  0.0874  0.1492
29806W        W45940  12.126   8.066   5.849 -0.1378 -0.1349  0.0560
29807W        W45941  14.704   4.171  11.852  0.0055  0.2649 -0.0003
29808W        W45942   9.633   2.551  12.281 -0.0008 -0.0561  0.0223
29809W        W45943  17.218  14.901   3.363 -0.2120 -0.0108 -0.2004
29810W        W45944   3.273   0.241  12.905 -0.0241 -0.0195 -0.0801
29811W        W45945  13.156   4.704  12.048  0.1639  0.1706  0.0391
29812W        W45946  13.403   6.612  15.368  0.1389  0.1103  0.0099
29813W        W45947   9.973   9.534  14.711 -0.0181  0.1997 -0.1241
29814W        W45948  10.485   4.183   0.760  0.1258  0.2827 -0.4678
29815W        W45949  13.752   8.112   3.309  0.4819  0.1196 -0.1008
29816W        W45950  11.492   4.423   5.692 -0.3016 -0.0991 -0.0184
29817W        W45951   5.450   8.997   0.766  0.2442 -0.3379  0.0468
29818W        W45952   2.187   7.102  14.950  0.0934 -0.1468 -0.1258
29819W        W45953   4.350   1.906  14.833  0.1017  0.1093  0.2060
29820W        W45954  10.718  15.479  14.870  0.3803 -0.1340 -0.1263
29821W        W45955  16.180  11.364  13.923  0.0546 -0.1090  0.1746
29822W        W45956   1.479  10.702   1.919 -0.0693 -0.0281  0.0011
29823W        W45957  12.149   7.644  14.994 -0.1616  0.0535  0.0180
29824W        W45958   0.766   5.196  15.806  0.1765 -0.0409  0.2019
29825W        W45959   3.497  18.155  15.180 -0.1439 -0.1092  0.2249
29826W        W45960  12.737  10.012   4.972  0.1241 -0.2308  0.0837
29827W        W45961  11.869   7.951   3.251 -0.1150  0.1796 -0.1335
29828W        W45962   3.562   7.519   3.141 -0.1276  0.2041 -0.1396
29829W        W45963  14.557  12.700  13.559  0.1200  0.0504  0.1999
29830W        W45964   5.502  13.840  13.832  0.2474  0.1086  0.1782
29831W        W45965  15.182  11.928  12.681 -0.1314 -0.0297  0.0523
29832W        W45966  17.571   8.693  10.591  0.1156  0.0693 -0.1413
29833W        W45967   2.850  13.017  11.345  0.4824 -0.0744 -0.1202
29834W        W45968   7.108  14.440   5.202  0.1196 -0.1947 -0.0579
29835W        W45969   7.429   8.536   3.306  0.1960 -0.1808  0.2107
29836W        W45970  16.803   3.103   5.335 -0.0890  0.4227 -0.1015
29837W        W45971  10.096  13.782   5.039  0.2008  0.1533  0.0719
29838W        W45972  15.231  11.087   1.809 -0.0994 -0.1188  0.2185
29839W        W45973  16.658   6.856  13.489 -0.2864  0.0787  0.0238
29840W        W45974   1.776   1.348  13.038 -0.1565 -0.0926  0.3186
29841W        W45975  12.284   2.226   4.340  0.0669  0.4097 -0.0115
29842W        W45976   3.738  11.804  11.294 -0.3542  0.0227 -0.0131
29843W        W45977  15.582   6.707  11.884  0.3523  0.3100  0.1595
29844W        W45978   7.905  17.120   4.213  0.0025 -0.0335 -0.2620
29845W        W45979  12.686  15.381   1.173  0.0313 -0.0158 -0.1817
29846W        W45980   3.341  11.887   0.642  0.2372  0.2083 -0.4836
29847W        W45981   3.533   3.284  12.017 -0.1579 -0.0102  0.0723
29848W        W45982   7.115  16.886  13.781  0.0825 -0.1032  0.0844
29849W        W45983   2.732   0.780  13.144 -0.0086 -0.0863  0.4626
29850W        W45984   2.230   5.682   1.175 -0.2744  0.1279 -0.0976
29851W        W45985   2.055   0.733  11.444 -0.2438  0.2232  0.3210
29852W        W45986   1.467  14.978   2.633  0.1793 -0.0503  0.3126
29853W        W45987  11.826   2.884   5.642 -0.3180 -0.2016  0.0267
29854W        W45988   7.834   1.201   2.365  0.4062  0.0497  0.1304
29855W        W45989   1.794  14.047  10.848 -0.2958  0.1830 -0.1069
29856W        W45990  16.810  14.224  14.143  0.0862  0.4184 -0.2560
29857W        W45991   9.304   6.421  14.796 -0.0248 -0.1637 -0.1316
29858W        W45992   5.846  14.720  11.161  0.3410 -0.4078 -0.3463
29859W        W45993   2.099   1.883   2.030 -0.1904 -0.0038  0.0073
29860W        W45994  12.945  14.607   5.566  0.1499  0.0955  0.2500
29861W        W45995  12.521  14.964  12.892  0.1002 -0.1301 -0.0216
29862W        W45996  16.610   7.961  13.345  0.0596 -0.2494  0.3942
29863W        W45997  15.269   2.889   0.234 -0.1363 -0.1660 -0.3961
29864W        W45998  15.370  14.706  12.903  0.0361 -0.0943  0.0281
29865W        W45999   4.089  18.357   0.748 -0.1103  0.1875 -0.1598
29866W        W46000  14.567   1.780   2.707 -0.1441 -0.2430  0.2314
29867W        W46001   7.805   9.745  11.578  0.1381  0.1526 -0.1629
29868W        W46002   4.755  12.240   2.511 -0.2873  0.0920  0.0366
29869W        W46003   9.025  10.565  13.529  0.2337  0.0539 -0.0019
29870W        W46004   3.023  17.898  11.390 -0.1915 -0.0198  0.1031
29871W        W46005  13.307   1.835   2.449 -0.2327 -0.2108 -0.0113
29872W        W46006  17.675   5.976   1.292  0.0282  0.0926  0.0967
29873W        W46007   1.110  13.103  15.902 -0.0420 -0.1635 -0.0496
29874W        W46008  11.839   1.994  12.462 -0.1347  0.0639  0.0273
29875W        W46009   6.637   7.927  15.391  0.1547 -0.0257 -0.1028
29876W        W46010   6.311   9.300   1.199 -0.0630 -0.0708 -0.1002
29877W        W46011   2.779   5.306   5.663 -0.1281 -0.2858 -0.0139
29878W        W46012   6.145  13.015  13.848 -0.0060 -0.1584 -0.1289
29879W        W46013   6.572  15.090   1.881  0.1795 -0.0923 -0.1884
29880W        W46014   4.218   9.609   4.037  0.3554 -0.3402  0.1772
29881W        W46015   7.865  10.685   5.504  0.0746 -0.0871 -0.0138
29882W        W46016   9.362   5.154   4.996  0.2431  0.2010 -0.0732
29883W        W46017  16.216   8.699  14.799  0.1134  0.2794 -0.0228
29884W        W46018   5.145   2.078  12.268 -0.3323  0.2482  0.0215
29885W        W46019  16.246  17.863   1.454 -0.0021  0.0754  0.0183
29886W        W46020   8.156   3.616   2.939 -0.2159  0.0942 -0.0662
29887W        W46021   1.111  14.072   5.313  0.0085  0.0197 -0.0090
29888W        W46022  13.104  15.014  13.603 -0.0489 -0.1962  0.3711
29889W        W46023   4.835  16.034   0.977 -0.3580  0.2032  0.0394
29890W        W46024  14.367  17.311  13.334 -0.1344 -0.0997 -0.2778
29891W        W46025   2.389  10.636  11.830 -0.0101 -0.0229  0.2083
29892W        W46026  12.317  17.413  11.891  0.0560 -0.0332 -0.0404
29893W        W46027  14.583   9.693   1.037  0.0891  0.3192 -0.0432
29894W        W46028   9.480  13.555   4.985  0.2600  0.4056 -0.3871
29895W        W46029  15.226   9.068   5.746  0.2732  0.1440  0.2259
29896W        W46030  13.763  12.563  13.365  0.1140 -0.0656 -0.0925
29897W        W46031   4.393  16.628   4.485  0.5338  0.2605 -0.0745
29898W        W46032   6.249   1.301  12.515 -0.1662  0.2233  0.1674
29899W        W46033   6.384   3.375  12.420 -0.1852  0.3115 -0.0575
29900W        W46034  13.013   4.478   4.052  0.1972 -0.2368 -0.3803
29901W        W46035  14.194  12.913  11.347  0.0265 -0.0311  0.0722
29902W        W46036  14.896   0.768  11.933  0.2626 -0.0212  0.2245
29903W        W46037   3.168   2.581   0.637  0.0011  0.1701  0.1473
29904W        W46038  12.887  12.370  12.550 -0.4088  0.2702  0.4098
29905W        W46039  13.661   2.793   4.288  0.3180  0.1932  0.0991
29906W        W46040  14.846   0.182  11.229 -0.0143  0.0176 -0.0317
29907W        W46041   2.675  11.445   4.703  0.1663 -0.0294  0.2537
29908W        W46042   6.658   6.041   4.137  0.0572  0.0630  0.1535
29909W        W46043   8.810   3.509  13.988 -0.4643 -0.1402  0.1824
29910W        W46044  14.485  12.448  12.485  0.1548  0.0969  0.1645
29911W        W46045  11.669   4.179  12.969 -0.2410  0.2837  0.0423
29912W        W46046   6.180  18.141   1.499 -0.0154  0.1368  0.0113
29913W        W46047  18.455   1.459  12.823 -0.1281 -0.1688  0.0144
29914W        W46048  12.226   3.900   1.450  0.2689  0.2535 -0.2929
29915W        W46049   0.676   9.997  11.943 -0.3994 -0.0443 -0.0213
29916W        W46050  10.880   6.162   5.369  0.0634 -0.0230 -0.0152
29917W        W46051   4.729   9.045   2.427 -0.1935 -0.0796  0.1147
29918W        W46052  11.143  17.515   1.936 -0.2682 -0.0078 -0.0621
29919W        W46053  13.593   8.960  15.016  0.0468 -0.3102  0.0836
29920W        W46054   9.478   2.703   5.874 -0.2387  0.1482  0.0795
29921W        W46055  12.858   4.070  15.240 -0.0283  0.2615 -0.1917
29922W        W46056   6.564  14.071   4.608 -0.1807 -0.2235 -0.0520
29923W        W46057  10.843   8.088   2.535  0.2139 -0.1444  0.2034
29924W        W46058   4.560  15.293  15.183 -0.2613  0.0887 -0.2332
29925W        W46059   1.936  13.960  15.227 -0.1874 -0.2940  0.0595
29926W        W46060  15.620  17.387  13.315 -0.1439  0.0733  0.1773
29927W        W46061  10.207   2.553  10.840 -0.0561 -0.1394  0.0887
29928W        W46062  10.522  13.660   3.232  0.0862  0.0841  0.0362
29929W        W46063   0.346   5.231  13.320  0.0809  0.0745  0.0484
29930W        W46064  16.241  12.860  15.135  0.2865  0.2077  0.1219
29931W        W46065   3.520   4.951   2.212 -0.0263 -0.1057 -0.1092
29932W        W46066   5.311  16.627  13.873 -0.0964  0.2901  0.0319
29933W        W46067  16.372   0.713   0.905 -0.2682 -0.0437 -0.2916
29934W        W46068   2.429  16.513  14.435 -0.0697  0.0259 -0.4601
29935W        W46069  14.294  10.299  11.663  0.1546 -0.2920  0.2967
29936W        W46070   5.109  12.998   1.679  0.0393  0.2937 -0.2080
29937W        W46071  14.989  11.963  13.200  0.2631 -0.0736  0.1685
29938W        W46072   0.126  14.640  15.856  0.1988 -0.0629  0.0866
29939W        W46073  15.264   0.260   2.209 -0.0525  0.0918  0.0042
29940W        W46074  16.917   7.239  13.690 -0.2803  0.1512 -0.3182
29941W        W46075  13.758   6.569   5.048  0.2556  0.1351 -0.2769
29942W        W46076   0.539   1.064   3.142  0.1307  0.0438 -0.1048
29943W        W46077  16.053  15.921  13.170 -0.2306 -0.1236 -0.2079
29944W        W46078  14.244   8.508  14.505 -0.4311  0.4653 -0.0365
29945W        W46079   9.166   3.145  13.867  0.2420 -0.3104 -0.1211
29946W        W46080   5.121  14.673   4.010  0.1857  0.1425 -0.1271
29947W        W46081  13.554   1.329   3.641  0.1044  0.1707  0.0642
29948W        W46082   1.692   9.889  14.555  0.1034 -0.1992  0.0306
29949W        W46083   6.863  15.713   5.838 -0.2726  0.0080 -0.1077
29950W        W46084   5.359   2.574   3.168 -0.0937 -0.3096 -0.2184
29951W        W46085  15.901  17.928  10.984  0.2459 -0.1347 -0.2491
29952W        W46086  11.608   1.568   2.745  0.0948  0.0825  0.0532
29953W        W46087   7.067   2.926   0.487 -0.5191  0.4617 -0.0216
29954W        W46088   3.414  15.771   1.782  0.1107  0.1507 -0.0076
29955W        W46089   9.610  17.882   2.577 -0.1607  0.3287  0.2761
29956W        W46090  17.544   2.713   1.632  0.2981  0.0036  0.2026
29957W        W46091   5.005  16.922  13.607  0.1228 -0.1153  0.1731
29958W        W46092   5.499   6.634   5.224  0.1174  0.0140 -0.1994
29959W        W46093  12.849   3.672   3.843  0.0420 -0.1000 -0.0149
29960W        W46094  13.966  18.161  14.722  0.0092  0.3094 -0.0407
29961W        W46095   2.465  10.070   1.221 -0.0337 -0.3317  0.0196
29962W        W46096  12.787  16.452   0.707 -0.2860  0.0929  0.1112
29963W        W46097   2.775   8.109  13.401 -0.0940  0.0306 -0.2499
29964W        W46098   3.572  12.815  13.680  0.2759 -0.0933  0.1801
29965W        W46099   2.313  15.782  13.281 -0.0592 -0.1007  0.0574
29966W        W46100   0.364   7.335  10.711  0.3665  0.0668  0.1054
29967W        W46101  14.329   3.130  13.307 -0.1216  0.2648  0.4091
29968W        W46102  17.085  15.723  11.594 -0.0202 -0.2771  0.3976
29969W        W46103   6.740  11.926   1.740  0.0189  0.1301  0.2814
29970W        W46104   9.852  17.157   0.270  0.2209 -0.0799  0.0877
29971W        W46105   3.101  16.212   0.448 -0.4116  0.2779  0.3442
29972W        W46106  18.273  18.183   3.864  0.1694  0.2803 -0.4043
29973W        W46107  13.302   9.795  11.316 -0.0818 -0.2989 -0.0881
29974W        W46108  16.409  17.735  15.569  0.0623 -0.3026 -0.1728
29975W        W46109   3.189   9.699  15.361  0.2741 -0.2732 -0.1662
29976W        W46110   3.445   5.904   4.063  0.1571  0.1281  0.0137
29977W        W46111   4.307  15.326  13.144 -0.1593  0.1323  0.3091
29978W        W46112  12.972   9.452   3.296 -0.0686  0.1849  0.0245
29979W        W46113   1.028  17.311  13.839 -0.0006 -0.2353 -0.1200
29980W        W46114   5.834   2.508  12.741  0.2017 -0.0947  0.1550
29981W        W46115  14.777  12.173  11.542 -0.1396  0.2230 -0.0343
29982W        W46116   0.160   1.600  13.264  0.3596 -0.1548 -0.0432
29983W        W46117   1.987  15.903  16.025  0.3112 -0.0212 -0.4490
29984W        W46118  17.664   5.674   0.896 -0.1258  0.2738  0.0320
29985W        W46119  11.375  10.468   2.290 -0.4432  0.0349  0.2579
29986W        W46120   3.791  12.756  12.437  0.1735 -0.0375  0.3538
29987W        W46121   8.928   1.379   1.134 -0.2445 -0.0292 -0.1524
29988W        W46122   5.841  11.460  13.018 -0.0695 -0.0918 -0.0357
29989W        W46123   0.355   8.683   4.956  0.2483 -0.0634  0.1147
29990W        W46124   7.663  14.328  14.090  0.2744  0.0687  0.2667
29991W        W46125   3.862   3.271  14.360  0.1802 -0.3218 -0.3962
29992W        W46126   5.175  17.501  13.024 -0.0663  0.1061  0.3061
29993W        W46127  16.550   8.946   1.644  0.1725 -0.2025  0.2899
29994W        W46128  17.840  14.205  12.970  0.3787  0.2807 -0.1098
29995W        W46129   3.793   5.663   1.475  0.0559  0.2395 -0.2443
29996W        W46130   3.217  12.805  11.639 -0.0524  0.2153 -0.1848
29997W        W46131   9.268  18.303   1.808  0.1567 -0.3222 -0.1348
29998W        W46132   3.532   8.698  13.298 -0.2048 -0.1429 -0.0925
29999W        W46133  15.518   5.856   2.306 -0.0421 -0.2071  0.3985
30000W        W46134  12.262  15.351   5.007 -0.3105  0.2749  0.0039
30001W        W46135  17.929   8.164  15.360 -0.1358 -0.1105  0.0590
30002W        W46136  11.370   0.446   4.124 -0.0885 -0.1539 -0.0464
30003W        W46137   2.255   2.082  11.457 -0.0448  0.0025  0.0689
30004W        W46138   1.206   5.991   3.730  0.0625 -0.1579 -0.0357
30005W        W46139   0.154   8.951  11.157 -0.2917 -0.1750  0.0483
30006W        W46140  12.768  11.818  12.663  0.1300  0.1005  0.0345
30007W        W46141  13.803   9.851  15.309 -0.2168 -0.1855 -0.4412
30008W        W46142   6.730  15.591  15.523 -0.1306 -0.0254 -0.2706
30009W        W46143   2.195  16.412  12.633 -0.0903  0.2171 -0.0332
30010W        W46144  13.498  11.390   1.487 -0.1644  0.0636 -0.2831
30011W        W46145  17.640   1.684   1.608  0.1465  0.2669  0.1536
30012W        W46146  14.326   7.399   5.609  0.0294 -0.1083 -0.0306
30013W        W46147  10.727   3.447  15.412  0.1145  0.1174  0.0122
30014W        W46148  16.414  17.088   0.666 -0.1195  0.0357 -0.1593
30015W        W46149   2.832   1.129   2.066  0.2998  0.3498 -0.0554
30016W        W46150   1.486  15.436  15.210  0.2231 -0.1043  0.2172
30017W        W46151   5.145   1.028   3.177 -0.1559  0.0271  0.0680
30018W        W46152  11.698   6.278  11.771  0.0280  0.0479 -0.1825
30019W        W46153   5.273  10.429  15.723 -0.0064 -0.3954  0.0754
30020W        W46154   5.648   9.416   0.543  0.4423  0.2439  0.0813
30021W        W46155  15.808  12.088   4.032 -0.0799  0.2729  0.1827
30022W        W46156   8.063   8.510   6.161 -0.0401  0.2597 -0.2491
30023W        W46157   2.086   7.035  12.093 -0.1581  0.2041 -0.1174
30024W        W46158   7.664   5.197  16.034  0.0013  0.2684  0.0999
30025W        W46159   4.928  16.113   1.538  0.3817  0.0731  0.1467
30026W        W46160   4.407   5.405  11.857  0.1489  0.0098  0.3350
30027W        W46161   6.063  17.070  11.787 -0.0308  0.0976 -0.3195
30028W        W46162  16.052   5.368  13.251 -0.0056 -0.4597 -0.0431
30029W        W46163   6.088  11.542   3.442 -0.1394 -0.0669 -0.2799
30030W        W46164  15.059  14.474  10.970  0.1995 -0.0118  0.2727
30031W        W46165  10.461   1.013  13.097  0.1457 -0.4538  0.1906
30032W        W46166  15.569  11.024  11.683 -0.0708  0.0479  0.0566
30033W        W46167  15.277   8.816  14.926 -0.3962 -0.2941 -0.2694
30034W        W46168   2.733  14.943   4.243  0.0897  0.0459  0.2153
30035W        W46169   0.944   5.904   2.427 -0.0640 -0.1840  0.2264
30036W        W46170   1.123   4.638   9.702 -0.3060  0.0709  0.0788
30037W        W46171   4.850  16.022  15.929  0.0727 -0.2409  0.0519
30038W        W46172   4.660   7.848  12.880  0.1152 -0.3006 -0.0554
30039W        W46173   1.793   8.023   2.722  0.1377  0.0325 -0.3405
30040W        W46174   7.425  17.859   2.776  0.3206  0.0983 -0.0496
30041W        W46175  18.364  14.250   3.186  0.1010  0.0363 -0.0430
30042W        W46176  14.850   9.619  13.286  0.1921  0.0652 -0.2922
30043W        W46177   9.446   4.700  13.689 -0.0283 -0.2599 -0.4315
30044W        W46178  15.550   0.490   1.772 -0.0510 -0.1811 -0.3117
30045W        W46179  17.275  11.973  11.388  0.0096 -0.4468 -0.2965
30046W        W46180   8.344   1.883  14.747 -0.0222  0.1420  0.0017
30047W        W46181   6.179  11.843  12.465  0.0010  0.3718 -0.0500
30048W        W46182  12.721  14.961  15.056  0.2430 -0.2961  0.1214
30049W        W46183   0.121   7.679   1.254  0.0363 -0.0998  0.2849
30050W        W46184  17.883   5.034  11.634 -0.0309 -0.0260  0.2680
30051W        W46185  14.474  15.383   4.836 -0.1291 -0.1555  0.1246
30052W        W46186  10.159  15.220   4.244  0.1279  0.0386 -0.2397
30053W        W46187  10.119  13.711   1.830  0.1834  0.0717  0.0236
30054W        W46188  11.140  15.923  12.173 -0.2761  0.2594  0.1148
30055W        W46189  12.982   4.159   1.041 -0.3163  0.0239  0.0991
30056W        W46190   5.450   3.050  15.372  0.2091 -0.1139 -0.0943
30057W        W46191  16.037  17.422   0.619 -0.0900 -0.0470 -0.1613
30058W        W46192   2.531   1.854   1.393  0.0981  0.0915 -0.2626
30059W        W46193   8.523  10.183  11.452 -0.0480 -0.1523 -0.2182
30060W        W46194  12.814  15.989  12.226  0.2585 -0.2641  0.2552
30061W        W46195  10.890   5.904  11.465  0.1685  0.1909 -0.0102
30062W        W46196   3.920  16.581   3.135 -0.0779 -0.1363  0.3151
30063W        W46197   0.548   1.749  10.976  0.1016  0.0452  0.0276
30064W        W46198   6.878  14.054  13.921 -0.0065  0.0213  0.0218
30065W        W46199   0.016   9.192   0.090 -0.1120  0.1977  0.0267
30066W        W46200   7.479  15.693  13.064 -0.0837  0.0386 -0.1559
30067W        W46201  16.920   5.286  12.125  0.0077 -0.2966 -0.0286
30068W        W46202   3.165  11.804   1.120  0.0838  0.0123 -0.3035
30069W        W46203  13.211   4.028   5.320  0.4245  0.1128  0.0653
30070W        W46204  10.238   2.329  11.447  0.3412 -0.2211 -0.1589
30071W        W46205   9.006   3.376  14.480 -0.0973  0.3530  0.0573
30072W        W46206  15.507  13.648   1.007  0.1041 -0.2384  0.0847
30073W        W46207  15.524   5.055   0.229  0.2866  0.0253 -0.0109
30074W        W46208  18.279   5.544  15.249  0.0393  0.1371  0.1598
30075W        W46209  10.890   4.917   1.137  0.0563 -0.1637 -0.0073
30076W        W46210  14.460   0.988  10.587  0.1934  0.1693 -0.2912
30077W        W46211  12.530   6.273  12.836 -0.1946 -0.0352  0.0925
30078W        W46212  17.877   9.083   0.494  0.0894 -0.0998  0.2363
30079W        W46213  11.668   7.047  14.689 -0.1720  0.4027 -0.1861
30080W        W46214   2.209  12.843   1.119 -0.2292 -0.0663  0.0449
30081W        W46215  13.105   1.946  15.683 -0.0104  0.0127  0.2557
30082W        W46216   2.923  11.337   4.274  0.2410  0.0919 -0.1681
30083W        W46217   2.589   3.746  13.827  0.0671 -0.0134 -0.1347
30084W        W46218   9.281   3.489  12.235  0.0911  0.1672 -0.2805
30085W        W46219   9.123  10.224   2.207  0.0783  0.0154  0.0224
30086W        W46220  11.112  16.374  11.819  0.1094  0.0104 -0.0133
30087W        W46221   3.923  10.017   1.617 -0.0985  0.0949 -0.2457
30088W        W46222   1.128   6.153   5.612 -0.2909  0.1965  0.1382
30089W        W46223   7.010  16.522  14.171 -0.0942 -0.1563  0.3966
30090W        W46224   9.210   8.939  15.074 -0.0879 -0.1097 -0.0691
30091W        W46225  17.853   4.046  10.580  0.1845 -0.1128  0.0506
30092W        W46226   7.785  13.794   2.192  0.2604  0.1675 -0.1308
30093W        W46227  13.134   1.862  14.628  0.1055  0.0346 -0.2222
30094W        W46228   1.473   4.152   2.758  0.1311  0.1514  0.0839
30095W        W46229  17.453   6.996  13.876 -0.2841  0.2815 -0.2389
30096W        W46230   5.530   5.912   0.631 -0.0841 -0.0102 -0.0391
30097W        W46231  13.025   8.280  11.618 -0.0809  0.0075 -0.3280
30098W        W46232   0.101   3.077  15.851  0.2652  0.0790  0.0056
30099W        W46233   9.975  15.554   3.511  0.2366  0.1650 -0.0034
30100W        W46234   8.108  16.150  12.534 -0.1383 -0.0208 -0.1702
30101W        W46235   7.396   1.479   5.605  0.0452 -0.1896  0.1015
30102W        W46236  11.231  11.485   5.531 -0.0237  0.0842  0.0729
30103W        W46237   5.126  17.900  10.170  0.3680 -0.0775 -0.3472
30104W        W46238  12.986   4.183   3.561  0.2397  0.2120  0.1675
30105W        W46239  12.156  12.580   3.558 -0.2855  0.0188  0.2288
30106W        W46240  13.728   5.326   2.954  0.1915 -0.0959 -0.2726
30107W        W46241   4.529  10.436   2.224 -0.1632  0.0302  0.0577
30108W        W46242  17.748   4.724  15.537 -0.0473  0.0161 -0.0004
30109W        W46243   7.533  17.231  12.239  0.0085  0.1768 -0.2016
30110W        W46244   0.125   3.059  13.782  0.0195  0.1285 -0.0761
30111W        W46245  12.730  13.682  12.105  0.0669  0.2522 -0.0855
30112W        W46246  15.987   6.839   3.605 -0.0671  0.5317 -0.0521
30113W        W46247  13.597  11.559  15.297 -0.0092  0.3436 -0.3468
30114W        W46248   1.536   5.446  12.316  0.0866 -0.3100  0.1660
30115W        W46249   5.812  10.312  11.781  0.1164  0.3226 -0.1660
30116W        W46250   8.524   0.037   1.601 -0.0253  0.2388  0.0169
30117W        W46251  12.210   4.177  15.950  0.1467  0.0977  0.1814
30118W        W46252  10.529   9.055   6.391 -0.2559  0.1769 -0.0020
30119W        W46253   3.759   3.893   4.557 -0.0412 -0.2175 -0.0519
30120W        W46254  13.376  16.630   4.190  0.0434 -0.3019  0.1769
30121W        W46255  12.221  14.248  11.198  0.0908  0.1973 -0.0814
30122W        W46256  13.585   0.457   2.684  0.0134 -0.2227 -0.3697
30123W        W46257   5.565  13.328  13.773 -0.2084 -0.0096  0.2648
30124W        W46258   8.407   0.375  13.633  0.0074  0.0529  0.0661
30125W        W46259   1.877  12.587  13.539 -0.0055 -0.2520  0.2464
30126W        W46260   7.686  17.380   3.642 -0.1355 -0.0557  0.0411
30127W        W46261  18.049   3.669   0.907 -0.3296 -0.1353 -0.3469
30128W        W46262   6.414   2.305   0.825 -0.0130 -0.2038 -0.1348
30129W        W46263   0.513   4.779   3.753  0.0917  0.2307 -0.0542
30130W        W46264   4.927   3.211  14.224  0.2242 -0.1484  0.2368
30131W        W46265   5.980  12.311   4.066  0.0016 -0.0963  0.1478
30132W        W46266   1.266   4.634   2.556 -0.1128 -0.1227  0.1962
30133W        W46267  14.896   4.680   4.068 -0.4696  0.0865 -0.0703
30134W        W46268  15.496   8.580   3.171  0.0087 -0.0664  0.0701
30135W        W46269   7.404   8.769   2.855 -0.0040 -0.1125 -0.2581
30136W        W46270   9.637   3.881   1.134  0.0224 -0.0126 -0.0343
30137W        W46271   7.077  11.832   2.056 -0.1415 -0.3225  0.0129
30138W        W46272   1.778   0.372   4.138 -0.1504  0.1630  0.5079
30139W        W46273   0.033   0.147   2.407  0.2307 -0.0292  0.3528
30140W        W46274  14.282  16.121   4.229 -0.0297  0.0185  0.1029
30141W        W46275   8.208   6.867  15.810  0.0650  0.0458  0.3305
30142W        W46276   0.180   1.345  14.111 -0.2730  0.0446 -0.0840
30143W        W46277  12.635  17.332  10.397 -0.0793 -0.2045  0.0967
30144W        W46278  10.559   5.980   1.530 -0.0610 -0.0172  0.0687
30145W        W46279   9.878  11.601  12.013  0.2305 -0.0135  0.2781
30146W        W46280  10.568  15.469   3.233  0.1396  0.2000 -0.0814
30147W        W46281   3.370   5.801   2.511  0.1194 -0.0712  0.1508
30148W        W46282  15.723   2.697   1.661 -0.1263 -0.2950 -0.0308
30149W        W46283   5.142  18.207  12.427 -0.0222  0.0826  0.0178
30150W        W46284   3.740   3.744  15.472  0.2936 -0.2934  0.0908
30151W        W46285   7.278   3.337   2.268  0.1635 -0.1583 -0.0372
30152W        W46286   1.743   9.401   4.870  0.1476  0.0327  0.0135
30153W        W46287   8.776   5.505  15.963  0.0806 -0.3275  0.0416
30154W        W46288  10.721  11.828  14.182  0.2307 -0.0417 -0.2913
30155W        W46289   8.236   3.182  12.829 -0.2117  0.4333 -0.0872
30156W        W46290  10.888   1.848   3.081 -0.1016 -0.3115  0.1447
30157W        W46291   7.521   8.201  12.044 -0.1315 -0.0602  0.1066
30158W        W46292  12.063  13.909  11.557 -0.1663 -0.2247 -0.0043
30159W        W46293  16.447  14.184  12.177  0.0624  0.3323 -0.1755
30160W        W46294   2.535  11.760   2.852 -0.1228  0.3782  0.2088
30161W        W46295  11.698   7.439   0.013  0.0210  0.0827 -0.0395
30162W        W46296  16.179  12.179  15.925  0.0193 -0.2022 -0.2109
30163W        W46297   8.253  15.487   5.464 -0.1505  0.1086  0.1999
30164W        W46298  14.016  16.168  12.125 -0.0684  0.0355 -0.1812
30165W        W46299   1.329   3.224   0.639 -0.0667  0.1507  0.0488
30166W        W46300  15.812  13.188   3.499  0.0014 -0.2944  0.2350
30167W        W46301  16.334   7.005   0.550 -0.2912 -0.1140 -0.0693
30168W        W46302  11.987  14.800  14.380 -0.0317 -0.0894  0.0605
30169W        W46303   0.869   1.310  14.867 -0.1762  0.2768 -0.0606
30170W        W46304   6.971  12.210  15.996 -0.1305 -0.4063 -0.0531
30171W        W46305   1.961  13.708   1.535 -0.2022 -0.1599  0.1794
30172W        W46306   2.653   4.395   5.060 -0.0007 -0.0084 -0.1684
30173W        W46307  11.548   0.103  12.884 -0.0145  0.1701 -0.1800
30174W        W46308  12.422   3.921   2.364  0.0371 -0.2354  0.0906
30175W        W46309   7.520  17.364   5.121 -0.1328 -0.1216 -0.0770
30176W        W46310  11.708   3.254   2.126 -0.0268 -0.0668 -0.0106
30177W        W46311  16.464  17.221  15.380 -0.0873  0.1449  0.3681
30178W        W46312   4.870  11.481  12.750 -0.2921  0.0703 -0.0076
30179W        W46313   5.508  15.580  14.092  0.1252 -0.0644 -0.1811
30180W        W46314  16.090   8.354  13.757  0.4375 -0.1723 -0.4614
30181W        W46315  15.605  13.849   1.502  0.1884 -0.2011  0.0840
30182W        W46316   9.642   4.514   1.688  0.1414 -0.0287  0.0477
30183W        W46317  14.817   0.110  12.159  0.1769 -0.1080 -0.0445
30184W        W46318  17.505   8.627  15.393 -0.1082 -0.0408  0.0742
30185W        W46319   0.918   0.945  15.953 -0.1346 -0.1497  0.0988
30186W        W46320  12.884  13.501   3.801  0.1045 -0.0976  0.1243
30187W        W46321  11.448   6.633   4.243  0.0421 -0.0291 -0.0646
30188W        W46322   0.204  10.813  11.309  0.3074  0.1466 -0.0493
30189W        W46323   7.645  12.499  15.213  0.0482 -0.1407 -0.1989
30190W        W46324  16.809   7.489   1.118 -0.0762  0.1308 -0.1435
30191W        W46325  12.367   6.337  15.101 -0.1990  0.2261 -0.3784
30192W        W46326   3.983   4.610  11.217 -0.0435 -0.0271  0.2477
30193W        W46327   6.408   5.186  15.309 -0.0859 -0.0963 -0.1753
30194W        W46328  14.641  10.447   5.176 -0.1183  0.2515 -0.2208
30195W        W46329   4.057   6.052  13.213  0.0253  0.5895 -0.0509
30196W        W46330  11.081   1.868   2.138 -0.2075  0.0403 -0.3904
30197W        W46331   4.934  14.313   0.264 -0.0860 -0.1800  0.2018
30198W        W46332   6.194  14.127  12.445 -0.0579  0.3656  0.0253
30199W        W46333  16.786  17.683   2.184  0.3127  0.0244  0.1473
30200W        W46334   5.790  16.187   4.505 -0.2740  0.0376 -0.2554
30201W        W46335   5.023  16.300   4.993  0.0342 -0.3222  0.1834
30202W        W46336   3.030   1.819  12.157  0.0337 -0.2858  0.1100
30203W        W46337  10.281  16.955   1.761 -0.1020  0.0331  0.3306
30204W        W46338   5.868  13.359   1.997 -0.1120 -0.2209  0.4265
30205W        W46339   7.401   9.161  15.615  0.2185  0.1193 -0.1934
30206W        W46340  10.434  15.890   2.150 -0.4110  0.2319 -0.1786
30207W        W46341   3.168  12.896  13.306 -0.1947 -0.2174  0.2355
30208W        W46342  17.570  16.337  12.025  0.3705 -0.4427 -0.2258
30209W        W46343   4.074  16.562  15.458 -0.1623 -0.3105  0.1164
30210W        W46344  17.228   6.160   1.525 -0.2946 -0.0390  0.2455
30211W        W46345   4.278   0.876  11.241 -0.1466  0.0506 -0.1967
30212W        W46346  17.609  12.348   5.020 -0.0254  0.2003  0.1308
30213W        W46347   8.297   5.069   1.571  0.0646 -0.2576  0.1695
30214W        W46348   4.623   4.456   0.692 -0.0063  0.1306  0.2391
30215W        W46349   9.952  17.393   6.175 -0.0720 -0.0332 -0.4345
30216W        W46350  11.525   7.821  11.412 -0.2010  0.0678 -0.0350
30217W        W46351  15.093   9.334  15.516 -0.0498 -0.2389  0.2532
30218W        W46352   8.414   1.673   4.943  0.1108  0.5903 -0.0018
30219W        W46353  12.049  16.908  13.555 -0.4935 -0.1966  0.1123
30220W        W46354   6.107  12.248   2.836  0.2543  0.2124  0.2435
30221W        W46355  13.207  14.581   2.340 -0.2603  0.0736  0.1262
30222W        W46356  13.678  14.060  12.319 -0.1389 -0.0502  0.3038
30223W        W46357   0.607  16.671  12.857  0.0731  0.0600  0.0487
30224W        W46358   0.590  15.565  13.291  0.1425 -0.0089  0.1310
30225W        W46359   3.220  17.915  11.993  0.3759 -0.3542  0.1183
30226W        W46360  15.517   1.143  12.677 -0.1191  0.1536  0.1164
30227W        W46361  11.634   1.501  12.685  0.1711 -0.3289 -0.0698
30228W        W46362  13.844  15.136   2.394  0.1970  0.1011 -0.1101
30229W        W46363   4.268   5.539   3.156 -0.0040  0.4373 -0.3383
30230W        W46364  13.095  13.966   4.165  0.0372  0.1289 -0.0229
30231W        W46365  13.039  18.487   4.207  0.0218 -0.0568 -0.0999
30232W        W46366   7.587  12.628  11.687  0.0743  0.0303 -0.1377
30233W        W46367  12.619  10.550   3.201 -0.0216 -0.1379  0.0325
30234W        W46368   5.430  13.243   1.301 -0.0209 -0.0881  0.0927
30235W        W46369   8.192  12.353   3.168 -0.3647  0.2759 -0.2444
30236W        W46370   7.971   0.024   4.179 -0.1278 -0.0528  0.1291
30237W        W46371   3.649  12.826   2.129 -0.0257 -0.3331  0.0456
30238W        W46372   4.575   5.513  13.600 -0.1993  0.2013  0.0165
30239W        W46373   7.170  17.734   0.652 -0.2539  0.0569 -0.0811
30240W        W46374  10.541   1.979   1.586  0.1330  0.0907 -0.0334
30241W        W46375   4.203  14.819  14.978  0.2149  0.2578  0.2026
30242W        W46376  14.335   6.176  14.160 -0.3891  0.0951 -0.1778
30243W        W46377  15.283  16.612   1.448  0.2399  0.0912 -0.4058
30244W        W46378  10.375   5.413   0.126  0.2554  0.0102  0.0973
30245W        W46379   1.019   0.514  15.592 -0.2476 -0.2046 -0.1001
30246W        W46380  11.786   6.174  15.624 -0.1414  0.2416 -0.1231
30247W        W46381   9.313  17.375   1.299  0.1808  0.0608  0.0110
30248W        W46382  15.941   1.368   3.162  0.2654 -0.2714 -0.2177
30249W        W46383   3.788  12.044  12.100 -0.2886  0.2551 -0.0732
30250W        W46384  12.738  14.587   1.875  0.1083  0.0049  0.2779
30251W        W46385   7.507   8.140   5.014  0.1283  0.1469  0.1541
30252W        W46386   5.742  17.750  12.499  0.2245  0.0789 -0.1977
30253W        W46387  12.620  15.633   4.851  0.2159 -0.4320 -0.2770
30254W        W46388   8.053  11.263   4.270 -0.1179 -0.4335 -0.0741
30255W        W46389  13.158  14.514  11.660 -0.0277  0.0493  0.0950
30256W        W46390   9.961  13.287   3.007 -0.0787 -0.0174 -0.1865
30257W        W46391   7.270   6.337   3.504  0.0289  0.1446 -0.0583
30258W        W46392   1.426   1.266   3.749  0.0526  0.1948  0.2087
30259W        W46393  13.014  11.949   2.575 -0.0086  0.2364 -0.2297
30260W        W46394  15.553   6.225   0.935 -0.1046 -0.0023 -0.1485
30261W        W46395  13.899  10.701   2.269  0.0135 -0.0789 -0.3794
30262W        W46396  14.492  17.634   2.221  0.1940  0.0452 -0.0232
30263W        W46397  10.706   7.033  11.858  0.4344  0.1867  0.2179
30264W        W46398   4.565  18.197  11.777  0.0630  0.0252 -0.1200
30265W        W46399   6.338   4.275  12.603  0.4256  0.0670  0.0902
30266W        W46400   2.149   1.634   3.586  0.2233  0.0320  0.0440
30267W        W46401  12.782  16.334  15.211  0.1545 -0.3013  0.0308
30268W        W46402  17.311   2.782   2.394  0.2942 -0.0169  0.1300
30269W        W46403   8.355  11.420   5.700 -0.0171  0.1165  0.1800
30270W        W46404   5.988   1.593  14.713  0.1931  0.2036 -0.3793
30271W        W46405   4.360   7.467  15.687 -0.0096 -0.1197  0.0702
30272W        W46406   0.962   7.242   1.248  0.2073 -0.0727 -0.1230
30273W        W46407  14.353   4.653   2.807 -0.0249  0.1128  0.1738
30274W        W46408   0.935   9.069   4.220 -0.1133 -0.0411 -0.0292
30275W        W46409   8.534   7.840   5.864  0.0411 -0.0055  0.0873
30276W        W46410   8.227   1.222   5.039  0.0905 -0.4044  0.1882
30277W        W46411   2.043   9.552  14.678  0.3583  0.2698  0.1402
30278W        W46412  14.504  16.801   0.737  0.2863  0.0057 -0.3199
30279W        W46413   7.050   4.963   4.953 -0.2353 -0.0512  0.0577
30280W        W46414  10.248  10.976   2.155  0.0709  0.1955  0.1045
30281W        W46415   0.157  11.761  15.383  0.0695  0.0021 -0.0824
30282W        W46416  16.392   4.333   5.095  0.1955  0.0009  0.0411
30283W        W46417   0.481   4.557   0.960  0.1050  0.1204  0.1771
30284W        W46418  17.874   0.577  13.432 -0.0631 -0.0767  0.0969
30285W        W46419   1.234   1.414   4.591  0.2051  0.1151  0.1316
30286W        W46420   1.483  15.763  14.226 -0.0847 -0.0504 -0.2700
30287W        W46421   8.219  16.283   3.139 -0.2331 -0.0466 -0.0334
30288W        W46422   0.574  10.069   2.776 -0.0207 -0.1755 -0.0542
30289W        W46423  11.436  16.789   3.025 -0.1149  0.0357 -0.0190
30290W        W46424   3.888  11.394  14.029  0.0960  0.0844  0.0071
30291W        W46425   1.309  12.222   3.736 -0.0202  0.3919  0.0727
30292W        W46426   7.647  18.478   2.644 -0.0579 -0.0590 -0.1089
30293W        W46427  13.466   0.386  11.819 -0.1741 -0.0322 -0.1580
30294W        W46428   3.383  17.352   0.261 -0.0108  0.0620 -0.2695
30295W        W46429  16.758   9.373  11.164 -0.3644  0.1450  0.1439
30296W        W46430   8.996  11.023  11.938 -0.1884 -0.0330 -0.0708
30297W        W46431   8.905   8.285  13.434 -0.0363  0.0433 -0.1020
30298W        W46432   1.796   1.983  15.791  0.0630  0.3375 -0.1079
30299W        W46433  14.961   9.996  12.052  0.4329  0.1296  0.3805
30300W        W46434  15.349  13.927  14.797  0.0137 -0.2676 -0.0074
30301W        W46435  17.251  12.533   4.126 -0.2565  0.2024 -0.0155
30302W        W46436   8.733  11.674   5.872 -0.0544 -0.4412 -0.0172
30303W        W46437  14.654   7.564   0.342  0.2485  0.1812  0.0914
30304W        W46438   3.390   4.283  13.077  0.0597 -0.1921  0.1215
30305W        W46439   0.186   1.793  14.480 -0.4395 -0.0360 -0.1100
30306W        W46440   7.559  12.716  15.814 -0.0154 -0.3535 -0.1709
30307W        W46441  17.023   2.070  16.041 -0.1575  0.0626  0.0278
30308W        W46442   8.481   6.032   3.298 -0.1096 -0.0714 -0.2002
30309W        W46443  12.770  14.626   3.114 -0.1288 -0.2954  0.1794
30310W        W46444   5.296   5.614  11.822 -0.2015  0.0564 -0.0070
30311W        W46445  13.566  14.795  13.423 -0.0463 -0.0929  0.0312
30312W        W46446  15.714  13.029   2.982 -0.1344 -0.0151  0.2038
30313W        W46447  13.819   6.906  11.777 -0.1982 -0.1659  0.1539
30314W        W46448   1.418   3.996  12.671  0.1384  0.2346  0.1277
30315W        W46449   3.423   2.378  12.110 -0.0793 -0.0495 -0.1637
30316W        W46450  16.688  11.658  11.312  0.1365  0.3252  0.0006
30317W        W46451   4.243  10.225  12.662 -0.0818 -0.0209 -0.1120
30318W        W46452  16.280  18.419   4.100  0.0877 -0.3558  0.5202
30319W        W46453   2.952  18.007  14.619  0.1605 -0.1028 -0.1704
30320W        W46454  16.734   0.131  12.805  0.1680  0.0849  0.0582
30321W        W46455  18.357   5.037   2.978 -0.0019 -0.0489 -0.2516
30322W        W46456   1.362  13.541   5.573  0.2774 -0.1294  0.1587
30323W        W46457   5.980  12.820  11.240 -0.1269 -0.0706  0.2025
30324W        W46458  13.940   4.872  10.471  0.0475 -0.1206 -0.1061
30325W        W46459   3.296  14.649  14.296  0.0094  0.0276  0.2673
30326W        W46460   8.404  15.431  12.924  0.2081  0.1813 -0.1303
30327W        W46461   8.817   5.115   5.400  0.1256 -0.0165  0.0015
30328W        W46462  16.074  13.882  12.334  0.1222 -0.1798 -0.3980
30329W        W46463  14.745   4.157  14.671 -0.1077 -0.2661  0.0524
30330W        W46464  11.976   2.032   3.850  0.3781  0.0839  0.4592
30331W        W46465  18.073  12.110  12.157  0.0433 -0.0487 -0.0060
30332W        W46466  15.522  12.212   5.207  0.2483 -0.2135  0.1006
30333W        W46467  11.126  10.979  15.967  0.2495  0.2008 -0.0834
30334W        W46468  16.369   8.715   4.968 -0.0381  0.0242  0.0261
30335W        W46469   5.605   9.397   5.162 -0.2310  0.0723  0.1069
30336W        W46470  13.749  15.339   1.152  0.0272 -0.1734 -0.0712
30337W        W46471   3.038  14.477   0.423 -0.0427 -0.0978  0.0525
30338W        W46472   1.135   7.421   4.917 -0.1379  0.0911 -0.1389
30339W        W46473   8.924   6.039   0.951 -0.3616 -0.0003  0.1089
30340W        W46474   1.631   7.558  10.976  0.1187  0.1314 -0.3490
30341W        W46475   0.487  13.038   5.441  0.0584  0.1543 -0.0683
30342W        W46476  12.705  10.530   2.329  0.1629  0.1377  0.2660
30343W        W46477  14.859   5.810   4.705 -0.3428 -0.2157 -0.0147
30344W        W46478  12.107   8.777   2.034 -0.1026 -0.0784  0.0675
30345W        W46479   4.856  13.439  11.553  0.3193  0.0801  0.0376
30346W        W46480   2.799   8.894  14.527  0.1816  0.1900 -0.2293
30347W        W46481   4.734   8.216   2.410 -0.0164 -0.2041 -0.2117
30348W        W46482   6.334   8.444   0.789 -0.0122  0.1844  0.3424
30349W        W46483   2.050  10.649   0.942  0.0391 -0.4826 -0.2660
30350W        W46484   4.999   2.413  14.326 -0.0203 -0.2932 -0.1244
30351W        W46485  17.737   2.540  15.598 -0.0763  0.2583 -0.2427
30352W        W46486   8.750   9.180  13.043  0.0234 -0.0638  0.2158
30353W        W46487  11.607  16.876   2.560 -0.0813  0.1481  0.0133
30354W        W46488   4.111   5.623  15.360  0.0141  0.2782 -0.0126
30355W        W46489  12.532   0.082   4.361  0.2323  0.1286 -0.1336
30356W        W46490  14.164  13.072  14.531  0.3030 -0.3171  0.1191
30357W        W46491  13.510  15.109   3.570 -0.0282  0.0214  0.1170
30358W        W46492   2.275   5.531   1.885 -0.2559 -0.0092 -0.0495
30359W        W46493   5.617   3.485   2.786  0.1844  0.2068  0.0694
30360W        W46494  16.588  11.710  12.680  0.0113  0.0902  0.1685
30361W        W46495   5.095   2.180   1.030 -0.0272 -0.4067  0.0641
30362W        W46496  14.495  18.199  14.605  0.1057 -0.2066  0.2241
30363W        W46497   8.630  16.857   1.016  0.2283  0.0677  0.1864
30364W        W46498   9.485  15.596  15.647 -0.2858 -0.2996 -0.0479
30365W        W46499   2.423   1.205  14.393 -0.2267 -0.1474  0.0896
30366W        W46500  15.563  16.708  14.631  0.3098 -0.0938  0.0641
30367W        W46501  16.774  13.624  11.322 -0.0459 -0.1945 -0.0142
30368W        W46502   0.001   6.822   3.042 -0.1408  0.2079  0.1499
30369W        W46503  10.791  11.161   1.469 -0.1580  0.0005  0.1210
30370W        W46504  13.740   3.613  16.042  0.1080 -0.0092  0.0931
30371W        W46505  14.149  18.454   2.855  0.3096  0.2235 -0.3829
30372W        W46506   6.167  11.164  15.021  0.0128  0.2771 -0.0950
30373W        W46507  12.500   5.590  14.200 -0.0015  0.0615  0.3356
30374W        W46508   2.376   3.362  14.230 -0.1828 -0.3588  0.1308
30375W        W46509   6.402   4.818   0.539 -0.4256  0.0003  0.1012
30376W        W46510  12.026  14.805  11.828  0.0816 -0.1646  0.1399
30377W        W46511  16.076  12.903   1.469 -0.0092 -0.1374  0.3846
30378W        W46512   9.017   0.464  12.531  0.4761 -0.0605  0.5660
30379W        W46513  13.378   0.200  13.070  0.0185  0.0853  0.1208
30380W        W46514   2.123   9.197   4.119  0.1168  0.1361  0.1456
30381W        W46515   0.276   2.024  15.811 -0.1048  0.1413  0.0418
30382W        W46516   7.780   2.914  15.416  0.2240  0.1679 -0.2156
30383W        W46517  11.998   1.820   4.389 -0.0548 -0.0775  0.0383
30384W        W46518   0.339  17.822  13.692 -0.1955  0.0565  0.1167
30385W        W46519  17.857  12.105  14.400  0.1037  0.0147  0.1102
30386W        W46520  11.814  15.982   1.265  0.0854 -0.2193 -0.0561
30387W        W46521   0.849   8.518  14.907  0.0781  0.0641  0.3535
30388W        W46522   7.337  12.651  12.296  0.1237  0.0450 -0.1453
30389W        W46523   2.557   0.196  10.248 -0.0867  0.0124 -0.0827
30390W        W46524  13.680   6.305   6.009  0.2185 -0.0293 -0.0187
30391W        W46525   0.387   8.655  14.511 -0.1014  0.0315 -0.2444
30392W        W46526   3.540  17.651  15.192  0.5316  0.1663  0.1571
30393W        W46527  11.714   4.795  14.715  0.0041 -0.1799 -0.2069
30394W        W46528   0.797  11.238   3.573  0.0002  0.2206 -0.2721
30395W        W46529   0.858  16.421   0.538  0.1284 -0.1747  0.0665
30396W        W46530   8.069  12.741  13.058 -0.0478  0.2420 -0.0576
30397W        W46531   3.087  17.438  13.552  0.0712 -0.2559 -0.0466
30398W        W46532   9.112  13.684  13.484 -0.0296  0.3533 -0.1994
30399W        W46533   5.382  12.099   5.600 -0.2576  0.2757 -0.0069
30400W        W46534  15.530   5.278   4.091  0.1436  0.1912 -0.4061
30401W        W46535   7.881  18.092  14.458  0.0910  0.1241 -0.0899
30402W        W46536  13.398   5.682   0.431  0.0878 -0.0319  0.3542
30403W        W46537  13.743   7.878   1.497  0.0052 -0.0598 -0.2777
30404W        W46538   9.689   2.625   1.808 -0.1952  0.0748 -0.2792
30405W        W46539   6.037  10.023   4.747  0.1202 -0.2366 -0.1079
30406W        W46540  13.450  14.570  14.903  0.0335  0.1450 -0.0466
30407W        W46541  17.984   1.967  13.558 -0.1114 -0.1201  0.1576
30408W        W46542   5.286   8.795   4.398  0.1464 -0.2595  0.1456
30409W        W46543   7.572   3.835   4.785  0.0435  0.0236  0.1204
30410W        W46544  16.905  14.825   0.658 -0.3400 -0.2951 -0.0921
30411W        W46545  11.752   5.975   2.463  0.1346  0.1310 -0.4164
30412W        W46546   6.849   9.202   0.308 -0.1080 -0.1955 -0.0732
30413W        W46547  11.088   5.876   1.342  0.3287  0.4132  0.1037
30414W        W46548   9.882  16.663   0.175  0.0283  0.0165 -0.1337
30415W        W46549  13.949   3.324  13.775 -0.1280  0.0340  0.2722
30416W        W46550   8.555   2.926   3.864  0.0515  0.1370  0.2716
30417W        W46551   2.135   4.420   3.966  0.1226  0.0227  0.1321
30418W        W46552   6.229  16.300   0.959 -0.0246 -0.0499  0.3255
30419W        W46553  11.196   2.845  12.445 -0.1791 -0.3886 -0.2852
30420W        W46554   2.347  15.479   1.238  0.0488  0.3629 -0.3313
30421W        W46555   5.841   1.047   1.096  0.1582  0.2459  0.0505
30422W        W46556   9.517  16.427   1.929  0.0335  0.0278 -0.1891
30423W        W46557   2.136   2.612   0.253  0.0577 -0.0923  0.3502
30424W        W46558  16.663   3.163  12.002 -0.0814 -0.1066 -0.3360
30425W        W46559   5.661   2.873  13.163 -0.4009  0.1257 -0.1589
30426W        W46560  10.825   9.697  14.247  0.0712 -0.3055 -0.0333
30427W        W46561   6.950   5.455  10.698  0.3567 -0.2822 -0.0708
30428W        W46562  14.619   8.887   3.496 -0.1885 -0.0874 -0.0178
30429W        W46563   3.874  10.322  15.602  0.2490  0.0311 -0.3932
30430W        W46564   7.240   2.253  11.548 -0.0510 -0.0835  0.1463
30431W        W46565  12.163  13.708   0.799  0.0053  0.0440  0.0636
30432W        W46566   9.499   4.342  15.906  0.2556  0.3914 -0.0076
30433W        W46567   3.185  13.748  14.549  0.0896 -0.0237  0.0829
30434W        W46568  13.990  15.309   0.130  0.2302 -0.0994  0.1411
30435W        W46569   0.380   4.334   2.489 -0.0178  0.1498 -0.0126
30436W        W46570  18.398  18.235   4.768  0.0460 -0.4723 -0.1042
30437W        W46571  11.733  14.857  15.905 -0.0815 -0.1093  0.1303
30438W        W46572   7.411  11.272   3.031 -0.0499 -0.1288 -0.0104
30439W        W46573   4.716   7.224  12.593 -0.3228  0.0264  0.2140
30440W        W46574  10.580   1.603   3.413  0.5049 -0.0914 -0.0443
30441W        W46575   6.453  12.851   3.534  0.0608  0.0794  0.0981
30442W        W46576   4.521   9.626  15.604  0.0970  0.0808  0.2217
30443W        W46577  15.518  12.427  13.462  0.2976  0.0650  0.3874
30444W        W46578   6.494  15.901   1.912  0.2879 -0.2798 -0.2660
30445W        W46579  13.920   5.121  11.823  0.0239 -0.1825 -0.0842
30446W        W46580   3.325  15.328   3.583 -0.0641 -0.0709  0.1020
30447W        W46581   6.946  10.411   4.464 -0.1449 -0.1471 -0.0070
30448W        W46582   0.109  14.933   1.321  0.2774  0.1011 -0.0987
30449W        W46583  18.053   4.118  12.722  0.0561  0.1597  0.1364
30450W        W46584   3.224   1.678   3.400  0.4195 -0.0329  0.0474
30451W        W46585   7.474   1.797  13.700  0.1821 -0.0736  0.3819
30452W        W46586  14.595  11.836  15.878  0.2496  0.1352 -0.1563
30453W        W46587  13.032  13.534   0.073  0.0205  0.0104  0.1716
30454W        W46588   3.754  16.929   3.528 -0.0535 -0.0634 -0.0267
30455W        W46589   3.006   1.886   1.174  0.2008 -0.0021 -0.1159
30456W        W46590  16.943  10.081   3.826  0.0684 -0.1178 -0.2919
30457W        W46591  13.997  10.164  13.294  0.2709  0.2615  0.1857
30458W        W46592   0.199  10.204  12.706 -0.1610  0.1567 -0.0023
30459W        W46593  11.897  11.618  12.435  0.2034  0.0838 -0.0528
30460W        W46594  17.078   6.892   2.481  0.0917  0.2881 -0.6701
30461W        W46595  11.329   3.935  13.750  0.0033  0.0004 -0.0892
30462W        W46596   0.664   6.959   4.783  0.0435 -0.2050 -0.2116
30463W        W46597   0.641   1.211  15.255  0.1763  0.0456  0.0839
30464W        W46598   7.596  17.773  15.124  0.1434 -0.4022  0.1438
30465W        W46599  10.412   2.508   5.953 -0.1309  0.0842 -0.1201
30466W        W46600   2.467  12.124  14.034  0.2049 -0.3210  0.2196
30467W        W46601  12.561  17.920  13.450  0.2091  0.1587  0.0049
30468W        W46602  16.030  17.455   4.048  0.1370  0.0817  0.0226
30469W        W46603  13.614   5.899   0.024  0.0770  0.2470  0.1145
30470W        W46604   3.656  15.939  11.630  0.1314 -0.1146 -0.1785
30471W        W46605  16.407   4.885   2.951  0.1633 -0.1095  0.1400
30472W        W46606   9.082  11.795  14.954 -0.2365  0.0279  0.1213
30473W        W46607   5.813   8.238  15.248 -0.1162  0.1458  0.0073
30474W        W46608  14.877   6.676   5.220 -0.0305  0.0248  0.3811
30475W        W46609   1.703  10.283  15.275 -0.0259 -0.1241  0.3713
30476W        W46610   3.750  15.564  16.076 -0.0664 -0.1290  0.1425
30477W        W46611  12.555   3.047  13.390 -0.0426  0.0322 -0.0359
30478W        W46612   6.403  13.334  13.598  0.2415 -0.0126  0.3677
30479W        W46613   3.653   4.063   5.304 -0.0427  0.0514  0.1993
30480W        W46614  14.343   1.213   0.111  0.0962 -0.0438 -0.2226
30481W        W46615   4.688  11.631   3.344 -0.0139 -0.3361  0.0246
30482W        W46616   6.070   4.942   3.585  0.1788  0.5629  0.3381
30483W        W46617  12.085   4.380   1.546  0.0888 -0.0898  0.2308
30484W        W46618   9.560   6.343   0.568 -0.0233  0.2314 -0.0070
30485W        W46619  10.452   0.704   5.236 -0.3145 -0.4876  0.0726
30486W        W46620   3.322  11.743  12.912 -0.1554 -0.1520  0.1567
30487W        W46621   6.357   5.674  14.496  0.0694  0.1450  0.2564
30488W        W46622  18.239  17.401  15.069  0.1158 -0.4449  0.1347
30489W        W46623  16.166   3.123  12.687  0.1616  0.1566 -0.2614
30490W        W46624  10.377  15.942   1.182  0.2862 -0.1098 -0.0552
30491W        W46625  10.535  14.830   2.489 -0.0850 -0.2994  0.2360
30492W        W46626   5.618  10.963  11.220 -0.0698 -0.0589 -0.0191
30493W        W46627   6.589   9.509   5.263 -0.0613  0.2185  0.1504
30494W        W46628  12.357  16.203   2.254 -0.0008  0.4406 -0.0627
30495W        W46629  10.497   2.913  13.479  0.2232  0.0011  0.3192
30496W        W46630  11.340   5.513  12.876 -0.1535  0.1729 -0.0976
30497W        W46631   8.334   0.549  12.433 -0.2083 -0.1211  0.1833
30498W        W46632  10.450   6.252  12.353  0.0674 -0.0435  0.2414
30499W        W46633  18.257  12.516  14.178 -0.1522  0.2552 -0.0478
30500W        W46634  14.434   5.905   2.601  0.2529  0.1548 -0.0759
30501W        W46635  16.193   4.501  11.574  0.2487  0.2795  0.1444
30502W        W46636   9.876   0.096   5.751  0.0156  0.3278  0.2041
30503W        W46637   9.602  12.259   3.898 -0.0060  0.1502  0.0540
30504W        W46638  10.201  11.110   3.303  0.1651  0.2259  0.0077
30505W        W46639  14.739   4.657  11.944  0.1665  0.0033  0.0849
30506W        W46640  12.153  11.646   3.807 -0.3838 -0.3719  0.2202
30507W        W46641   7.105  13.921  13.509 -0.0562 -0.0173 -0.0617
30508W        W46642  13.310   6.310   3.340  0.0904  0.1777 -0.0184
30509W        W46643   9.329   3.658  13.619  0.0506 -0.1132 -0.0819
30510W        W46644  13.075   1.145   3.494 -0.0447 -0.0960  0.0075
30511W        W46645  12.769   8.170   5.125 -0.0688 -0.2680  0.0534
30512W        W46646  17.485   4.484   2.183 -0.0104 -0.0060  0.1047
30513W        W46647  14.879   3.729  13.418 -0.1187  0.2761  0.3973
30514W        W46648   3.510  12.684  14.177  0.0263 -0.3393 -0.0935
30515W        W46649   2.911  10.170   3.811  0.2082 -0.1998  0.0188
30516W        W46650  15.295   8.093   2.341  0.4230  0.1258 -0.0953
30517W        W46651  13.034  12.160  11.096  0.3037 -0.2169  0.5447
30518W        W46652  14.399  10.799  11.999  0.1157  0.0693  0.0786
30519W        W46653  17.478  14.005  14.279  0.2309  0.0583  0.0910
30520W        W46654  16.882  14.363  11.343  0.3520  0.0357 -0.1232
30521W        W46655  17.121   6.597   5.105  0.0383  0.1995  0.4996
30522W        W46656   4.967  15.747  11.696  0.2433  0.0518 -0.3065
30523W        W46657  13.200  13.274   2.970  0.2769  0.0636 -0.0167
30524W        W46658   6.899  10.172  14.211  0.1345 -0.0701 -0.3486
30525W        W46659  11.366   4.351  14.652  0.3793 -0.0148 -0.0343
30526W        W46660  11.322  17.678   5.879 -0.1028  0.3092 -0.1094
30527W        W46661   8.585   7.366   3.744  0.1112 -0.1438 -0.0525
30528W        W46662  11.922  16.989  15.882 -0.1741  0.0819 -0.1878
30529W        W46663   6.742   1.743   2.745 -0.3187 -0.1395 -0.0591
30530W        W46664   7.003   0.105   1.679  0.1576 -0.0532 -0.0774
30531W        W46665  10.053   6.022   2.335  0.3390 -0.0352  0.2367
30532W        W46666   5.177   4.767  16.079  0.0599  0.0340 -0.2266
30533W        W46667  18.146   5.155  12.432  0.0398 -0.1367 -0.0561
30534W        W46668   8.488   5.875   1.249  0.1295  0.0505  0.0629
30535W        W46669  12.615   7.828  15.306  0.0277 -0.1158  0.0613
30536W        W46670  17.529  13.066   4.629 -0.1980  0.2394  0.3356
30537W        W46671  15.302   0.655   3.149 -0.3433 -0.0611  0.0975
30538W        W46672   3.715  11.934  12.596  0.3104 -0.0406  0.1703
30539W        W46673  18.027   0.517   1.144  0.2878  0.0509 -0.2915
30540W        W46674  13.634  11.177  11.540 -0.0621 -0.1956  0.0805
30541W        W46675   2.476  12.900  11.933  0.1468 -0.0184  0.0330
30542W        W46676   7.336   7.630   4.770  0.1526 -0.0231 -0.0870
30543W        W46677   4.791   9.026  15.020  0.0406 -0.3115  0.0096
30544W        W46678   5.372   0.815   1.548 -0.0403  0.0683  0.3442
30545W        W46679   2.803   4.685  13.470 -0.1552  0.0606  0.1269
30546W        W46680   4.530   7.972  13.407  0.1517 -0.1483  0.1239
30547W        W46681   0.207  16.893  14.042 -0.3432  0.0169  0.1265
30548W        W46682   7.276   3.391   1.151 -0.1916 -0.2369  0.1260
30549W        W46683   1.786   6.648  12.144 -0.1687 -0.3153  0.3445
30550W        W46684  14.582   4.922   1.687  0.0895 -0.0004 -0.2426
30551W        W46685  10.291   6.694  15.852  0.1614  0.2282 -0.0915
30552W        W46686  10.517  10.310  13.631  0.3667 -0.1580  0.0806
30553W        W46687   2.060   8.601  15.034 -0.0069 -0.0838  0.1481
30554W        W46688   7.674   8.602  13.466 -0.0389 -0.1714 -0.0148
30555W        W46689   7.555   2.771  11.679  0.0430  0.2472 -0.1313
30556W        W46690  12.563   4.490  14.983 -0.2652 -0.2055 -0.1127
30557W        W46691  14.176   7.782   3.608 -0.1516 -0.0528  0.1107
30558W        W46692   9.688   0.681  14.382 -0.0506  0.0614 -0.1782
30559W        W46693  17.560  15.590   3.652 -0.0185 -0.1908 -0.0266
30560W        W46694   2.137   3.490  15.158  0.0877 -0.0848  0.2450
30561W        W46695   6.112   7.385   2.528 -0.2495 -0.1170 -0.0109
30562W        W46696   7.789   5.571  15.592  0.1534  0.2708  0.1703
30563W        W46697   4.947   9.345  10.820  0.0955 -0.0905  0.1653
30564W        W46698  14.711  15.764  14.198  0.5679  0.0890  0.2325
30565W        W46699  15.964   0.144  14.856  0.0288  0.0901  0.0848
30566W        W46700  10.133  12.267   5.047 -0.1567 -0.1670 -0.0188
30567W        W46701  15.023  15.187  10.249  0.0919  0.2233  0.3193
30568W        W46702   9.087   0.456   1.004 -0.0269  0.3883  0.0736
30569W        W46703  17.308  16.817  12.517  0.0482  0.0116 -0.0289
30570W        W46704   3.411   4.364  14.735  0.0145 -0.3042 -0.0349
30571W        W46705   0.011   3.129  10.758  0.0594  0.1558  0.2960
30572W        W46706  10.414   8.489  15.408 -0.0247  0.0792 -0.0010
30573W        W46707  13.304  17.631  14.975  0.1034  0.0399  0.0933
30574W        W46708   0.322   3.286  14.260  0.2059  0.3742 -0.0092
30575W        W46709   1.000  11.888  11.745  0.3347  0.0569 -0.0169
30576W        W46710   7.346  16.242  13.872 -0.4037  0.1917  0.1156
30577W        W46711  13.823   0.082   3.856  0.1359  0.0201 -0.0937
30578W        W46712  10.118  17.854   4.712 -0.2896 -0.1308  0.0421
30579W        W46713  15.042  15.720   3.160  0.5379  0.1051  0.0503
30580W        W46714   3.663  17.993  12.912  0.2034 -0.0795 -0.2315
30581W        W46715   2.316  13.309  14.015 -0.1191 -0.2310 -0.1869
30582W        W46716  11.872  12.311   0.425 -0.2075 -0.1239 -0.0699
30583W        W46717   2.431  17.666   1.483  0.0160  0.1365 -0.0339
30584W        W46718   9.303  11.680   4.104 -0.1310  0.1075  0.1457
30585W        W46719   0.135   6.658   1.539  0.2061 -0.1630 -0.3298
30586W        W46720   8.611   2.577   3.090  0.0850 -0.4715 -0.0959
30587W        W46721   0.157   3.900   4.743 -0.0817 -0.1432 -0.0732
30588W        W46722  17.719   1.351   4.249 -0.0337 -0.0182 -0.0212
30589W        W46723  14.406   8.577  15.486  0.1455  0.2766 -0.1264
30590W        W46724   2.826   5.868   0.030  0.1620 -0.2434 -0.1107
30591W        W46725   0.461  11.217   4.880  0.2646 -0.3852 -0.0525
30592W        W46726   0.326   8.409   2.515 -0.2747 -0.2060  0.0965
30593W        W46727   8.096  15.318   2.857 -0.0260 -0.2359  0.0735
30594W        W46728  14.492  17.197   1.729  0.0554 -0.3684 -0.0321
30595W        W46729  10.999   0.057   2.575 -0.3243 -0.3736  0.0423
30596W        W46730  10.038   3.668   2.730 -0.2538  0.0927 -0.1234
30597W        W46731  17.752   4.632   4.995  0.2723  0.0213  0.2344
30598W        W46732  15.747   7.769   4.854  0.1054  0.1584  0.3422
30599W        W46733   2.296   9.182   1.381  0.0628  0.3419  0.0538
30600W        W46734   1.484   1.318  13.815  0.1535  0.2176  0.2288
30601W        W46735   6.081   8.058   1.069 -0.0639  0.0424 -0.1184
30602W        W46736   4.563   1.373   1.445  0.1385  0.1042  0.2602
30603W        W46737   5.521  11.010  13.827  0.0397  0.2162 -0.0147
30604W        W46738   6.417   6.788   1.148  0.1405 -0.1806  0.1071
30605W        W46739  14.704  14.090   2.779  0.0401 -0.2042  0.2685
30606W        W46740  11.069   8.052   2.061 -0.0704  0.0476 -0.0713
30607W        W46741   3.395   7.013  12.356  0.4648 -0.2042 -0.1980
30608W        W46742   4.288   9.748  14.657 -0.2852  0.0719  0.2298
30609W        W46743  10.283   4.875  15.739 -0.1473 -0.3008 -0.0621
30610W        W46744   6.777   1.111   0.833  0.0552 -0.3054 -0.2518
30611W        W46745  16.676  10.338   0.780  0.3347 -0.1263 -0.4032
30612W        W46746   1.980  16.041  11.911  0.0476 -0.0684 -0.1054
30613W        W46747   4.200  14.200  13.198  0.0495  0.1587 -0.1045
30614W        W46748   8.234   7.601  12.307 -0.2311 -0.3453 -0.1375
30615W        W46749  13.889   6.040   4.020 -0.3550 -0.0656 -0.3369
30616W        W46750   4.546   2.252  11.316 -0.0717 -0.3429  0.3181
30617W        W46751   7.198  17.677   1.891  0.1996  0.2409  0.0256
30618W        W46752   7.689  10.128   4.615 -0.1462 -0.1467 -0.1271
30619W        W46753  17.997  13.978   5.010 -0.0981 -0.0560 -0.3932
30620W        W46754   5.149  13.814  14.396 -0.5130 -0.0053  0.0853
30621W        W46755   9.808   0.725   4.246  0.4367  0.1946  0.1087
30622W        W46756  11.327   8.553   2.149  0.2240  0.1021 -0.2043
30623W        W46757  15.823  13.079  15.864  0.0749 -0.0435 -0.0596
30624W        W46758  16.684  10.689  14.219  0.5679  0.0181 -0.1507
30625W        W46759   7.749   9.407   2.399  0.0319 -0.0022  0.0729
30626W        W46760   2.007  14.171  10.321  0.2140 -0.1185 -0.5495
30627W        W46761  11.010   6.537   4.004 -0.3199  0.0825 -0.0604
30628W        W46762  13.369   7.040  15.727  0.0290  0.0118 -0.0414
30629W        W46763   9.794  10.794   4.436  0.2231  0.0267  0.1455
30630W        W46764  13.265  13.382   5.969 -0.0090 -0.0173 -0.1581
30631W        W46765  12.791   9.091   2.084  0.0806  0.1600  0.2010
30632W        W46766  13.861  11.426   0.168 -0.1038 -0.0887 -0.2227
30633W        W46767  12.229  10.105  12.935 -0.3384  0.3407 -0.1561
30634W        W46768  13.086   7.936   4.397  0.2993  0.3705 -0.0140
30635W        W46769   6.017  17.726  14.164 -0.1453 -0.4561 -0.2739
30636W        W46770   5.297   8.455   0.211 -0.2978 -0.3075  0.2082
30637W        W46771  10.147   2.222   0.465 -0.0675  0.1170 -0.2678
30638W        W46772   2.234   8.419  11.222  0.2982  0.2162 -0.2640
30639W        W46773   1.482   0.441   1.044  0.2572  0.0457 -0.4615
30640W        W46774  18.202   9.866   1.401 -0.1379 -0.2675  0.1587
30641W        W46775  14.272   0.692   0.924 -0.1036 -0.2538  0.1774
30642W        W46776   5.087   6.325   5.117 -0.2597  0.0055  0.2371
30643W        W46777   9.624   6.967  15.028 -0.2393  0.0714 -0.0721
30644W        W46778   8.145  11.629  14.164  0.3021  0.0392 -0.2037
30645W        W46779   6.861   6.812  13.834  0.0150 -0.0271 -0.0460
30646W        W46780  18.064   5.042  15.311 -0.2280 -0.0254 -0.0997
30647W        W46781  13.556   2.343   5.983 -0.0556 -0.0685 -0.0120
30648W        W46782   9.519  16.999  10.707  0.1393 -0.1309  0.1086
30649W        W46783   3.889   3.341   0.207  0.0735 -0.0083 -0.1670
30650W        W46784   0.966  12.951   2.981 -0.0803  0.0071 -0.0905
30651W        W46785  16.694   3.881   4.203  0.2400 -0.4084 -0.0769
30652W        W46786  17.472   2.884   3.073 -0.1162  0.0105  0.0133
30653W        W46787  16.165  17.302  15.804  0.0866 -0.1222  0.0982
30654W        W46788   1.033  12.815   9.794  0.0113  0.2671  0.0456
30655W        W46789  11.711   6.952   2.072  0.0232 -0.0035 -0.0909
30656W        W46790   8.442  12.109   0.611 -0.3082  0.1220 -0.1920
30657W        W46791  16.384  16.645  10.910 -0.0255 -0.0657 -0.3963
30658W        W46792  17.758   2.158   4.355  0.1356  0.0509 -0.0894
30659W        W46793  16.963  10.345   1.939  0.0987 -0.3435 -0.1147
30660W        W46794  10.139   7.454   2.654  0.0507  0.0529  0.0649
30661W        W46795  11.977  15.446   2.948  0.0028  0.1542 -0.3487
30662W        W46796   4.453   3.547   1.817 -0.0059  0.0513 -0.4194
30663W        W46797  10.896   9.159  15.857  0.0398  0.0870 -0.0604
30664W        W46798  11.977  15.430  11.344 -0.0176 -0.2288 -0.4117
30665W        W46799  14.654   0.380   4.044 -0.2326 -0.1549 -0.3629
30666W        W46800  13.495  15.471   0.051  0.1462 -0.0967 -0.3043
30667W        W46801   1.026   6.816  14.288 -0.2920 -0.3529  0.0645
30668W        W46802  17.735  16.892   3.880 -0.1733 -0.0698 -0.0987
30669W        W46803   9.193  16.305  13.932  0.1809  0.2105  0.0653
30670W        W46804  15.587  16.212  14.698 -0.1324 -0.0047 -0.2967
30671W        W46805   5.604   0.498  15.430  0.1076 -0.3604 -0.0572
30672W        W46806   9.081   5.760  13.465 -0.0379 -0.0337 -0.0155
30673W        W46807  17.049   7.574  11.992  0.1444 -0.0200  0.0187
30674W        W46808   1.008   6.471   2.099 -0.0209  0.0390 -0.0892
30675W        W46809  18.242   7.296  13.220  0.1983  0.0200 -0.4955
30676W        W46810  11.206   2.515  12.002 -0.0440  0.0627 -0.2440
30677W        W46811   7.294   3.857   3.098  0.1389 -0.1313  0.3733
30678W        W46812   5.353   5.470   5.429 -0.0375  0.0190  0.0520
30679W        W46813   4.210  16.606  13.546  0.0595  0.1791 -0.1509
30680W        W46814  14.453   5.374   1.856  0.2802  0.0905  0.4146
30681W        W46815  10.373  15.626   6.556 -0.0355 -0.0034 -0.0716
30682W        W46816  15.140  15.464  12.608 -0.0225 -0.0090  0.2405
30683W        W46817   5.951   9.034  13.490 -0.2669  0.3384 -0.1527
30684W        W46818  13.548  10.275  12.025 -0.0141  0.1345 -0.0937
30685W        W46819   8.021  18.014   2.015 -0.4242 -0.0273  0.0120
30686W        W46820   0.339   4.039  10.689 -0.2152  0.1254  0.2277
30687W        W46821   1.800   0.889   1.124 -0.1993 -0.0835  0.3132
30688W        W46822   1.967   5.316   3.705 -0.3261 -0.0518  0.1374
30689W        W46823  15.371   5.019  15.798  0.0861 -0.3392 -0.0416
30690W        W46824   4.753   1.942   1.323  0.0871  0.1231 -0.0557
30691W        W46825  14.336   0.462  13.930  0.1680 -0.1180 -0.1130
30692W        W46826   7.389   9.876   3.574 -0.2874  0.0495 -0.3594
30693W        W46827   0.922  17.635   5.073 -0.0372  0.2256 -0.2028
30694W        W46828  10.919  14.230   5.923  0.1295  0.0959  0.0062
30695W        W46829   0.323  11.678   1.868 -0.0484 -0.0347  0.1863
30696W        W46830   2.891   4.493  14.483 -0.0580 -0.0697 -0.0283
30697W        W46831   8.933   9.055  11.992  0.1844 -0.2031 -0.2986
30698W        W46832  13.306   1.633   4.008  0.2431 -0.4759  0.2207
30699W        W46833   6.089   9.545  15.244  0.3846  0.3225  0.1080
30700W        W46834   7.054   3.405   4.455  0.2715  0.1487  0.1639
30701W        W46835   9.995  15.116   4.767 -0.1431 -0.2247 -0.2487
30702W        W46836   1.137   8.295  15.250 -0.3615  0.0461  0.0568
30703W        W46837   2.192   8.728   2.661  0.3258  0.4191 -0.0471
30704W        W46838   2.941  16.052  16.050 -0.3484 -0.0567  0.0573
30705W        W46839  10.479   2.467   2.476  0.0990 -0.0628  0.2383
30706W        W46840  13.421   2.564   2.339  0.0262 -0.1783  0.0620
30707W        W46841  17.173   8.314   1.574  0.2442  0.0832 -0.2652
30708W        W46842  10.940   1.730  15.404  0.1253 -0.2740  0.1758
30709W        W46843   5.239   3.366  10.088 -0.3971 -0.2432  0.2693
30710W        W46844  12.285  14.305  11.736 -0.1337 -0.0864  0.0853
30711W        W46845  11.779   8.953   4.964 -0.2566  0.4390 -0.1451
30712W        W46846   2.908  17.203  15.749  0.0366 -0.1500 -0.0048
30713W        W46847  13.230  12.398  13.207  0.0754 -0.4990 -0.0112
30714W        W46848   7.885   7.616  13.270 -0.0240  0.1014 -0.0610
30715W        W46849   9.077   4.909   3.230 -0.1476 -0.0539 -0.2791
30716W        W46850  12.443   8.016   4.727  0.1041 -0.1991 -0.0349
30717W        W46851  15.004  10.405  14.378  0.3312  0.1334 -0.2638
30718W        W46852   2.920   8.377   2.942 -0.1396 -0.0284  0.0812
30719W        W46853   5.487  15.109   4.024 -0.1007  0.0545  0.1216
30720W        W46854   8.278   7.364   3.334 -0.0841 -0.2825  0.2583
30721W        W46855  10.925   8.603  13.187  0.3702 -0.0325 -0.1616
30722W        W46856  10.911   3.154   0.912  0.0314 -0.3983 -0.2944
30723W        W46857   9.836  15.232   2.299  0.1826 -0.2614 -0.1145
30724W        W46858  13.587  17.207   0.997 -0.0372 -0.2665  0.0171
30725W        W46859   0.503  15.989   0.580 -0.3958  0.0567 -0.2171
30726W        W46860   9.456   5.821  14.722 -0.1494 -0.3995  0.1044
30727W        W46861   0.827   4.730  13.915  0.2433  0.1157  0.0255
30728W        W46862   2.195  14.491   3.085  0.0753  0.2862 -0.1682
30729W        W46863  14.602   2.574  15.605 -0.2926 -0.2673 -0.2263
30730W        W46864   3.360  13.877   3.120 -0.2529 -0.0916  0.3546
30731W        W46865   5.679  16.199  15.910  0.5718  0.1369 -0.1745
30732W        W46866   2.537  17.117   3.915 -0.2375  0.1375  0.3196
30733W        W46867   2.591   9.262   4.267  0.4120  0.2860  0.0889
30734W        W46868   7.533  13.445  15.847 -0.0119 -0.1215  0.1975
30735W        W46869   9.523   0.469  13.113  0.0538 -0.1584  0.3338
30736W        W46870   8.991  15.944  15.597  0.1157  0.2182 -0.0697
30737W        W46871  15.049   7.259  12.541  0.2049 -0.0527  0.3219
30738W        W46872   8.945   7.092   4.590  0.0946  0.0115  0.2782
30739W        W46873   1.061   1.022  14.048  0.2840  0.1153  0.1506
30740W        W46874   0.106  13.349   3.251  0.2030  0.2194  0.0349
30741W        W46875   2.511   2.842   3.541  0.1425  0.0301 -0.3099
30742W        W46876  13.466  15.590  14.939 -0.0400 -0.3179 -0.0467
30743W        W46877   7.393  14.234  12.735 -0.0759 -0.0496  0.2344
30744W        W46878  12.063  17.194   2.480  0.1227  0.1997  0.0506
30745W        W46879  15.799   7.972  15.675 -0.0233  0.0597 -0.1434
30746W        W46880   4.585   4.537  15.779 -0.1216  0.0421 -0.0614
30747W        W46881   5.588  18.045   2.622 -0.0448  0.2702  0.3787
30748W        W46882   0.878   5.193   5.270 -0.2995  0.1510  0.1002
30749W        W46883   3.511  11.528   4.999  0.3296 -0.1562  0.0355
30750W        W46884  11.707  10.987  14.011 -0.1375 -0.1036  0.0793
30751W        W46885   1.095   3.781  14.224 -0.0654  0.4004  0.0297
30752W        W46886   8.838  12.753   1.147  0.0015 -0.1805  0.0683
30753W        W46887   7.449  16.809   1.547  0.1264 -0.0682  0.2017
30754W        W46888   9.175  17.202  11.617 -0.1254 -0.0557  0.1649
30755W        W46889  18.122   4.218  13.590 -0.3113 -0.1130 -0.3156
30756W        W46890   3.825  16.166  12.116  0.0657  0.0483  0.1379
30757W        W46891   6.427   5.334   0.481 -0.0376  0.1258 -0.0172
30758W        W46892   5.470  10.179   4.043 -0.1341 -0.1704 -0.1102
30759W        W46893  17.866   3.365   3.053  0.1292 -0.0163  0.1352
30760W        W46894  15.510   0.610   4.206  0.1519  0.0522 -0.0814
30761W        W46895  10.337   1.151   1.860  0.0771 -0.0624 -0.0742
30762W        W46896   8.454   8.334   5.844  0.2279  0.1227 -0.1746
30763W        W46897  15.617   7.363  13.739 -0.2015  0.0615  0.0841
30764W        W46898  11.283  14.171   3.804 -0.0207 -0.0082 -0.0622
30765W        W46899  13.227   2.348   5.613  0.2364 -0.0763  0.0024
30766W        W46900   1.474  11.288   0.625 -0.1750  0.1643  0.1054
30767W        W46901  11.519   9.243  14.945 -0.1248 -0.1970  0.2539
30768W        W46902   8.580  17.069  14.883 -0.0910  0.0507 -0.1381
30769W        W46903  15.549   4.762  14.050 -0.0041 -0.1923  0.1453
30770W        W46904   1.816  15.332  13.857  0.0058 -0.1242 -0.0863
30771W        W46905   8.448  10.596  14.374 -0.1056  0.1206 -0.1749
30772W        W46906   9.223   2.302   3.958  0.0170 -0.0016 -0.1518
30773W        W46907   3.184  10.783  14.991 -0.1668  0.0483 -0.3321
30774W        W46908   1.474   0.803  12.381  0.0388 -0.2890 -0.1088
30775W        W46909   4.673  14.787  11.948  0.0177 -0.0756 -0.0385
30776W        W46910   5.708   2.875   4.056 -0.2692 -0.0005  0.0575
30777W        W46911   1.251  16.369  12.946 -0.1408 -0.1551  0.1769
30778W        W46912   1.722   2.143  14.822  0.0481  0.0626 -0.1250
30779W        W46913   0.103   5.644  13.372 -0.0475  0.4160  0.0204
30780W        W46914   4.614   1.004   1.926 -0.1258 -0.1337  0.2684
30781W        W46915   1.688  10.301  12.339  0.0181  0.4040 -0.2821
30782W        W46916   7.809   5.160   4.529 -0.0482 -0.2296 -0.0801
30783W        W46917   0.806  11.263   4.553 -0.0447  0.3822 -0.2569
30784W        W46918  11.046   9.513   2.966  0.2267 -0.3840  0.1559
30785W        W46919   4.429  10.564  12.290  0.0825  0.1320 -0.1847
30786W        W46920  15.159   1.431   5.477 -0.2797 -0.1718 -0.1346
30787W        W46921   3.686  17.469   2.602  0.0376 -0.1546 -0.0485
30788W        W46922  11.147   5.350   4.961  0.3240 -0.0913 -0.0791
30789W        W46923   1.625   5.094  10.844 -0.0072 -0.3896 -0.1515
30790W        W46924   5.322   4.986   5.301 -0.3216  0.3070  0.1052
30791W        W46925   6.869   1.049   3.622  0.0600 -0.1390  0.1087
30792W        W46926   3.046   1.480  15.689  0.0809 -0.0048 -0.0440
30793W        W46927   4.603  10.865  14.065  0.1831 -0.2893  0.0539
30794W        W46928   4.075  15.620   4.997  0.1743 -0.2768 -0.0984
30795W        W46929  13.328  11.855   1.682  0.0692 -0.0479  0.1581
30796W        W46930  10.169   1.117   4.282 -0.1512  0.0390  0.0435
30797W        W46931   4.193  10.855  16.020  0.1057  0.0174  0.0038
30798W        W46932   5.718   8.060   1.478 -0.1086 -0.0934  0.0249
30799W        W46933   3.806  12.912  14.763 -0.0629 -0.0857 -0.0103
30800W        W46934   3.314  12.235  14.269 -0.2286 -0.1128 -0.1768
30801W        W46935   0.260  17.046   0.502 -0.1607 -0.1577  0.0456
30802W        W46936  13.352   7.791   3.624  0.0735  0.0261 -0.1285
30803W        W46937   4.156  16.553   3.721  0.0800 -0.1166  0.0457
30804W        W46938  18.441   7.402  11.772 -0.1560  0.2187  0.1075
30805W        W46939   0.768  16.961  14.857 -0.1742  0.0003  0.0538
30806W        W46940  12.503   6.764  12.795  0.0021 -0.1638 -0.2365
30807W        W46941   5.162   4.063   3.984 -0.1443 -0.1505 -0.0541
30808W        W46942  11.097   7.488  13.667  0.0601  0.0446  0.4178
30809W        W46943   1.752   3.531   1.898 -0.2914 -0.2890  0.0088
30810W        W46944   4.613  15.918  15.501  0.1054 -0.0161  0.1444
30811W        W46945   6.970  15.534   1.745 -0.1245 -0.2103  0.2072
30812W        W46946  12.056   2.915  15.825 -0.0141  0.2625 -0.0628
30813W        W46947  10.998   3.904  12.119 -0.5506 -0.0157  0.1210
30814W        W46948  12.583  14.938   2.764  0.1645 -0.2043 -0.1741
30815W        W46949   3.287   8.040   4.069  0.1220  0.0576  0.0270
30816W        W46950  12.958   2.706   4.817  0.1534 -0.2220  0.3001
30817W        W46951   7.172   5.423  14.098 -0.1041  0.3769  0.2988
30818W        W46952   6.331  10.686   0.762  0.2198 -0.2184 -0.0326
30819W        W46953   2.928   4.233  14.961 -0.1098 -0.4034 -0.0758
30820W        W46954  13.199  15.890  14.058 -0.2071 -0.0943 -0.0031
30821W        W46955  16.439  16.736  13.962  0.1341  0.1355 -0.2209
30822W        W46956   0.682  17.329   0.222  0.0736 -0.1631  0.1715
30823W        W46957  12.394  14.016  12.199  0.2914  0.0354  0.0372
30824W        W46958  12.444   2.871  14.221  0.3573 -0.0816  0.2448
30825W        W46959  10.237  16.210  11.279  0.0029 -0.0000  0.1460
30826W        W46960  16.053  11.231  10.870 -0.0777  0.1247  0.3388
30827W        W46961  17.505  12.753  12.256 -0.1924  0.2561  0.0011
30828W        W46962  14.554   6.210  15.630  0.0556 -0.0279  0.0719
30829W        W46963   6.633  10.629  15.939  0.2182  0.0470  0.1667
30830W        W46964   7.850   2.078  12.075  0.0195 -0.1385  0.0275
30831W        W46965  17.543   8.974  15.026 -0.1221 -0.0632 -0.0767
30832W        W46966   7.507   0.368   3.415 -0.1762 -0.0344  0.3259
30833W        W46967   4.527  12.632  14.083 -0.0630  0.4781  0.0709
30834W        W46968   0.718   3.654   1.335  0.0673 -0.0892 -0.0229
30835W        W46969  13.502   8.693   2.012  0.3764  0.1337 -0.0219
30836W        W46970  17.044  14.357   4.084  0.0137 -0.0992 -0.0619
30837W        W46971  16.149   1.264   4.951 -0.0974  0.0161  0.1598
30838W        W46972  15.483   5.939  13.341  0.2433  0.1587 -0.3580
30839W        W46973   2.471  10.983   1.047 -0.2689  0.1328 -0.0125
30840W        W46974  10.911  10.479  11.743  0.3628  0.1014 -0.0619
30841W        W46975  14.790  10.863  14.643 -0.0431  0.0248  0.1335
30842W        W46976  18.058  15.040  13.218 -0.0288  0.2989 -0.1553
30843W        W46977   3.813   1.025   0.853  0.0103 -0.0438 -0.2481
30844W        W46978   4.210   0.590   5.004  0.0587 -0.0089  0.1767
30845W        W46979   3.680  14.568   9.919 -0.0756 -0.1229 -0.0336
30846W        W46980   9.503   6.840   3.868 -0.1958  0.3155  0.1313
30847W        W46981  13.125   0.727   0.323 -0.0606  0.2722 -0.0960
30848W        W46982   9.735   0.433   3.278 -0.4744  0.4081 -0.1166
30849W        W46983  12.271  11.671   5.304  0.1661  0.1145  0.1135
30850W        W46984   3.005   5.423  14.636  0.2081  0.3019  0.0736
30851W        W46985  17.686  12.832  11.282  0.0117  0.1010 -0.0287
30852W        W46986   1.511   0.623   4.484 -0.3416 -0.0806 -0.1807
30853W        W46987   7.389  14.125   1.728 -0.2702 -0.1401 -0.0151
30854W        W46988  13.569  12.211  12.349 -0.2024  0.2273 -0.1677
30855W        W46989   5.388   2.008   3.872  0.0895  0.0337 -0.0986
30856W        W46990   5.789  11.995  12.753 -0.3888  0.0038  0.2257
30857W        W46991   7.776  15.751   1.724 -0.0477 -0.1767  0.1894
30858W        W46992  12.881   7.977  12.575  0.3430  0.1416 -0.0141
30859W        W46993  18.127   5.307  11.312 -0.0862 -0.0095 -0.1173
30860W        W46994   3.873  10.692  11.505  0.4557  0.0347 -0.4468
30861W        W46995   8.681   1.886  11.364 -0.1171 -0.2289  0.1242
30862W        W46996   6.130   6.584   5.800 -0.1896 -0.1022  0.0928
30863W        W46997  13.139   8.361  13.810  0.2236 -0.1441  0.0018
30864W        W46998  17.299  12.402   2.239  0.0322 -0.4002  0.0463
30865W        W46999   6.911   9.483  11.928 -0.1908 -0.2026 -0.2070
30866W        W47000  13.190  10.395  15.556 -0.1663  0.1354 -0.0348
30867W        W47001  17.652  11.668  11.248 -0.1563  0.1078  0.1372
30868W        W47002  12.258  14.336  14.202 -0.0043  0.1488 -0.0489
30869W        W47003   7.317   1.811   6.204 -0.1114  0.0524 -0.2631
30870W        W47004  17.407   2.680  11.746  0.0787 -0.4433 -0.0253
30871W        W47005   1.299  17.141  10.771 -0.1598  0.4310  0.1214
30872W        W47006  13.200   5.907   5.536  0.1261  0.0816  0.1267
30873W        W47007   0.088   4.188   2.945 -0.0105  0.1790 -0.1213
30874W        W47008   9.247   7.685  13.830  0.0709 -0.2700 -0.0912
30875W        W47009   3.919   3.103   1.403  0.0860  0.0212  0.2105
30876W        W47010  15.514   5.270  13.163 -0.0717  0.2832  0.3387
30877W        W47011   3.993   4.101   1.247 -0.0772 -0.3085  0.5188
30878W        W47012  12.344  12.259   0.166  0.1621  0.2073 -0.0422
30879W        W47013  11.058   5.092   1.656 -0.0388  0.0971 -0.2169
30880W        W47014   7.581  14.375   1.373  0.0177 -0.2735  0.1280
30881W        W47015   7.966  17.149   5.248  0.0409 -0.1056  0.4849
30882W        W47016   5.783   7.754  14.387  0.1438 -0.0887  0.2429
30883W        W47017  16.350  10.467   3.380  0.2930 -0.0840  0.2332
30884W        W47018  10.907   7.959   0.335  0.2138  0.0151  0.2733
30885W        W47019  13.589  14.464   0.240 -0.0507  0.0464  0.3035
30886W        W47020   2.819   3.684   3.921  0.2282 -0.0362  0.1427
30887W        W47021  17.360  13.068   5.111  0.1290 -0.1649  0.0155
30888W        W47022  12.765  10.510  14.600  0.1111  0.2024 -0.1114
30889W        W47023   4.535  15.643   4.819  0.0777 -0.2435 -0.0582
30890W        W47024   0.910  11.224   2.078 -0.2346  0.0908 -0.1652
30891W        W47025  17.178  18.466  15.257  0.1299  0.5181  0.0473
30892W        W47026  14.324   0.354   3.148  0.1158  0.0592 -0.2084
30893W        W47027  17.814  16.503   1.713 -0.0285  0.1132 -0.1749
30894W        W47028   6.646   1.341   0.094 -0.2263  0.0402  0.5260
30895W        W47029   1.230   2.364   0.463  0.1152 -0.2647 -0.2492
30896W        W47030   0.568  13.740  14.037 -0.0788 -0.2505  0.0092
30897W        W47031   0.252  12.733  11.064  0.3692 -0.2713 -0.2777
30898W        W47032   7.994  17.699   3.839 -0.0039 -0.2065 -0.1516
30899W        W47033   6.025  10.516  12.618  0.2440 -0.2092 -0.0435
30900W        W47034   2.026  18.498  12.844  0.2279 -0.1201  0.0042
30901W        W47035   7.046   7.224   5.209 -0.0892  0.4033 -0.0064
30902W        W47036   5.511   6.287   3.824  0.2678 -0.0289  0.3713
30903W        W47037  15.666   2.487   0.877  0.0314 -0.0536 -0.2171
30904W        W47038   2.543  11.707  14.282 -0.3854  0.0665 -0.2407
30905W        W47039   8.264  18.117   3.880 -0.0429  0.1165  0.0243
30906W        W47040  12.175  10.849  12.215  0.2617 -0.0062 -0.0683
30907W        W47041   5.494   8.271  14.452 -0.1404 -0.0609  0.0800
30908W        W47042  10.978  14.792  11.837 -0.1662 -0.0080  0.1611
30909W        W47043  12.524   5.256   4.993 -0.0861 -0.3410 -0.0831
30910W        W47044   2.857   3.588  15.034  0.2482 -0.0259  0.0322
30911W        W47045   9.260   5.349   3.474 -0.1275  0.2551 -0.3402
30912W        W47046   5.381   3.285  11.467 -0.1381 -0.3414  0.0678
30913W        W47047   4.664  18.161  15.928  0.0900 -0.0121  0.0547
30914W        W47048   2.842   1.182   2.612  0.3821  0.2142  0.1628
30915W        W47049  16.101   6.399  11.832 -0.1396 -0.3291  0.0913
30916W        W47050   9.079  11.827  15.527 -0.2240 -0.0470 -0.3776
30917W        W47051  11.550  15.205  11.704  0.0719 -0.0918 -0.2035
30918W        W47052   0.851  14.802  13.888 -0.1372  0.1995 -0.0452
30919W        W47053   8.971   3.258   3.809 -0.2264 -0.2612 -0.2310
30920W        W47054   2.136   3.143  15.602  0.1447  0.2193  0.0954
30921W        W47055  12.719   7.935   2.172 -0.3623  0.0085 -0.2061
30922W        W47056   3.224  13.702  11.769  0.2884 -0.2093  0.1819
30923W        W47057   8.959  18.292  12.738 -0.0296 -0.0003 -0.0993
30924W        W47058  18.225   9.704  11.020 -0.0008 -0.1541 -0.3895
30925W        W47059   4.775   3.971  15.452 -0.0307  0.5370  0.1227
30926W        W47060  12.217  10.789   2.300  0.2394 -0.0804  0.0532
30927W        W47061   7.553   4.702  15.917 -0.1522  0.0886  0.0993
30928W        W47062  17.189   7.050   4.595 -0.0722  0.0443  0.1652
30929W        W47063   6.900   1.601   4.311  0.2258 -0.1146  0.3096
30930W        W47064  17.178  14.126   3.701  0.1747  0.0571  0.1563
30931W        W47065   0.234   6.371   4.317 -0.2132  0.0077 -0.0261
30932W        W47066   4.991   2.310  13.709  0.2301  0.0254 -0.0579
30933W        W47067   8.860  11.524   3.267  0.0090 -0.2860  0.1460
30934W        W47068  14.754  11.496  12.939 -0.0048  0.0519  0.2008
30935W        W47069   2.875   1.435  12.499  0.0604 -0.1972  0.0937
30936W        W47070   4.801   8.550   4.378 -0.1433 -0.0766  0.0143
30937W        W47071  13.463  13.378   1.871 -0.0462 -0.2727 -0.1854
30938W        W47072   3.160   8.948  12.270 -0.0903  0.4890  0.0615
30939W        W47073  13.370   6.417  14.432  0.3060  0.0577 -0.0490
30940W        W47074  13.494  13.333  12.819  0.0899 -0.0113  0.1966
30941W        W47075  11.471  17.997   3.893 -0.1149  0.0156  0.0043
30942W        W47076   8.582   4.988   3.506  0.0829  0.2664 -0.1496
30943W        W47077  12.815   3.061   0.013 -0.0480 -0.0432  0.3928
30944W        W47078   7.135   8.247   2.615  0.0235 -0.0791  0.0447
30945W        W47079   8.960  16.504   1.119  0.0773 -0.1693  0.1143
30946W        W47080   9.463  14.696   1.293  0.0054  0.2132 -0.0935
30947W        W47081  18.191  11.142  14.570  0.1719 -0.0998 -0.1295
30948W        W47082  17.207  11.269   4.302  0.3141 -0.1287  0.1048
30949W        W47083   4.186   2.094   4.822 -0.2219  0.2683 -0.3172
30950W        W47084   9.285   3.822   3.562  0.1888 -0.1742 -0.2081
30951W        W47085   9.709  14.821   0.120  0.1461  0.0618 -0.1854
30952W        W47086  12.054   0.310   1.048 -0.2432 -0.0572  0.0134
30953W        W47087  10.607   6.151  14.603  0.0001  0.0305 -0.0956
30954W        W47088   0.434  12.637  13.267  0.1001  0.3247 -0.2198
30955W        W47089   7.272  11.613   0.672 -0.0254  0.3735 -0.1748
30956W        W47090  11.378   7.838   3.717 -0.0249 -0.3712  0.2166
30957W        W47091  10.247  14.295  13.107 -0.0008 -0.2176  0.1466
30958W        W47092   8.389   9.912   0.575 -0.1168 -0.3035 -0.0127
30959W        W47093   7.063   3.063   4.790 -0.0197  0.0141 -0.0904
30960W        W47094  11.334  16.728  14.990  0.1483 -0.1482  0.1480
30961W        W47095   1.837  15.680  13.436  0.0691  0.2041  0.0040
30962W        W47096   1.368  18.183   4.083 -0.1929  0.1043 -0.4619
30963W        W47097   4.767   2.503  11.779 -0.4729 -0.0687 -0.0444
30964W        W47098  18.244  10.643  12.016 -0.0202  0.3834 -0.1362
30965W        W47099   2.710   4.919   0.119 -0.3894 -0.2151  0.4197
30966W        W47100   5.373  14.781   4.419  0.0162 -0.0744 -0.3753
30967W        W47101   3.841   1.526   0.571  0.2465 -0.1154  0.0708
30968W        W47102  17.772   2.600   0.220  0.0677  0.2646  0.0465
30969W        W47103  13.305  15.533  13.666  0.2377  0.1133 -0.0455
30970W        W47104   3.621  10.497  14.925  0.1892  0.0834  0.1122
30971W        W47105   5.191  10.178  12.741  0.1255  0.0362  0.1519
30972W        W47106  14.493  10.994   3.900 -0.2162  0.0972  0.1399
30973W        W47107   1.382   3.278   2.184 -0.0560  0.1739 -0.0659
30974W        W47108   1.589  17.596  14.482 -0.2382 -0.1061 -0.0133
30975W        W47109   5.852  14.798   1.341 -0.1266  0.0961  0.0342
30976W        W47110   3.026   7.137   4.895  0.1505  0.4942 -0.1126
30977W        W47111   2.481  13.295  14.690 -0.3229  0.0156  0.0245
30978W        W47112  15.141  14.363  15.158  0.0024 -0.0984 -0.0563
30979W        W47113   4.912   8.064  13.705  0.1892  0.1992 -0.0925
30980W        W47114  16.544   7.136  10.765 -0.2745  0.1489 -0.0315
30981W        W47115   4.500   8.147   4.505  0.2246 -0.0169  0.0364
30982W        W47116   9.421  16.553  15.525 -0.0334  0.1180 -0.0348
30983W        W47117   7.655  10.949   0.135  0.3457 -0.2285 -0.0686
30984W        W47118  12.512  18.301  13.036 -0.0392 -0.1748 -0.2415
30985W        W47119   4.681  13.257  12.723 -0.1282 -0.0050 -0.3826
30986W        W47120   8.148   2.784  15.097 -0.1285  0.1757 -0.0272
30987W        W47121   9.326   7.353  11.855 -0.1589  0.0452  0.1719
30988W        W47122   0.291   5.591  12.833 -0.0217 -0.4235  0.3528
30989W        W47123   1.658  17.743  15.330  0.1299  0.0253 -0.0675
30990W        W47124  12.766  16.508  11.795  0.1368 -0.0999  0.0343
30991W        W47125  11.460   5.462  10.778 -0.0058 -0.1121 -0.0302
30992W        W47126   1.491  12.864  14.311 -0.0930 -0.0099 -0.0515
30993W        W47127   3.241  12.003   2.860 -0.0414  0.4027  0.1855
30994W        W47128  16.036   7.460  14.212 -0.0229  0.1821 -0.1012
30995W        W47129  11.211   8.469  12.764  0.1465  0.2075  0.0422
30996W        W47130  16.622   7.008   2.329 -0.1454  0.2245  0.1136
30997W        W47131   3.778   8.604  16.041  0.2732  0.0300 -0.0389
30998W        W47132  10.742  14.988  10.942 -0.1313 -0.0228  0.3005
30999W        W47133   6.041   1.090  12.888 -0.0791 -0.1379  0.0129
31000W        W47134   4.066   3.720  15.027  0.3861  0.0099  0.1949
31001W        W47135  13.808  18.502  11.889  0.0690  0.1482  0.1570
31002W        W47136   2.624  13.004  15.970  0.0035  0.1494 -0.2511
31003W        W47137  10.411  17.032   5.830  0.0157 -0.1557  0.0683
31004W        W47138  14.721  17.028  15.034 -0.1183 -0.0891  0.0195
31005W        W47139   7.526  13.678   0.302 -0.2231 -0.1605  0.1225
31006W        W47140   0.592   6.619   0.376  0.4081  0.0390 -0.0530
31007W        W47141  12.916  16.234   1.171  0.0788 -0.0176 -0.1305
31008W        W47142  11.591   7.043   6.554 -0.0809  0.1574 -0.1931
31009W        W47143   3.313   9.959   1.561  0.1893  0.0151 -0.1208
31010W        W47144   3.399  16.719   0.887  0.2831 -0.3232 -0.2257
31011W        W47145   5.176  15.190  14.098 -0.1420 -0.0437 -0.2975
31012W        W47146   0.389  11.891  14.315 -0.2530 -0.0011  0.2741
31013W        W47147  10.548  14.958   5.425  0.2074  0.0819 -0.0647
31014W        W47148   1.087  16.231  15.029  0.2620 -0.1466  0.3649
31015W        W47149  15.841   0.183   2.092 -0.0580  0.1631 -0.0769
31016W        W47150  17.810   4.138  13.164 -0.0800  0.1961 -0.0304
31017W        W47151  11.470  10.202  13.682 -0.2489 -0.0514 -0.3687
31018W        W47152   1.641   5.758   1.879  0.0999  0.0109 -0.2912
31019W        W47153  11.934  15.152  13.588  0.2277  0.2916 -0.1309
31020W        W47154  15.120   7.043  14.472  0.0022  0.1264  0.1761
31021W        W47155   0.290   2.665   0.675  0.0467 -0.0396 -0.2926
31022W        W47156  13.980  17.804  13.897  0.2783  0.1309  0.2149
31023W        W47157   9.186   1.060   0.173  0.1681  0.0334  0.1399
31024W        W47158   6.545  12.770   1.358  0.0152 -0.1643 -0.0847
31025W        W47159  10.251  14.599  13.504  0.1697  0.0399 -0.0567
31026W        W47160   0.871   7.930   4.737  0.2335 -0.1023 -0.0174
31027W        W47161   1.075   4.368  14.842 -0.0524  0.0674 -0.1555
31028W        W47162   9.709  16.641  11.935  0.1393 -0.0847 -0.0754
31029W        W47163   6.691  11.425  15.405 -0.2377 -0.0952  0.0362
31030W        W47164  14.264  10.310  15.295  0.0551 -0.1980 -0.1805
31031W        W47165   6.404  13.980   1.219  0.2415 -0.0139 -0.1245
31032W        W47166   2.422  14.437   4.332  0.0134 -0.2128 -0.3381
31033W        W47167   8.569   1.130   0.578 -0.1945  0.0121 -0.2554
31034W        W47168  15.912   9.546  11.287  0.0130  0.3037 -0.3025
31035W        W47169  13.950  16.161   2.643 -0.0528  0.1370 -0.0712
31036W        W47170   4.289  10.291   2.665 -0.0104 -0.1020  0.1581
31037W        W47171   3.034   4.381   1.301 -0.2258 -0.0382 -0.0795
31038W        W47172   7.749  12.479   3.989 -0.0938 -0.1358 -0.4079
31039W        W47173   3.991   7.845   1.485 -0.2694 -0.0898  0.1082
31040W        W47174  11.538   2.650   4.300 -0.1177 -0.2854 -0.2568
31041W        W47175  16.624   8.983   2.107 -0.0486  0.2505 -0.3755
31042W        W47176  18.371  15.633  12.060 -0.0575 -0.0185 -0.0425
31043W        W47177   1.087   1.738   5.692 -0.0522  0.2273 -0.1841
31044W        W47178  14.431  18.230  15.697  0.2266  0.0205  0.0538
31045W        W47179   9.743  13.689  15.665  0.1978 -0.1325 -0.2422
31046W        W47180   1.908   6.736   1.165  0.0903 -0.4366 -0.2830
31047W        W47181  16.385   2.869  11.745 -0.1063 -0.1360  0.1329
31048W        W47182  18.358   6.770   0.165 -0.0614 -0.0105  0.1948
31049W        W47183  10.582   9.323  12.928  0.0154 -0.2202 -0.1498
31050W        W47184  13.048  15.445   4.492  0.1302 -0.1148 -0.2498
31051W        W47185  18.172  16.799  10.686 -0.0560  0.2102 -0.0213
31052W        W47186  17.393   8.606   2.949 -0.0122  0.0329 -0.1356
31053W        W47187  10.228   7.296   1.268  0.1009  0.1551 -0.0676
31054W        W47188  18.205  12.250   4.158 -0.0522  0.3945 -0.1772
31055W        W47189   4.513   4.432  14.092  0.2539  0.0393  0.3455
31056W        W47190  13.403   0.917   2.679  0.2604 -0.1067 -0.0749
31057W        W47191   2.464   8.065   2.842 -0.0607  0.0164  0.0585
31058W        W47192   7.175   1.105  15.808 -0.0107 -0.2086  0.2309
31059W        W47193  13.835  14.713   4.443 -0.0554  0.2427 -0.1624
31060W        W47194  18.357   8.684  12.668 -0.0768 -0.0677 -0.1150
31061W        W47195   3.375  17.570   4.241 -0.0932  0.1408 -0.0686
31062W        W47196  13.384   5.776  11.364  0.1058  0.2258  0.4184
31063W        W47197  15.385  11.567  16.030  0.0978  0.2571 -0.0362
31064W        W47198  14.011   8.294   4.533 -0.0124 -0.1236 -0.2698
31065W        W47199  10.908  10.696   2.476 -0.2822  0.1162  0.0700
31066W        W47200  10.398  11.424  13.979  0.0051 -0.0022  0.0252
31067W        W47201   5.423   3.780   4.291 -0.0554 -0.0898 -0.0857
31068W        W47202  16.243   7.368   3.688 -0.3093  0.0168  0.0249
31069W        W47203   5.568   5.297  14.387  0.0373 -0.0670 -0.1543
31070W        W47204   2.988  18.338   2.360  0.2358  0.0361  0.3201
31071W        W47205  12.324   0.047  13.865 -0.2148  0.1351 -0.2790
31072W        W47206  13.050   4.455   5.024 -0.1820 -0.0364 -0.1545
31073W        W47207   4.962   4.247  15.934 -0.1483 -0.0620  0.1565
31074W        W47208  17.016  16.968  13.321 -0.0008  0.0876  0.0025
31075W        W47209  15.179  14.105   3.804  0.2100  0.2733 -0.0850
31076W        W47210  14.458   9.954   1.949  0.1189  0.2719 -0.0205
31077W        W47211  15.800   2.398  14.976  0.2561  0.2702  0.0002
31078W        W47212   5.316  11.195  15.216 -0.1635 -0.1328 -0.0296
31079W        W47213  14.813  11.821  14.189  0.1248  0.2498  0.0013
31080W        W47214   2.168   7.525  11.924  0.1278 -0.1301 -0.0384
31081W        W47215   4.805   9.056   4.283  0.0465  0.1090 -0.0137
31082W        W47216  13.893  15.847  15.108  0.1034 -0.6237  0.1022
31083W        W47217   0.663  17.176  11.091 -0.0830  0.1749  0.3804
31084W        W47218  10.170   7.693   5.177 -0.0055  0.1269  0.2100
31085W        W47219  15.422   1.160  10.916 -0.2552  0.0601  0.1371
31086W        W47220   5.027   9.358   0.426  0.1091 -0.2713  0.0562
31087W        W47221   8.495   4.004   2.334  0.5893  0.2116 -0.0953
31088W        W47222  16.192  16.993   1.566  0.1914 -0.2340  0.1288
31089W        W47223  15.930   4.846  13.355 -0.2134 -0.2205  0.2483
31090W        W47224   4.070   3.445   3.127  0.1453  0.3632 -0.2698
31091W        W47225  10.465   5.222   1.061  0.0790  0.1442  0.2168
31092W        W47226  12.426   1.888   2.905 -0.0696 -0.1009 -0.2746
31093W        W47227  17.902  17.268  12.282 -0.0135  0.1166  0.1160
31094W        W47228   0.596   3.188   4.071  0.0409  0.0137 -0.1188
31095W        W47229  17.448  10.335  13.475  0.0562  0.1785 -0.2651
31096W        W47230   5.071   9.644  14.377 -0.0934  0.0358  0.2287
31097W        W47231   6.579   0.904  13.719  0.2359 -0.0371 -0.4552
31098W        W47232   4.718   5.040  16.010  0.0369  0.5267  0.1697
31099W        W47233  18.165  10.169  13.829  0.2696 -0.0804  0.1498
31100W        W47234  10.293   3.569   1.708 -0.1117 -0.1448 -0.2671
31101W        W47235   5.084  17.731   0.654  0.2012 -0.3786  0.2183
31102W        W47236   1.772   0.296   2.723  0.1900 -0.1950 -0.2084
31103W        W47237  14.268   5.460   2.941  0.1870 -0.0038  0.1473
31104W        W47238   9.552  17.506  11.290  0.0022 -0.1858 -0.0058
31105W        W47239   6.147   0.751   3.307 -0.1034 -0.1451 -0.4009
31106W        W47240   9.746  14.001  13.960  0.0925 -0.1186  0.4413
31107W        W47241   3.042  11.459   5.098  0.0788 -0.1479  0.0404
31108W        W47242   8.883  14.187  11.668 -0.0458 -0.1496 -0.0565
31109W        W47243   8.829  18.479   1.979  0.0901 -0.0059 -0.2242
31110W        W47244  10.092   6.346  13.948  0.1576 -0.2401 -0.0906
31111W        W47245  12.071   2.764   3.376  0.1261  0.1667  0.1663
31112W        W47246   0.346   4.179   2.046 -0.2879 -0.2927 -0.3406
31113W        W47247  18.260  10.935   0.298  0.0134 -0.0226  0.1563
31114W        W47248   2.027  17.867   4.002 -0.0048  0.0438  0.0311
31115W        W47249  14.642   1.574  11.866 -0.1108 -0.1042 -0.0718
31116W        W47250  10.310   1.839   4.196  0.0841  0.0422  0.1738
31117W        W47251  14.070   5.572  11.957 -0.0080  0.1491 -0.1644
31118W        W47252   5.826  17.258  14.017 -0.0571 -0.1879  0.0082
31119W        W47253   9.131   9.316   5.031  0.0576  0.1121  0.1106
31120W        W47254   3.051   4.342  13.758 -0.3199 -0.2162  0.2355
31121W        W47255   9.661  18.352   2.590 -0.1143  0.0187  0.0645
31122W        W47256  16.416  10.352   2.265 -0.0102  0.0807  0.0114
31123W        W47257  12.359   9.025   0.134 -0.2990  0.3879  0.0681
31124W        W47258   9.433   6.748   2.419  0.1100  0.4203 -0.4581
31125W        W47259  18.413   7.689   0.822 -0.0050  0.0718 -0.1351
31126W        W47260   2.756  10.337   3.341  0.0613 -0.3203 -0.2059
31127W        W47261  14.222  10.333   3.415  0.0075  0.2055 -0.1176
31128W        W47262   5.598   5.543  10.407  0.1681  0.0058 -0.2074
31129W        W47263   6.910   1.578   5.371  0.0002 -0.0417 -0.1547
31130W        W47264  10.639   7.500  12.042  0.3448 -0.1103 -0.0626
31131W        W47265   2.192   5.251   4.721  0.2725  0.1296  0.1155
31132W        W47266   2.500  11.930   4.867  0.0481 -0.0376 -0.2234
31133W        W47267  18.297   6.045  12.444  0.1135  0.0935 -0.3975
31134W        W47268   3.214   7.462  13.730 -0.3521  0.0725  0.1632
31135W        W47269  13.846   0.894  12.691 -0.2659  0.0684  0.4287
31136W        W47270  13.337   9.286   4.654  0.2798 -0.3315  0.0345
31137W        W47271  12.098  15.156   4.440  0.2648  0.1786  0.0154
31138W        W47272  14.213   4.435  13.644 -0.3913  0.1888 -0.0681
31139W        W47273  15.140   4.314  11.627  0.0337  0.1015  0.2231
31140W        W47274   6.514  15.724   5.481 -0.0771  0.0437  0.0856
31141W        W47275  18.189   5.931   2.872 -0.3135 -0.1243  0.1163
31142W        W47276   0.294  11.154  13.194  0.0007  0.0368 -0.1440
31143W        W47277   4.552  12.410   4.329  0.2215 -0.0574  0.0909
31144W        W47278   2.223   5.352  13.460 -0.0271 -0.3205  0.2779
31145W        W47279  13.722   0.164  13.427  0.0468 -0.1544 -0.1426
31146W        W47280   4.716  11.675   0.759  0.2189 -0.0465 -0.1773
31147W        W47281  12.882   7.223   4.276  0.2442  0.2052 -0.2204
31148W        W47282  10.704  11.805   2.063 -0.0616 -0.2511 -0.1441
31149W        W47283   2.535   2.911   4.014 -0.3878  0.0188 -0.1962
31150W        W47284   9.696   0.978  12.628  0.2607 -0.1067  0.0907
31151W        W47285   2.841   2.470   0.209  0.1849  0.0058 -0.1068
31152W        W47286   0.212  17.667   2.626  0.0435 -0.0907 -0.0613
31153W        W47287  15.803  17.953   0.659  0.0404 -0.3640 -0.1954
31154W        W47288   6.283   9.050   3.466  0.0125 -0.2489  0.0239
31155W        W47289  13.115   7.806   2.501  0.1228 -0.2355 -0.4203
31156W        W47290  13.511   6.265  13.435 -0.2161  0.1862 -0.2329
31157W        W47291   4.322  11.708  13.712 -0.3655 -0.0587  0.0261
31158W        W47292   5.200   0.593  15.130  0.0363  0.0824 -0.1271
31159W        W47293  14.575  11.989  15.253  0.0446  0.0957  0.4154
31160W        W47294  15.272   4.637  14.847  0.2033 -0.1630 -0.3088
31161W        W47295   4.224   6.234   4.890 -0.0975 -0.1086  0.0570
31162W        W47296   0.442  11.439  14.587 -0.0076 -0.1175  0.0984
31163W        W47297   2.232   9.405  12.857  0.1875 -0.0517  0.1120
31164W        W47298   0.704   7.452  15.462 -0.0780 -0.0195  0.0175
31165W        W47299   8.262   2.070   6.286  0.0931 -0.0803 -0.4379
31166W        W47300  16.124  12.431  14.796 -0.2115  0.0858 -0.1121
31167W        W47301  11.341   2.736  15.001  0.1343 -0.0320  0.0662
31168W        W47302   7.201   2.487   5.622 -0.0926 -0.2501 -0.0387
31169W        W47303  15.040   1.955  11.763 -0.1472 -0.3382  0.0996
31170W        W47304   3.122   8.981  13.133 -0.1822 -0.1359  0.0783
31171W        W47305  15.258   5.082  11.127  0.0401  0.0189  0.1005
31172W        W47306  14.267   9.226   3.061  0.0643  0.0152 -0.0279
31173W        W47307   3.368   5.638   1.716 -0.0003 -0.0876 -0.0228
31174W        W47308   5.147   9.749   1.848  0.4638  0.1244 -0.5506
31175W        W47309   9.184  17.518  15.319 -0.1993 -0.0780  0.2386
31176W        W47310   1.855   2.787  14.707 -0.0914 -0.0421 -0.1932
31177W        W47311  15.552  12.175  15.433 -0.1858  0.0719  0.1265
31178W        W47312  16.416   1.283  13.113  0.0430 -0.0780  0.0059
31179W        W47313   9.806  18.155  12.753 -0.0284 -0.0234  0.3424
31180W        W47314   9.204   8.886   5.419  0.1934  0.1035 -0.0026
31181W        W47315  15.589   6.423   4.642 -0.0290  0.0961  0.1136
31182W        W47316  14.827   6.061   2.815 -0.2682 -0.1192 -0.0161
31183W        W47317  13.995   5.692  11.252 -0.0835  0.0279  0.0424
31184W        W47318  17.064   3.426  15.977  0.0542 -0.1539 -0.0705
31185W        W47319   9.749   9.504   4.381  0.1245  0.1563 -0.0190
31186W        W47320   7.145   3.244  13.496 -0.3540  0.0933  0.0613
31187W        W47321  11.318   6.562   3.290 -0.3119  0.3193 -0.1651
31188W        W47322   9.106  12.645   1.813 -0.1562  0.3005 -0.0513
31189W        W47323   9.746   3.995   4.141  0.1121 -0.2528 -0.0603
31190W        W47324   3.676   1.685  12.974  0.2017  0.1266 -0.0424
31191W        W47325   6.244   8.270  11.785 -0.2904  0.2651  0.2749
31192W        W47326   6.937   4.632   4.595 -0.0757  0.1763  0.1032
31193W        W47327   7.422  12.020   2.407  0.4043  0.0525 -0.0578
31194W        W47328   5.351  10.622  14.033  0.1224 -0.0044 -0.2364
31195W        W47329  17.172   5.939   0.763 -0.0311  0.1529 -0.2577
31196W        W47330   4.821   2.566   1.688  0.0582 -0.0681  0.0184
31197W        W47331  13.065  13.883  14.198  0.0820  0.1060  0.2012
31198W        W47332  11.825  10.018   3.305  0.0158  0.0065 -0.2195
31199W        W47333   6.526  11.815   5.101 -0.0822  0.2520  0.2910
31200W        W47334   6.495   0.172   0.290 -0.0012 -0.2997  0.1607
31201W        W47335  10.199   2.265   1.746  0.0274  0.0923  0.1934
31202W        W47336   1.485   8.777  10.664 -0.1782  0.3443 -0.0682
31203W        W47337   1.771  17.601   4.834  0.0484  0.1300  0.4608
31204W        W47338   8.228  12.244   0.054 -0.3965  0.0661 -0.2812
31205W        W47339   7.785   0.512  12.287 -0.0113 -0.0736 -0.0345
31206W        W47340   2.066   4.203   4.400  0.2708 -0.1189 -0.2891
31207W        W47341  14.144   3.185  11.497  0.1002  0.3493 -0.3676
31208W        W47342   5.590   3.716  12.903 -0.3381 -0.2225 -0.1465
31209W        W47343  14.007   3.497   0.459  0.0558 -0.0391  0.2531
31210W        W47344  12.448  11.598  11.897  0.0769  0.1374 -0.0491
31211W        W47345   9.258  10.053  13.946 -0.1650 -0.1841  0.0390
31212W        W47346  18.113  14.806  14.262  0.2641 -0.1187 -0.0023
31213W        W47347  16.326   7.834  13.815  0.0519  0.0025  0.1232
31214W        W47348   3.071   8.481  13.963  0.0185 -0.0277 -0.0709
31215W        W47349  14.659   4.311  16.061  0.5229  0.2944 -0.1381
31216W        W47350  15.991   8.560  14.298 -0.1038  0.2427  0.0350
31217W        W47351   2.532   8.343  11.607  0.4345  0.0853  0.1601
31218W        W47352   7.179  14.930   5.461  0.3306  0.0436  0.0868
31219W        W47353   6.245   5.706   4.102  0.0179  0.2428  0.0313
31220W        W47354  11.461   7.814   0.266 -0.0094 -0.2168  0.1977
31221W        W47355   6.446   2.870  12.459 -0.1178  0.2683 -0.0667
31222W        W47356  17.013  17.380   2.534  0.1539 -0.0993  0.3432
31223W        W47357   0.759   7.427   3.532 -0.1512 -0.1495  0.1037
31224W        W47358   3.273  16.564   4.305 -0.2192  0.1608  0.2496
31225W        W47359   3.019  11.016  10.473 -0.0920  0.1064 -0.1347
31226W        W47360  10.210   0.664   1.657 -0.0497 -0.0091 -0.1503
31227W        W47361  17.274   3.010   0.232  0.1133 -0.0842  0.0979
31228W        W47362   4.887   3.034  13.562 -0.0362  0.1656 -0.1573
31229W        W47363   2.740   6.392   2.382 -0.0384  0.2281 -0.0985
31230W        W47364   8.353   2.015  11.777 -0.2113  0.1264 -0.1527
31231W        W47365   2.819  17.604   0.474  0.1746  0.1219  0.0103
31232W        W47366   3.778   5.379   3.022  0.1119 -0.4638  0.1255
31233W        W47367   3.954  17.669  14.903 -0.1198  0.1787  0.2238
31234W        W47368   1.148  17.179   0.446 -0.1206  0.3016 -0.2571
31235W        W47369   9.950  15.582  15.439 -0.2712  0.1428 -0.0938
31236W        W47370  18.193   2.320  14.994  0.1685 -0.0182 -0.0703
31237W        W47371   7.317  11.303   0.043 -0.1414 -0.2700 -0.1188
31238W        W47372   8.771   2.138   1.743  0.0458  0.0816  0.2514
31239W        W47373  14.948   2.461  12.995  0.2654  0.4303 -0.2202
31240W        W47374  13.463   4.175   0.474  0.0688  0.3521  0.0084
31241W        W47375   3.788  15.729   4.467 -0.3414 -0.0304  0.1279
31242W        W47376  14.240   6.367   3.232 -0.0912  0.0088 -0.0612
31243W        W47377  14.418  10.059  12.154 -0.0542 -0.1447  0.0757
31244W        W47378  17.017   6.021  16.064  0.1749 -0.2586 -0.0061
31245W        W47379   2.413  17.909   2.515  0.1330 -0.1553  0.1211
31246W        W47380   8.878  15.377  14.276 -0.0791  0.1571 -0.0228
31247W        W47381   9.148   9.525  14.961 -0.0461  0.3002 -0.0679
31248W        W47382  12.044  15.942   1.872  0.1254 -0.1788  0.3072
31249W        W47383   2.814   8.908   0.557 -0.0419 -0.2397  0.1013
31250W        W47384  12.813  15.128  12.446 -0.1471  0.1857 -0.1326
31251W        W47385   2.753  15.806   4.420  0.0367 -0.0522  0.1521
31252W        W47386  11.186  16.120   3.661  0.0944  0.0694  0.0408
31253W        W47387   9.799  15.925  11.675 -0.1730 -0.2364  0.1795
31254W        W47388   2.307  10.633   1.827  0.2748  0.2207 -0.0038
31255W        W47389   5.492   1.661  12.287 -0.0807 -0.1922 -0.1311
31256W        W47390  17.142  14.050  10.928  0.2765  0.2827 -0.1794
31257W        W47391  10.807   6.037  12.640  0.0795 -0.0862  0.5011
31258W        W47392   9.146  13.732   3.582 -0.0317 -0.3536 -0.0527
31259W        W47393   5.174   2.805  11.781 -0.0669  0.1449 -0.2399
31260W        W47394  17.573   5.884  16.026  0.0908 -0.2375 -0.2053
31261W        W47395   9.698  16.381   0.560 -0.1270 -0.2371  0.0158
31262W        W47396   3.293   2.699   3.467  0.2375  0.1426 -0.2931
31263W        W47397   5.159   0.536  14.640  0.3246  0.3303  0.1203
31264W        W47398  17.880   7.410   1.980 -0.3967  0.0754 -0.3880
31265W        W47399   7.374   2.152   1.889 -0.3436  0.3026 -0.2091
31266W        W47400   4.249  15.418  14.178 -0.0288 -0.0959  0.2772
31267W        W47401  11.417   4.707   1.812 -0.1124 -0.0136  0.1013
31268W        W47402   5.357   6.816   1.711  0.3011 -0.2624  0.5129
31269W        W47403  16.161  10.778  10.875  0.3673  0.3991  0.0316
31270W        W47404   5.550   7.463  16.066 -0.0852 -0.1392 -0.1732
31271W        W47405   1.034  10.634   2.179 -0.1286 -0.4244 -0.0642
31272W        W47406  10.107   6.122  11.707 -0.0179 -0.2103  0.3792
31273W        W47407   4.081   4.833  12.637  0.3673  0.1133 -0.0914
31274W        W47408  17.317   9.500  13.700  0.0758 -0.1739  0.0458
31275W        W47409  11.422  12.349   5.853  0.1173 -0.0392  0.1322
31276W        W47410   5.769  11.411  15.203  0.2659  0.3658 -0.1117
31277W        W47411  18.203  10.415  15.960  0.0726  0.0240 -0.0237
31278W        W47412   0.678  10.331   4.997  0.0519  0.0932 -0.0846
31279W        W47413  12.610   2.026  11.415 -0.0352  0.0253 -0.0264
31280W        W47414  14.958  14.054   4.636 -0.3635  0.3436  0.0422
31281W        W47415   1.268  11.485   2.993  0.1500 -0.2942 -0.0777
31282W        W47416   9.091  15.923  13.422 -0.2893 -0.3988 -0.3110
31283W        W47417   4.953   2.628   4.097 -0.2314 -0.1235 -0.1388
31284W        W47418  10.311   4.289   3.490  0.1792  0.1083 -0.0857
31285W        W47419  11.161  13.243  15.262  0.1228  0.2790 -0.2189
31286W        W47420   4.563   1.310   2.423 -0.0891  0.1435 -0.0254
31287W        W47421   8.649   3.936  15.219  0.1633  0.1670 -0.0389
31288W        W47422  11.710   0.959  12.488 -0.4097  0.0281  0.0889
31289W        W47423  11.721   8.461  12.705 -0.1484 -0.0063  0.0770
31290W        W47424  12.733   4.408  14.504 -0.2666 -0.0358 -0.4501
31291W        W47425   9.968   0.663  12.977 -0.3503  0.0535  0.0939
31292W        W47426   3.753   5.958  15.171  0.0659 -0.0800  0.0544
31293W        W47427   0.088  18.398  10.619 -0.1995  0.1388 -0.3666
31294W        W47428  13.946  13.859  12.744  0.1425 -0.0044  0.1094
31295W        W47429  11.830  10.084   2.801  0.0043 -0.3210  0.2574
31296W        W47430  14.090   7.874   4.837 -0.1315 -0.2854  0.1504
31297W        W47431  17.586   5.119   0.998  0.2938 -0.0603  0.2978
31298W        W47432  10.598  16.334  13.438  0.0076  0.0272  0.2357
31299W        W47433   2.801   8.774   1.824  0.0601 -0.1259  0.2283
31300W        W47434  11.769  12.034   3.879  0.0037 -0.0008  0.0497
31301W        W47435  15.554   5.275  12.076 -0.0968  0.2007  0.3015
31302W        W47436   4.948   3.743  14.077 -0.5099  0.0843 -0.1328
31303W        W47437   8.288  11.665   4.375  0.1766 -0.0376 -0.2721
31304W        W47438  13.612  13.676  14.085  0.0015  0.0963 -0.0617
31305W        W47439   0.063  12.927   2.337 -0.0082  0.0021 -0.2635
31306W        W47440   7.753   9.465  15.861  0.0040 -0.2955  0.0016
31307W        W47441   2.366  12.777   1.610 -0.0103  0.2157  0.1370
31308W        W47442   9.940   6.378   5.317  0.0935  0.1479  0.2911
31309W        W47443  13.207  17.899  11.595 -0.0314 -0.2215 -0.1596
31310W        W47444   8.107  14.870   5.648  0.0564  0.3389 -0.2142
31311W        W47445  17.198  17.041   0.366 -0.1460 -0.2000  0.1392
31312W        W47446  14.035   0.546  12.219  0.4081 -0.0659 -0.1122
31313W        W47447   1.185  11.860  13.674 -0.3214  0.1525  0.1448
31314W        W47448   9.379  15.649   4.604 -0.0061  0.0898  0.1350
31315W        W47449  15.966  10.179   3.638 -0.1516  0.0583 -0.0324
31316W        W47450   0.083  15.304  13.482  0.3137  0.0663  0.1776
31317W        W47451  13.175  13.340  12.340  0.0446 -0.1187 -0.0974
31318W        W47452   9.719  15.402  14.093  0.0589 -0.0647  0.0978
31319W        W47453  11.354  10.875  11.055 -0.1086  0.5821  0.2775
31320W        W47454  13.355  11.209   2.864 -0.1885 -0.0317  0.1002
31321W        W47455  16.273   8.713  15.810 -0.1887  0.2393  0.1863
31322W        W47456  17.092  12.062  12.360 -0.1896  0.1145 -0.1011
31323W        W47457  18.338   2.859  12.860 -0.1324 -0.0187 -0.0268
31324W        W47458   7.232   0.451   1.910 -0.4576  0.1492  0.2886
31325W        W47459   5.931  12.319  14.300 -0.1343  0.0469  0.0881
31326W        W47460  17.778  16.535  15.225 -0.0482 -0.2433  0.2394
31327W        W47461  16.478  15.903   5.934  0.0796  0.0981  0.0070
31328W        W47462  17.619  16.467   5.512 -0.0346 -0.2644  0.0079
31329W        W47463   7.873  16.577   1.400  0.1667 -0.1646  0.1047
31330W        W47464  18.251   1.259  15.614  0.0423 -0.0563  0.0509
31331W        W47465  14.625  11.951   2.997 -0.1570 -0.0839  0.0272
31332W        W47466  15.378  13.486   1.702  0.1338 -0.1576 -0.3035
31333W        W47467   2.659   1.047  10.771 -0.1168 -0.0481 -0.1278
31334W        W47468   1.572   2.444  14.422 -0.1583  0.2711 -0.1164
31335W        W47469  15.787  14.903  10.653  0.2241 -0.0804 -0.2994
31336W        W47470  14.464  16.881  13.089 -0.0522  0.0505 -0.1010
31337W        W47471   5.902   9.943   3.998  0.0329 -0.1041 -0.1845
31338W        W47472   2.685   5.553  15.068  0.1219 -0.1784  0.1168
31339W        W47473   8.399   7.167  13.883 -0.1688  0.0113 -0.0001
31340W        W47474   0.328   5.152   2.828 -0.0532 -0.1660 -0.1776
31341W        W47475  15.749   3.947  16.084  0.0799  0.1256  0.1314
31342W        W47476   0.607   4.260  10.215 -0.0208  0.4702  0.0056
31343W        W47477   1.108   8.107   2.823  0.0340 -0.0363  0.0014
31344W        W47478  14.623   3.723  15.265  0.1849 -0.0471  0.2115
31345W        W47479   1.781   0.911  13.856  0.1584 -0.2081  0.3093
31346W        W47480   7.124   7.776  15.107 -0.1765  0.2834 -0.1239
31347W        W47481  14.114   8.760   4.400 -0.0654 -0.1845  0.0374
31348W        W47482  17.390  12.037   5.347 -0.0256  0.1788 -0.0238
31349W        W47483  15.685   3.943   4.840  0.1138  0.3541  0.0443
31350W        W47484  10.901   4.110  14.570 -0.0797  0.1475  0.0887
31351W        W47485  11.839   0.654  14.929 -0.2832 -0.0894  0.1609
31352W        W47486   4.880   0.368  15.914  0.2526 -0.0529 -0.4186
31353W        W47487   0.402   7.734   4.596  0.2405  0.1316 -0.1010
31354W        W47488  11.783  11.940   0.759 -0.1029  0.1166  0.1834
31355W        W47489   6.948   2.361   1.662  0.0372  0.0021  0.2559
31356W        W47490   7.268   4.870   2.864 -0.2306 -0.0817  0.2486
31357W        W47491   8.052  10.259   0.643  0.1343  0.2659 -0.1273
31358W        W47492   1.200   3.426  11.548 -0.0183  0.3474  0.1981
31359W        W47493   6.265   7.089  12.071 -0.1333 -0.1385 -0.0588
31360W        W47494  11.677   4.638  15.567 -0.0182  0.0526  0.0725
31361W        W47495  14.588  17.251  11.495  0.1042  0.1610 -0.1581
31362W        W47496  16.833  11.424   5.346  0.2247  0.1035  0.4225
31363W        W47497  11.727  13.680  15.751  0.1844  0.0161  0.2356
31364W        W47498  18.406   3.475   1.211  0.0973  0.2492  0.0573
31365W        W47499  10.334  12.934   0.204  0.1990 -0.0640  0.0822
31366W        W47500  10.921   6.227   2.948 -0.0673  0.1425  0.2230
31367W        W47501  16.272   3.330   1.279 -0.2462  0.1335  0.1189
31368W        W47502  10.011  12.088   4.464 -0.1062  0.1391 -0.3701
31369W        W47503   9.198  14.935   3.775  0.1056  0.1347 -0.1070
31370W        W47504   6.318  18.396  16.016  0.1342  0.0428 -0.4392
31371W        W47505   5.612  16.488   4.957  0.0408  0.0737  0.0813
31372W        W47506   7.889   9.720   3.654 -0.0634 -0.0076 -0.1496
31373W        W47507   7.514  18.095   1.834 -0.3169 -0.2764 -0.2311
31374W        W47508   7.216  11.907   1.329 -0.1228 -0.4668  0.1676
31375W        W47509   3.357  14.422  13.129  0.1025 -0.0753  0.0277
31376W        W47510   5.162   3.177   0.772  0.1117 -0.1524 -0.4223
31377W        W47511   6.451   8.578   1.932  0.0621 -0.1213 -0.2222
31378W        W47512   7.002  12.732   4.857 -0.1262  0.0877 -0.1776
31379W        W47513  16.115   2.591   3.765  0.0965 -0.0820  0.0575
31380W        W47514   3.710  17.314   3.963  0.0587 -0.1164 -0.0978
31381W        W47515   1.706   1.658  14.992 -0.3269 -0.1006 -0.0248
31382W        W47516   3.034   8.878   0.979  0.2981  0.0480 -0.1843
31383W        W47517   9.927  17.324   3.024  0.3492 -0.1074  0.1105
31384W        W47518  13.481  10.798  13.768  0.0996  0.0394 -0.0782
31385W        W47519   9.216   1.932   1.963 -0.1059 -0.1186 -0.0074
31386W        W47520   7.383   2.719   3.865 -0.0129 -0.0992 -0.0000
31387W        W47521   0.122   2.456   5.035 -0.2118 -0.1742 -0.3582
31388W        W47522   0.886  13.802   1.237 -0.0916 -0.2163 -0.2139
31389W        W47523   0.028   4.011  11.127 -0.1154  0.1730 -0.0607
31390W        W47524  14.215  16.930  14.210  0.0327 -0.0275  0.0248
31391W        W47525  14.622   4.919   2.282  0.0041 -0.0173 -0.0731
31392W        W47526   4.288   7.574  13.678  0.2315 -0.1318 -0.0508
31393W        W47527  15.073   1.221   0.897 -0.1160 -0.2794  0.1286
31394W        W47528  12.443   1.101  11.490  0.1421 -0.0053  0.1269
31395W        W47529   2.946   5.025  12.310  0.0464 -0.1824  0.1864
31396W        W47530   5.635  16.770  12.268 -0.0947 -0.1916  0.0885
31397W        W47531   8.126   2.983   3.421  0.2126  0.1253  0.0252
31398W        W47532   0.206   2.658   4.592  0.0846  0.1924 -0.0504
31399W        W47533  10.989   5.705   3.723 -0.0237  0.0545  0.0184
31400W        W47534  12.034   1.962  11.988 -0.0826 -0.2699  0.1347
31401W        W47535  11.491   6.985   2.497  0.0012  0.1613 -0.4093
31402W        W47536  10.852   2.456  13.406 -0.2011  0.0095  0.0390
31403W        W47537  11.971   6.100   1.991 -0.0766 -0.2539  0.1817
31404W        W47538  11.921   1.887  13.033 -0.0435  0.0976  0.0292
31405W        W47539  14.270   0.809  14.825 -0.1340 -0.0183 -0.0427
31406W        W47540  16.778  17.282   1.392  0.0691 -0.0030 -0.0225
31407W        W47541  15.087   2.650  15.807 -0.0155  0.0380  0.0961
31408W        W47542   5.323   9.316  15.593  0.3360  0.2980  0.1308
31409W        W47543   2.152   0.010   1.692  0.1057 -0.0504  0.1414
31410W        W47544  13.253   7.346   3.330  0.0696  0.0445 -0.1265
31411W        W47545   8.580   0.811   1.003  0.1842 -0.2782 -0.1670
31412W        W47546   9.682   3.537   4.394 -0.0265 -0.1016  0.0241
31413W        W47547   4.980  16.102  11.246  0.0513  0.0180 -0.0305
31414W        W47548   8.675  14.464  15.637 -0.1282 -0.2958  0.1818
31415W        W47549   7.552  13.591   3.082  0.0037  0.2534  0.0318
31416W        W47550   6.818  14.790  12.047  0.0127  0.2300  0.0263
31417W        W47551  11.479  11.463  12.138 -0.0718  0.0445  0.0355
31418W        W47552  14.239   8.854  11.723 -0.0083  0.2045  0.1553
31419W        W47553  10.412   6.926   5.269  0.1397 -0.0191  0.1347
31420W        W47554   9.522  13.775  14.881 -0.1600  0.1512 -0.2913
31421W        W47555  17.659  17.575  13.827 -0.2864 -0.4453 -0.1944
31422W        W47556   4.972   6.217  13.039 -0.0039  0.0757 -0.1588
31423W        W47557  12.926  18.307  15.066 -0.0782  0.0005  0.1092
31424W        W47558  13.530   2.369  12.362 -0.2527 -0.2999  0.2459
31425W        W47559   4.210   8.717   0.161  0.1956  0.0968 -0.1343
31426W        W47560   2.894   4.241  12.011 -0.1560  0.0880  0.1349
31427W        W47561   4.942  17.393  13.764 -0.0554  0.0230  0.1478
31428W        W47562  16.921   0.234   0.005  0.0347 -0.2923 -0.1314
31429W        W47563   1.059  17.604   1.250 -0.0712 -0.4899 -0.0242
31430W        W47564   2.615  14.734   1.366  0.1119 -0.0166  0.2869
31431W        W47565  13.410   8.953   1.572 -0.1042  0.0787  0.1964
31432W        W47566   9.786  14.784  13.327 -0.0218  0.0119 -0.1254
31433W        W47567   4.569  17.812  14.465  0.4377  0.1650 -0.1151
31434W        W47568  15.676  14.353   0.212  0.2541 -0.0576  0.1430
31435W        W47569  10.061   6.129  14.691  0.1019 -0.0382  0.2394
31436W        W47570  13.036  17.963  13.632 -0.1268 -0.0059  0.0656
31437W        W47571  14.396   2.089  11.935  0.0136 -0.0391 -0.1810
31438W        W47572   5.515   5.444   1.824 -0.3472 -0.2855 -0.1355
31439W        W47573   6.101   9.326   5.395 -0.1464  0.3098 -0.2589
31440W        W47574   6.779   4.814  14.503  0.2365  0.0689 -0.3148
31441W        W47575   7.084   6.288   5.571 -0.2756 -0.2160  0.0161
31442W        W47576   7.472  14.315  13.297  0.0163 -0.0699  0.1031
31443W        W47577   3.401   4.438   5.714  0.1843  0.2297  0.2176
31444W        W47578   9.017   2.900   0.494 -0.2028  0.0451  0.2396
31445W        W47579  13.253  11.430  14.423  0.1698 -0.1610 -0.0655
31446W        W47580  16.938   7.021  15.939 -0.0606  0.1889  0.2851
31447W        W47581  14.739   2.714  14.504 -0.0883 -0.1980 -0.1170
31448W        W47582   0.382   1.504  14.800 -0.3683  0.1117  0.0878
31449W        W47583  18.328  14.251  11.676  0.1766  0.2983  0.3379
31450W        W47584   4.303   2.313  11.775 -0.2267  0.2339  0.0730
31451W        W47585  13.425   1.353   6.081  0.0322  0.3005  0.0959
31452W        W47586  16.264   6.598   2.041 -0.0113  0.1997 -0.2383
31453W        W47587  13.916  17.909  15.613  0.2083 -0.0493 -0.0073
31454W        W47588  16.426   7.796   1.251 -0.1693 -0.0568  0.1012
31455W        W47589   0.660   0.262  15.363 -0.0755  0.0617 -0.1910
31456W        W47590   6.030   9.690  12.967 -0.4918 -0.0461 -0.0187
31457W        W47591   1.507  10.737  11.890 -0.2808  0.2523 -0.1353
31458W        W47592  16.315  10.961   3.661  0.1427  0.0536  0.1249
31459W        W47593   8.814  10.548   6.047  0.0400  0.1988  0.0081
31460W        W47594  11.228   9.133   2.492 -0.1012 -0.0247  0.0742
31461W        W47595   1.998   8.447  12.221  0.3512 -0.2140 -0.2363
31462W        W47596  12.223   3.591  14.859 -0.1437 -0.2176  0.1495
31463W        W47597  17.482  15.497   4.580  0.1338  0.2159 -0.1826
31464W        W47598   5.395   2.460  13.946  0.2662 -0.1342  0.1401
31465W        W47599  11.660   1.316   4.347  0.1141 -0.2159  0.2011
31466W        W47600   1.016   5.374  14.993  0.2525  0.1333  0.0738
31467W        W47601   3.822  10.964  12.782  0.0386  0.4412  0.3940
31468W        W47602  10.398   3.010   3.769 -0.2203 -0.2881 -0.1869
31469W        W47603  16.797   3.905   2.777 -0.0777  0.1370 -0.0803
31470W        W47604   3.781  14.074  12.896 -0.0789 -0.1406  0.3150
31471W        W47605  16.054   0.401   1.602  0.1287  0.2628 -0.1698
31472W        W47606   9.887   8.396   2.420  0.4198  0.0806  0.0039
31473W        W47607   4.507  13.001  11.303  0.0342  0.0826 -0.0272
31474W        W47608   2.623  17.459   0.998  0.0572 -0.0178 -0.0195
31475W        W47609  13.621  17.954   0.747 -0.1549 -0.2843 -0.3579
31476W        W47610  11.223  10.596  14.956  0.0868 -0.2503 -0.2203
31477W        W47611  16.742  18.138  11.533 -0.1586  0.0565  0.1816
31478W        W47612  12.496  10.030  12.114 -0.2240  0.0023  0.1354
31479W        W47613   9.730  16.018   1.075 -0.0881 -0.0416 -0.2264
31480W        W47614   0.111   8.779  14.931 -0.1464  0.0350  0.2104
31481W        W47615   2.077   1.501   3.042  0.0820  0.0909  0.1329
31482W        W47616   8.235   9.828  13.724 -0.1048  0.0086 -0.4399
31483W        W47617  14.629  15.477  15.477  0.0642  0.1296  0.2981
31484W        W47618   0.262  12.016  12.311  0.1959 -0.1890 -0.0104
31485W        W47619   8.462  13.976  13.093  0.0910  0.2684 -0.1193
31486W        W47620   1.608  16.395   3.407  0.0202 -0.2855  0.0290
31487W        W47621   9.428   8.135   0.185  0.0898 -0.0496 -0.1340
31488W        W47622  12.086   4.218  12.629  0.0243  0.0781 -0.2649
31489W        W47623  13.010  17.239   2.558  0.1244  0.0014 -0.1816
31490W        W47624   4.259  12.107  12.001 -0.1197 -0.1049 -0.0336
31491W        W47625   6.614  12.555  11.430  0.3674 -0.0578  0.1180
31492W        W47626  12.154   9.968   4.058  0.0725  0.1524  0.1346
31493W        W47627   5.111  10.992  11.028  0.3589 -0.0071  0.0435
31494W        W47628   0.151   5.766   4.830 -0.2036  0.0444 -0.0275
31495W        W47629   5.002  18.303   4.849  0.0056 -0.2218 -0.2164
31496W        W47630  12.073   6.927   0.539  0.0571  0.1698 -0.3709
31497W        W47631   4.878   5.641   3.900 -0.0546  0.0109 -0.0863
31498W        W47632  13.155   5.837   2.423  0.0900 -0.0653 -0.0725
31499W        W47633  11.803   3.924   3.603  0.0609  0.1945  0.0458
31500W        W47634  18.492  16.060   4.613  0.1020  0.0745 -0.1507
31501W        W47635   4.219  18.238   2.440 -0.2476  0.0518 -0.0189
31502W        W47636  15.207   5.941  13.791  0.2303 -0.2231  0.1520
31503W        W47637   2.201  15.795   5.214 -0.2497 -0.0675  0.1037
31504W        W47638   8.363  18.502   0.742 -0.1455  0.0462  0.0425
31505W        W47639   7.302   5.376   0.294  0.1979 -0.0125  0.0033
31506W        W47640  17.485   6.220  11.399 -0.0673 -0.1934 -0.2924
31507W        W47641   8.125  14.860  11.972 -0.1824 -0.2195  0.1282
31508W        W47642   1.739  16.705  15.663 -0.0813 -0.1756 -0.0452
31509W        W47643  11.561  12.778  11.873 -0.0980 -0.2932 -0.0786
31510W        W47644   1.662  13.269   1.605 -0.0522 -0.3390 -0.1028
31511W        W47645   2.098  15.751  11.500 -0.2495  0.0681  0.0823
31512W        W47646   8.198   6.646  15.069  0.1422  0.0632  0.1020
31513W        W47647  10.554  13.663   0.292 -0.2963  0.1105  0.1371
31514W        W47648   6.312  11.216  11.739  0.3161  0.1476  0.0898
31515W        W47649   4.917   5.140   1.183 -0.3383 -0.1428  0.2073
31516W        W47650   6.437   8.002   4.280 -0.1372 -0.0893  0.0113
31517W        W47651  12.381  16.134  13.129 -0.0689 -0.2556 -0.0454
31518W        W47652  10.586   9.489   4.283 -0.2335 -0.1682  0.0212
31519W        W47653  14.126  11.859   0.036  0.0923  0.2948  0.0806
31520W        W47654   5.884   8.990   3.066 -0.1290 -0.1922 -0.0878
31521W        W47655   0.707   9.415  14.820 -0.0968 -0.3020  0.1542
31522W        W47656  10.862   0.606   4.172 -0.1017 -0.0281  0.0537
31523W        W47657   8.281   5.032  15.121  0.0791 -0.0114  0.0492
31524W        W47658  18.278  17.270   5.380  0.3862 -0.0004 -0.1423
31525W        W47659   5.860   6.560  13.988  0.3758  0.0748  0.2252
31526W        W47660  11.436  14.293  13.863  0.1161 -0.2751 -0.4843
31527W        W47661  17.638  15.780  11.499  0.1321  0.2669 -0.0107
31528W        W47662   7.433   0.249  11.507 -0.2259 -0.0971  0.4216
31529W        W47663  12.327  10.972  11.252 -0.1078  0.3646  0.1256
31530W        W47664  13.359  15.909   3.807 -0.1329 -0.3370  0.2179
31531W        W47665  16.902   1.320  14.410 -0.0025 -0.0959 -0.4108
31532W        W47666   5.929  15.569  15.246  0.0692 -0.0450 -0.2009
31533W        W47667  17.895  17.407   3.829 -0.0007 -0.0444  0.1276
31534W        W47668  13.914  16.989  15.606  0.0263 -0.1424  0.0893
31535W        W47669  16.783   4.287  15.047  0.0562 -0.0603 -0.1041
31536W        W47670  16.552   7.366   4.143  0.0320  0.0772  0.2202
31537W        W47671  16.259   2.338  15.164  0.1071  0.0635  0.0149
31538W        W47672  13.452   6.910   3.538  0.2162  0.1261  0.0794
31539W        W47673   2.387  18.341   5.163  0.2104 -0.0994  0.0688
31540W        W47674  12.465  14.776  14.626 -0.0063  0.0678 -0.0937
31541W        W47675  17.031   2.607  14.761  0.0032  0.0670  0.0948
31542W        W47676  18.292   2.641  10.701  0.0265 -0.0152 -0.0400
31543W        W47677  11.583   6.454   5.122  0.2942 -0.1463 -0.0223
31544W        W47678  15.239  14.412   0.001  0.2254 -0.1671  0.1458
31545W        W47679   2.089   9.284  13.304  0.0929 -0.1800 -0.2555
31546W        W47680   3.630  10.693   4.083 -0.3421 -0.2521  0.1014
31547W        W47681   9.332  12.110  13.067  0.2830 -0.0528 -0.0979
31548W        W47682   5.523   1.182   2.897 -0.0213 -0.3467 -0.0070
31549W        W47683   5.897   5.451  15.570 -0.0291  0.1569  0.2742
31550W        W47684   4.006  12.055   0.351  0.0517 -0.0106  0.2062
31551W        W47685   5.236   0.561  12.673  0.1273  0.1715  0.1310
31552W        W47686   9.014  11.780  12.713  0.1711  0.0122 -0.0134
31553W        W47687   7.767   1.005  13.174  0.2031  0.1865 -0.2002
31554W        W47688  14.262  12.293   2.720  0.1238  0.2930  0.0182
31555W        W47689  18.258  15.104   3.749 -0.0877 -0.1273  0.0875
31556W        W47690   3.832  16.996  15.122 -0.0598  0.3804 -0.0251
31557W        W47691  17.353   1.576   1.199  0.1060 -0.1006  0.1454
31558W        W47692  16.385   5.886  14.871 -0.1146  0.2748  0.0278
31559W        W47693  13.118  17.065   0.856 -0.0663 -0.1610  0.0730
31560W        W47694  10.888  10.026  15.637 -0.1472  0.0999  0.0413
31561W        W47695   6.477  18.062   1.939 -0.1443  0.1916 -0.1055
31562W        W47696   2.492  14.512  11.150  0.0618  0.2151 -0.2035
31563W        W47697  14.341  13.865   0.439  0.0091 -0.0143 -0.2546
31564W        W47698  18.236   1.663  11.590 -0.2506 -0.2188 -0.1914
31565W        W47699   8.226  11.401  13.132 -0.2785  0.0172  0.1176
31566W        W47700  10.546  13.110  15.448 -0.1538 -0.0164 -0.1410
31567W        W47701   4.455  14.898  11.053  0.0684  0.2383  0.0323
31568W        W47702  14.176   2.629  14.308  0.0202 -0.5268 -0.0766
31569W        W47703   2.709  11.241   0.266  0.1615 -0.3195  0.0473
31570W        W47704  12.151   2.629   2.458 -0.0806  0.0766 -0.1687
31571W        W47705   8.689   1.772   6.168  0.3582  0.3298 -0.0538
31572W        W47706  16.825  16.126  11.244  0.2294  0.0629 -0.0063
31573W        W47707  12.940   7.372   2.348  0.1567  0.0938  0.1089
31574W        W47708  12.097   9.173  15.347  0.0687 -0.0332  0.2617
31575W        W47709  11.886   9.600   4.728 -0.1033 -0.0626  0.1574
31576W        W47710   7.455   5.445  14.875 -0.0111 -0.2769 -0.0802
31577W        W47711   1.775   5.164   0.015 -0.5198  0.0302 -0.0570
31578W        W47712  13.736  10.161  14.345 -0.3490 -0.2152  0.1900
31579W        W47713  13.683   1.575   5.509 -0.0191  0.2094 -0.3391
31580W        W47714  10.200   4.511   5.926  0.0187 -0.2809  0.1678
31581W        W47715  14.445  16.333  11.956  0.3141 -0.1077 -0.0117
31582W        W47716   7.809  16.447  14.310  0.1723  0.1817 -0.0847
31583W        W47717  14.534   1.537  13.147 -0.1316  0.0011 -0.0590
31584W        W47718  10.225  14.429  13.964  0.3741  0.1946 -0.0326
31585W        W47719  13.928  14.337  14.732 -0.0693 -0.4704  0.3103
31586W        W47720  18.176   3.786   4.662  0.1214 -0.0322 -0.0503
31587W        W47721   7.690   4.368   3.013 -0.3809  0.0028  0.0895
31588W        W47722   5.038   9.121   3.307  0.0184 -0.0863  0.0988
31589W        W47723   8.967  11.026  15.743 -0.1716  0.0771 -0.0899
31590W        W47724  10.088  10.196  10.980 -0.0620 -0.4041 -0.0038
31591W        W47725  14.471  15.424  14.652 -0.2072  0.0126  0.3842
31592W        W47726  10.695   3.038   0.066 -0.2446 -0.1906  0.1379
31593W        W47727   3.761  15.309  10.661  0.1461  0.2264 -0.1948
31594W        W47728   1.811   8.010   2.209 -0.1903 -0.0943 -0.1234
31595W        W47729   9.840   8.351  14.959  0.1866  0.5870 -0.2742
31596W        W47730  18.261   3.863  13.090 -0.1646  0.1703  0.1024
31597W        W47731   3.635  14.608   0.048  0.4496 -0.1479 -0.0284
31598W        W47732  15.742   0.785  13.821 -0.2199 -0.1840 -0.1061
31599W        W47733  18.502  16.210  15.431  0.2085  0.0640 -0.2582
31600W        W47734  13.323  17.010   1.353 -0.0531  0.0287 -0.0225
31601W        W47735  15.225  12.881   2.904  0.5153  0.5610  0.2157
31602W        W47736  14.929   5.367  14.423 -0.1117  0.3523  0.4321
31603W        W47737  15.256  16.078   4.578  0.0221 -0.0532  0.0236
31604W        W47738   4.941   7.181   0.408  0.2042 -0.4156 -0.3514
31605W        W47739  13.660  16.258  14.926  0.1786  0.2099 -0.2053
31606W        W47740  17.483  14.547   3.758 -0.0989 -0.1243 -0.2845
31607W        W47741  15.771  17.739   2.416 -0.0235  0.0529  0.0653
31608W        W47742  12.761  10.583  15.648 -0.0836 -0.3063 -0.2513
31609W        W47743   2.898   4.121  13.045 -0.3001 -0.1049  0.1446
31610W        W47744   0.392   2.716   4.131  0.0398 -0.3412 -0.1890
31611W        W47745  12.749   0.299  12.320  0.0070 -0.1267 -0.1082
31612W        W47746   0.420  10.617   3.471  0.0365 -0.1344  0.1606
31613W        W47747   2.576   4.291  13.711  0.1966  0.1485  0.1610
31614W        W47748   6.247  12.059   2.042  0.1492  0.0658 -0.2949
31615W        W47749  11.910  15.833  11.821 -0.1642 -0.3785  0.1891
31616W        W47750   7.005   0.135  11.932 -0.0450  0.2189 -0.2279
31617W        W47751   8.766   4.804   4.439  0.0210 -0.1462  0.3037
31618W        W47752   6.482  18.251  11.147 -0.0687 -0.3441 -0.0663
31619W        W47753  14.781   1.625   2.217  0.3380 -0.4037  0.0493
31620W        W47754  14.121  15.343  14.204 -0.1081 -0.0515  0.1471
31621W        W47755   2.988   2.008   2.168 -0.0992 -0.0345  0.2042
31622W        W47756  15.769   7.614   2.891  0.1468 -0.4021  0.0997
31623W        W47757  17.812  12.896  14.929 -0.2744  0.2309  0.3758
31624W        W47758   9.403  11.643   5.053  0.0148  0.0263  0.1859
31625W        W47759  15.859  11.312  11.350 -0.0554 -0.0295 -0.0087
31626W        W47760   5.415   6.717  14.280 -0.1001  0.0306 -0.3083
31627W        W47761  10.747   2.161   5.751  0.2077  0.1369  0.0207
31628W        W47762  12.585  15.601  11.945  0.0447  0.1395  0.1684
31629W        W47763   8.311   7.608   1.635  0.2813  0.0531 -0.3518
31630W        W47764   4.418   9.988   2.021  0.1195  0.0812 -0.3293
31631W        W47765  14.146  16.863  13.481 -0.3256 -0.0261 -0.0325
31632W        W47766  16.785   9.725  12.274  0.0122 -0.4552  0.0264
31633W        W47767   2.443  17.911  11.938  0.2811  0.4542 -0.0605
31634W        W47768  17.687  11.683   0.684 -0.1334  0.1384 -0.0222
31635W        W47769   1.085  12.334  11.132  0.3147 -0.1157 -0.0895
31636W        W47770   1.539  18.414   0.358 -0.2739  0.3344  0.0827
31637W        W47771  13.667  16.915   1.771  0.2868 -0.2700  0.3697
31638W        W47772   5.430  14.158   3.447  0.1663  0.2096  0.0856
31639W        W47773   0.656  12.550   1.680  0.2120 -0.0215  0.0363
31640W        W47774   9.489   2.909   5.021  0.3111  0.0491 -0.2082
31641W        W47775   6.099  16.006   0.188 -0.4193 -0.2215 -0.0471
31642W        W47776  10.610  11.130   4.738  0.2228 -0.2372  0.0504
31643W        W47777  11.888  15.488   1.935 -0.0931  0.0594  0.1485
31644W        W47778  17.223  13.894   0.211  0.2885 -0.0270  0.0232
31645W        W47779  15.484  11.608   1.056  0.1813 -0.3360 -0.3442
31646W        W47780   3.434   0.189   1.260  0.2197 -0.0041 -0.0738
31647W        W47781   8.217   1.263   0.872 -0.0911 -0.0209  0.0529
31648W        W47782   3.377  15.681   4.018  0.0225  0.1486 -0.4838
31649W        W47783  18.402  12.226  12.553  0.0453  0.0645  0.1107
31650W        W47784   0.070  11.410   4.586 -0.0723  0.1050  0.1828
31651W        W47785  16.953   8.525   1.975 -0.1075 -0.2212 -0.0174
31652W        W47786   3.216   1.223   9.959 -0.0518  0.0877 -0.4116
31653W        W47787   0.490  15.701   0.127 -0.0718 -0.0423  0.5160
31654W        W47788  14.616   5.729  14.425  0.0746 -0.1556 -0.1593
31655W        W47789  15.984   4.603   0.737  0.1192  0.0398  0.0742
31656W        W47790  17.730  17.095  13.755 -0.0250 -0.1218 -0.1957
31657W        W47791   7.847   8.975   2.756 -0.0542  0.0403  0.0353
31658W        W47792  14.717   2.706  15.096  0.0402 -0.0164  0.0988
31659W        W47793  14.829  15.678   5.122 -0.0450  0.2103 -0.0018
31660W        W47794   9.153  10.058  13.464 -0.0539 -0.0646 -0.0764
31661W        W47795   6.488  17.992   5.448  0.1585  0.4741 -0.1524
31662W        W47796  14.902   4.617   1.939  0.3430 -0.1770 -0.2062
31663W        W47797   7.625  15.841   4.627 -0.0283 -0.2386 -0.0629
31664W        W47798   2.065  13.081  15.423 -0.1505  0.2441 -0.5119
31665W        W47799  17.985   0.939   0.184 -0.1599  0.0369  0.1368
31666W        W47800  13.062   5.474  15.335  0.1012  0.1198  0.3161
31667W        W47801   0.851   1.447  13.905 -0.0350 -0.0521 -0.0033
31668W        W47802  17.926  12.133  15.315  0.2235  0.2643  0.0783
31669W        W47803   1.507  10.753  13.077 -0.3282 -0.1226 -0.0976
31670W        W47804  12.989  10.551  13.534  0.2657 -0.2696  0.1563
31671W        W47805  16.692  10.677   9.741 -0.0642  0.2613  0.2089
31672W        W47806   1.055   2.070  13.126  0.0716 -0.2033  0.1900
31673W        W47807  11.691   0.556   0.676  0.0440  0.2800 -0.1831
31674W        W47808   2.333  14.428   5.468 -0.2607 -0.2873  0.0944
31675W        W47809   2.831  11.492  11.726  0.0101 -0.0453 -0.1254
31676W        W47810   0.508   0.879  12.273 -0.0429  0.2830 -0.1262
31677W        W47811   9.451  12.610  13.837 -0.0072  0.5147  0.2139
31678W        W47812   7.939  13.141   1.981 -0.0431  0.0141 -0.2779
31679W        W47813  12.795  17.326  12.184 -0.0321  0.0654 -0.0180
31680W        W47814  13.455   4.889  12.393 -0.0427  0.3233 -0.0999
31681W        W47815   9.160  11.305   2.307  0.4304  0.1703  0.0374
31682W        W47816   7.977   8.339   1.027  0.2092  0.3136 -0.2316
31683W        W47817  13.911   8.712   1.736  0.1158 -0.1026  0.0197
31684W        W47818   4.875  16.731   3.007  0.0478 -0.0982  0.0667
31685W        W47819  16.629   6.783  12.837 -0.2450  0.1868  0.1308
31686W        W47820   6.479   0.684   2.887 -0.0753  0.1770  0.3324
31687W        W47821   9.826   2.643   3.077  0.1743  0.1206 -0.0026
31688W        W47822   5.354   7.479   3.292 -0.0604 -0.1856  0.1535
31689W        W47823   6.830  13.784   4.295 -0.1816  0.2788  0.2644
31690W        W47824   0.238   4.886  10.823  0.0215  0.1495 -0.2236
31691W        W47825   9.523   1.404  14.103 -0.1350 -0.2249 -0.1467
31692W        W47826  11.349   4.762  11.457  0.1487 -0.4987  0.1002
31693W        W47827  16.488   7.743   0.254  0.1071 -0.0096  0.3242
31694W        W47828  16.741  16.401  15.259 -0.1196  0.0737 -0.2179
31695W        W47829   7.735   6.691   3.871 -0.0393 -0.2399  0.0034
31696W        W47830  12.783   7.911  13.078  0.0963  0.0079 -0.3161
31697W        W47831   2.738   1.949  11.756 -0.1102 -0.0677  0.0110
31698W        W47832  18.349   7.734   2.943 -0.3371 -0.1228 -0.2109
31699W        W47833   5.147  14.442   1.718 -0.0878 -0.0682 -0.0521
31700W        W47834  16.207   7.341  11.577  0.2375  0.1352 -0.2203
31701W        W47835  15.383  17.715   0.534 -0.0310 -0.0807  0.2510
31702W        W47836   4.961  14.543  12.781 -0.0357  0.2918 -0.0889
31703W        W47837   3.648   8.708  14.383 -0.4155 -0.2421  0.1653
31704W        W47838  12.107   4.273  13.134  0.1956 -0.0624 -0.1546
31705W        W47839  13.776  13.158   3.886  0.3622 -0.0099  0.0022
31706W        W47840  18.195   6.769   2.625  0.0936 -0.0193 -0.0584
31707W        W47841  15.042  14.253  12.961 -0.0967 -0.0967 -0.1261
31708W        W47842  10.470   1.068  12.088 -0.1020  0.2379 -0.2274
31709W        W47843   1.888   4.126   5.194 -0.0059 -0.0491  0.6535
31710W        W47844   5.565  17.426  14.417 -0.2137 -0.1269 -0.0064
31711W        W47845   4.595  11.940  12.320 -0.3812  0.3568  0.0962
31712W        W47846   5.654   6.336  12.476 -0.2941 -0.0888 -0.1896
31713W        W47847  12.717   5.330   3.145  0.1238  0.2189  0.1549
31714W        W47848   5.145   3.408   3.007 -0.3691 -0.1979 -0.0284
31715W        W47849  11.308  17.259   4.459  0.0990  0.1974 -0.2163
31716W        W47850  12.369  14.164   2.244  0.2137 -0.1569 -0.2305
31717W        W47851  11.953   2.384  12.822 -0.2445 -0.1422 -0.1967
31718W        W47852   1.336   7.637   0.206  0.0597  0.0327 -0.2708
31719W        W47853   1.820  15.036  12.079 -0.0180 -0.0967  0.0208
31720W        W47854   7.182   9.037   2.454 -0.0067 -0.2615  0.1735
31721W        W47855  14.618  15.795   4.038 -0.1787  0.2329  0.1768
31722W        W47856  15.028  14.835   4.092 -0.0001 -0.0033 -0.2828
31723W        W47857  11.894  10.573  15.326 -0.2801  0.0618 -0.0040
31724W        W47858   6.580   9.319   1.675  0.1548 -0.1702  0.0961
31725W        W47859  15.133   7.402  13.660  0.1341 -0.0176 -0.1967
31726W        W47860  17.653   9.387  12.034  0.0254  0.0037  0.3925
31727W        W47861   2.291   8.270  13.138  0.1975  0.0150 -0.0015
31728W        W47862   5.617   7.835  14.958 -0.3249 -0.0798 -0.3346
31729W        W47863   7.921   7.443   3.915 -0.1400  0.2370 -0.0118
31730W        W47864  14.020   2.676  11.983  0.2223 -0.1411 -0.0950
31731W        W47865  17.492  14.340   3.234  0.1586  0.1056 -0.0055
31732W        W47866   7.362   1.868  11.873  0.1030  0.4896 -0.0529
31733W        W47867   3.810  11.591  10.894 -0.0409  0.2206 -0.4820
31734W        W47868   0.079   0.780   0.479  0.1081  0.0298 -0.1050
31735W        W47869  16.464  18.489   0.155 -0.0128 -0.0397 -0.3483
31736W        W47870   6.034   8.440   2.567 -0.0039 -0.2931 -0.0261
31737W        W47871  17.264   1.512   3.345  0.0946 -0.0747  0.0659
31738W        W47872   9.827   9.283   6.317  0.2153 -0.0484  0.2378
31739W        W47873  13.273  10.747   2.508  0.0645  0.3952 -0.1774
31740W        W47874  10.319   6.732   2.102  0.5852 -0.0800  0.1364
31741W        W47875  14.223  14.703  12.738 -0.2116  0.1724  0.0641
31742W        W47876   2.804  15.328   2.199  0.1113 -0.0475 -0.0422
31743W        W47877  15.791   7.050  11.613 -0.1192 -0.1511 -0.2030
31744W        W47878  14.756  13.847  13.098 -0.1354  0.0945  0.1485
31745W        W47879   6.650   9.990   5.967 -0.3405 -0.1143  0.0008
31746W        W47880  18.092   9.857   5.569 -0.2749  0.0813 -0.0476
31747W        W47881  18.207  10.222   1.018  0.0600 -0.0724 -0.0000
31748W        W47882  13.612   9.515  15.678 -0.1295  0.0493  0.0560
31749W        W47883  10.285   9.758   3.571 -0.2814  0.1458  0.1020
31750W        W47884   3.723   2.855   4.550 -0.0621 -0.2425  0.1173
31751W        W47885   5.724   5.435   3.429 -0.0492 -0.0713  0.2070
31752W        W47886   8.619   8.935   2.572  0.0167 -0.1277 -0.2594
31753W        W47887   6.318  11.937  11.151  0.1747  0.1837 -0.3286
31754W        W47888   0.476   3.253  12.152  0.0974  0.0016  0.1884
31755W        W47889   5.326   7.251  12.049 -0.1676  0.3597 -0.2706
31756W        W47890   6.560  15.405  13.627 -0.2709 -0.0387  0.0953
31757W        W47891   6.419   1.230   6.119  0.2257  0.1398  0.2157
31758W        W47892   3.967  14.761  10.350 -0.2851 -0.0296 -0.0843
31759W        W47893  16.574   4.318   0.007  0.1209  0.4341  0.0355
31760W        W47894   6.704  11.055  11.951  0.0633 -0.0507 -0.0475
31761W        W47895   5.337  15.433  14.540  0.1169 -0.1974  0.1139
31762W        W47896  11.164   5.073  15.530  0.0669 -0.1073  0.0166
31763W        W47897  15.055  13.819  12.628 -0.2191 -0.1317 -0.3115
31764W        W47898  17.404  15.383   4.115 -0.1817  0.1803  0.0464
31765W        W47899  11.510  13.329   2.072  0.3110  0.2443  0.1632
31766W        W47900   7.894  13.984   0.992 -0.2774 -0.0415  0.2544
31767W        W47901   9.435  17.485   1.936  0.3638 -0.1070 -0.0103
31768W        W47902   4.446  17.722  10.879  0.1300 -0.1016  0.1104
31769W        W47903  12.879   8.506  12.419  0.1519  0.2193 -0.0539
31770W        W47904   2.187  13.347   3.437  0.0291  0.1412  0.0599
31771W        W47905   6.639  11.264  15.976  0.2382  0.0530 -0.0108
31772W        W47906  11.038   0.873  12.434  0.1462 -0.1787  0.0151
31773W        W47907  17.785  11.391  14.944  0.0711 -0.0375 -0.2562
31774W        W47908   9.305   3.067   0.898 -0.0704 -0.2250  0.1081
31775W        W47909  10.534   6.477   1.016  0.1110 -0.0645  0.2897
31776W        W47910  13.526   2.982   1.157 -0.2557  0.1503  0.2028
31777W        W47911   7.712   3.520   4.401  0.1026 -0.2057  0.3000
31778W        W47912  11.715   5.873   3.002 -0.1383  0.0042 -0.0121
31779W        W47913  11.429  13.239  15.730 -0.0378  0.0135  0.0051
31780W        W47914   9.398  12.994   0.302 -0.1772 -0.2673 -0.2664
31781W        W47915   0.993  15.650   3.813  0.0878 -0.2078 -0.1500
31782W        W47916   4.842   8.107  12.123 -0.2777  0.0466  0.0526
31783W        W47917  15.742   9.737  13.754 -0.0016  0.1872 -0.0985
31784W        W47918  15.067  16.211  11.651  0.2244 -0.2798 -0.4124
31785W        W47919   7.924   7.065  14.189 -0.1887  0.2149  0.1231
31786W        W47920   0.983   5.909  10.148  0.2981  0.3120  0.1440
31787W        W47921  11.310  17.714  11.866  0.0732  0.1216  0.5964
31788W        W47922   5.544   8.290  12.445 -0.0257  0.4275  0.1435
31789W        W47923  15.331  11.193  12.102 -0.2426  0.2813  0.1634
31790W        W47924   6.956  11.368   2.734 -0.1556  0.2047  0.1418
31791W        W47925   6.633   7.363   2.801  0.0071  0.1284 -0.0495
31792W        W47926  17.892  14.183   2.018  0.3637  0.1049  0.5946
31793W        W47927   9.579  15.303   4.895 -0.2900  0.0262 -0.1471
31794W        W47928   7.947  15.120   2.431 -0.1893 -0.2430  0.0520
31795W        W47929   9.524   1.504   3.846 -0.0255  0.0751  0.0570
31796W        W47930  16.773  13.953   1.232 -0.0153 -0.5770  0.0416
31797W        W47931  17.635  14.702  12.087 -0.0372 -0.0958 -0.0663
31798W        W47932  15.262  12.638  14.903 -0.2804  0.1950 -0.1734
31799W        W47933   2.456   1.969  13.158 -0.2170 -0.1005  0.2549
31800W        W47934   3.155  16.260   2.718 -0.1240  0.1471 -0.0298
31801W        W47935  12.664  11.374  14.330  0.1674  0.0906 -0.1595
31802W        W47936   3.672  15.127   0.142 -0.1467 -0.1445  0.3170
31803W        W47937   1.948   3.175   4.816  0.3006 -0.2026  0.4469
31804W        W47938  17.904   4.108   4.924  0.2394  0.0468  0.0015
31805W        W47939   2.713   7.529  12.817 -0.2555 -0.2842 -0.2243
31806W        W47940  10.238  15.354   5.354  0.0496  0.0478 -0.4077
31807W        W47941  18.327  13.627  14.209  0.0211 -0.0354 -0.0242
31808W        W47942  16.592  12.469  13.491  0.0675  0.0851  0.0409
31809W        W47943  13.133  16.334   5.076  0.0985 -0.0498 -0.2653
31810W        W47944  16.931  17.676   5.247  0.0293  0.3552 -0.0642
31811W        W47945  15.037  12.643  11.119  0.1707 -0.1490  0.0709
31812W        W47946   5.405   5.502   0.388 -0.0916 -0.0505 -0.0159
31813W        W47947  15.834   5.819   1.884 -0.1886  0.0681  0.3742
31814W        W47948  10.689   3.535  12.373  0.2149 -0.0637 -0.1323
31815W        W47949   9.555  10.716   2.228  0.0811  0.3702  0.0009
31816W        W47950  14.348   5.491  11.543 -0.1999 -0.2609 -0.0511
31817W        W47951   0.622   9.145   1.388 -0.1622 -0.0088  0.2673
31818W        W47952  12.568   0.528   3.369 -0.0176 -0.0096 -0.1560
31819W        W47953   4.798  16.730  12.060  0.0198  0.1156  0.0896
31820W        W47954   3.231  11.793  14.998  0.2541 -0.1710  0.1051
31821W        W47955   8.931  15.853   3.597  0.0387 -0.0192  0.2295
31822W        W47956   4.216   6.093  15.288  0.1202  0.1407 -0.2328
31823W        W47957   0.802   1.284  12.583 -0.0720 -0.0660 -0.1415
31824W        W47958  14.954   9.278   2.588  0.0961 -0.1021 -0.1018
31825W        W47959   5.291  11.487  12.206  0.3986 -0.3873  0.0778
31826W        W47960  10.604   3.753   6.820 -0.1934  0.0448 -0.1095
31827W        W47961   0.210   2.745   0.133  0.0422  0.1931 -0.0286
31828W        W47962   8.786   4.128  11.723  0.0761  0.0854 -0.2119
31829W        W47963  12.290   4.061  11.503 -0.2604  0.1084 -0.0249
31830W        W47964   6.601   2.693   3.335 -0.1810  0.0295 -0.2086
31831W        W47965  12.896   2.744   5.670 -0.2362  0.0554  0.1462
31832W        W47966   0.854   6.382   2.568 -0.0761  0.1230 -0.1305
31833W        W47967  15.186  18.147   0.739 -0.5983  0.2702 -0.2300
31834W        W47968   0.727   0.344  14.882 -0.1015  0.0811  0.2727
31835W        W47969  11.558   5.824   1.055 -0.0523 -0.0102 -0.0809
31836W        W47970   5.023  12.327  12.328 -0.0991  0.0912  0.2950
31837W        W47971  16.483   3.632   1.624 -0.0143  0.2491 -0.0175
31838W        W47972   7.934  16.861  15.375  0.0435 -0.0111  0.0244
31839W        W47973  17.608   8.027   5.622 -0.2565 -0.0486  0.0142
31840W        W47974  15.208  13.317   1.283 -0.1844 -0.0649  0.1043
31841W        W47975   0.838  13.984   0.767  0.0285  0.0472 -0.3298
31842W        W47976  11.138  15.081   4.475  0.1760 -0.1401 -0.2874
31843W        W47977   1.057  15.995  14.028  0.2285 -0.2068  0.0587
31844W        W47978  15.333  14.900   0.786 -0.2819 -0.0994  0.1079
31845W        W47979   0.324   6.835  16.017  0.0842  0.3200 -0.3431
31846W        W47980  14.686   8.752  16.074 -0.1863 -0.2878  0.3178
31847W        W47981  11.061  13.948  11.761  0.0172  0.3017  0.1629
31848W        W47982  12.383  12.480  13.980 -0.1133  0.3382 -0.2354
31849W        W47983   1.922  16.822   3.311 -0.2133  0.0062  0.0656
31850W        W47984  12.028  14.969   2.780 -0.0972  0.0705  0.2232
31851W        W47985   9.504  10.673   5.210 -0.0321 -0.0208 -0.0338
31852W        W47986   9.215   8.709  13.662  0.2128  0.0243  0.1707
31853W        W47987  11.142   7.776   4.317 -0.0657  0.0426  0.0679
31854W        W47988   6.173  18.015   5.082 -0.2688  0.2448 -0.1867
31855W        W47989   4.772   1.529  11.528 -0.1510 -0.1390 -0.0085
31856W        W47990   7.997  14.312  12.111 -0.0482 -0.2738 -0.3001
31857W        W47991   0.265  16.456   3.531  0.1963  0.0600  0.2127
31858W        W47992  15.354   8.145  14.742 -0.0289 -0.2599  0.0529
31859W        W47993  11.371   1.266   6.107 -0.0017  0.0214 -0.2361
31860W        W47994   1.108   9.907  11.618 -0.0988 -0.2487 -0.0797
31861W        W47995  13.246  12.122  12.771  0.0797 -0.0336 -0.1071
31862W        W47996  16.824  12.509  12.633  0.1936  0.0197  0.1398
31863W        W47997  11.599  17.481  13.874  0.1957  0.0156 -0.0125
31864W        W47998   9.785  12.546   0.967  0.2427  0.0028 -0.2571
31865W        W47999  16.581   7.294  12.884 -0.0079 -0.2878  0.1809
31866W        W48000  13.982  17.668   3.818  0.0223 -0.0307  0.1173
31867W        W48001   3.991   2.792  11.115 -0.0027 -0.0208  0.2055
31868W        W48002  13.924   8.455  11.664  0.0340 -0.0385  0.2109
31869W        W48003  16.075   3.119  15.928 -0.1121  0.2948  0.0047
31870W        W48004   8.930   6.050   3.951 -0.0413 -0.2456  0.0842
31871W        W48005   9.953   1.137   0.935 -0.1551  0.2508 -0.4156
31872W        W48006  10.676   5.929  13.244  0.1160 -0.4444 -0.0463
31873W        W48007   2.029   8.606  12.740 -0.1131  0.0279 -0.0359
31874W        W48008  10.020  15.555  13.225  0.0287  0.1156 -0.3912
31875W        W48009  10.634  10.594  16.023 -0.1848 -0.0704 -0.2641
31876W        W48010   2.405   8.978  14.132 -0.0336 -0.0556 -0.1227
31877W        W48011  11.646   3.152  14.167 -0.1395 -0.1038 -0.1577
31878W        W48012  10.062  16.433   1.023 -0.1105  0.1075  0.1124
31879W        W48013  11.833  12.221   3.400 -0.1919  0.1679  0.0472
31880W        W48014  13.422  16.609   3.246 -0.0306 -0.1251 -0.1425
31881W        W48015  13.349   7.044  15.105 -0.0481 -0.0323 -0.0446
31882W        W48016  13.727  15.329   4.303 -0.2153 -0.0731  0.0765
31883W        W48017  17.595   8.028   0.321 -0.2937 -0.1289  0.1718
31884W        W48018   7.025   5.854   2.474  0.0375 -0.0219  0.2322
31885W        W48019   3.881  13.838  10.998  0.1635  0.0323  0.0576
31886W        W48020  10.014  10.979  14.080  0.2130  0.0923  0.1379
31887W        W48021  18.097  15.137   1.087 -0.5188 -0.1401 -0.1085
31888W        W48022   5.981  17.867   3.719 -0.1246  0.0535 -0.0367
31889W        W48023  12.828  12.447   5.306 -0.1739 -0.1478 -0.1769
31890W        W48024   7.504  14.768  13.555  0.1243  0.0797 -0.0711
31891W        W48025   4.971  12.821  15.681 -0.1559  0.3225  0.1702
31892W        W48026  13.608   6.149   4.520 -0.0175 -0.0814  0.1418
31893W        W48027   9.224   7.525   3.018  0.3297  0.0664 -0.1536
31894W        W48028  14.275  17.950   0.406  0.0899 -0.3418 -0.0135
31895W        W48029  10.379   0.463  13.890 -0.1913  0.0533  0.1109
31896W        W48030  10.635   2.016  15.159  0.1820  0.0844 -0.3694
31897W        W48031  12.685   9.901   3.864  0.1682  0.1305  0.2718
31898W        W48032  14.203   5.106   4.942  0.1633 -0.1820  0.1835
31899W        W48033   1.544  13.227  15.723 -0.1140  0.2688  0.4389
31900W        W48034  16.641   1.285   3.812 -0.0565 -0.0866 -0.1510
31901W        W48035   3.753  11.112   5.662 -0.0921  0.2739  0.0599
31902W        W48036   9.270   4.504   4.742 -0.1963 -0.2925  0.0061
31903W        W48037  14.997  10.854  11.878 -0.1398 -0.0640  0.1366
31904W        W48038   9.233   9.625   0.387 -0.0070  0.1820 -0.3943
31905W        W48039   8.308  10.935   1.614  0.2095 -0.2884 -0.0110
31906W        W48040  15.341   7.212  15.225  0.0352 -0.0397 -0.0216
31907W        W48041   6.837   3.012  15.828  0.0527  0.0420  0.0225
31908W        W48042   0.851  15.822  15.523  0.0579  0.2802 -0.5368
31909W        W48043   0.676  14.125  14.719  0.0270  0.1157  0.0620
31910W        W48044  16.426   9.206   0.345  0.0558 -0.2028  0.3412
31911W        W48045   7.389   7.303  12.434  0.0264  0.0470  0.2074
31912W        W48046   1.063  13.801   3.864 -0.1867 -0.1445 -0.0583
31913W        W48047   6.920  12.963   3.970  0.1113  0.0601  0.0694
31914W        W48048   5.227  11.559   0.588 -0.2491 -0.0236 -0.0599
31915W        W48049   9.884  13.402   0.979  0.3139 -0.0353  0.1475
31916W        W48050  16.945   1.966  14.303  0.0595  0.1345 -0.2451
31917W        W48051   9.966  13.872   6.760 -0.1744  0.1119  0.1299
31918W        W48052   7.366   8.034   4.394 -0.2623 -0.0718 -0.3057
31919W        W48053  12.901   1.306  12.224  0.1687 -0.0413 -0.0275
31920W        W48054   4.796   7.191   1.096 -0.0920 -0.2268  0.0626
31921W        W48055   8.951   5.070  12.302  0.2342  0.2267  0.1070
31922W        W48056   2.201  16.559  11.704 -0.3397  0.0666 -0.3028
31923W        W48057   2.347   4.188  11.849 -0.0994  0.3212  0.1487
31924W        W48058  15.109  10.529   5.295 -0.4442  0.3637  0.2253
31925W        W48059  11.020   1.457   2.687 -0.2390 -0.2132 -0.0397
31926W        W48060   1.645   3.730  14.381  0.3688 -0.1041  0.0979
31927W        W48061  14.352   1.623   0.638 -0.1893 -0.1821  0.0364
31928W        W48062   2.856  13.098   0.345  0.3551  0.0340  0.3602
31929W        W48063  12.876   1.937   0.068 -0.0867  0.2773  0.1732
31930W        W48064  16.630   2.950   4.185  0.2540  0.2141 -0.2833
31931W        W48065  12.501   9.517  12.299 -0.3298 -0.2439  0.0276
31932W        W48066  15.120   8.773  12.709  0.1313  0.2789 -0.0716
31933W        W48067  14.796   8.328   2.277  0.3291 -0.1139 -0.1656
31934W        W48068   4.523  17.951   4.916 -0.1052  0.2669 -0.2191
31935W        W48069   2.458  12.441  15.102 -0.0562  0.2728 -0.0381
31936W        W48070   4.355  14.923  15.702  0.0576 -0.0679  0.0054
31937W        W48071   2.368  12.784  14.747  0.1224 -0.0555 -0.0254
31938W        W48072   9.230  14.294  12.212  0.1692  0.1974  0.0387
31939W        W48073   2.705  10.339   0.411 -0.2958 -0.0134 -0.3877
31940W        W48074  13.918  14.724   5.357 -0.0136 -0.1412 -0.0864
31941W        W48075   9.242  10.587  11.688 -0.0924 -0.0099  0.1669
31942W        W48076   5.208   3.740  10.616  0.3772 -0.4232  0.2404
31943W        W48077  15.953  10.810   1.546  0.4428  0.4058 -0.2917
31944W        W48078  16.401   0.151   3.416  0.2267 -0.0029  0.1957
31945W        W48079  12.952   1.462   2.293  0.1866 -0.0791 -0.2722
31946W        W48080   9.796  15.033  12.560  0.2900  0.1972 -0.1965
31947W        W48081  11.130   5.091  15.990  0.2139 -0.0057 -0.2169
31948W        W48082  13.952  17.674  12.057  0.0549 -0.3117  0.0395
31949W        W48083   8.449  16.494   0.634 -0.3648 -0.0879  0.1916
31950W        W48084   3.522   9.017   4.875  0.3659  0.3635 -0.0831
31951W        W48085   4.731  10.069  12.458 -0.1619  0.0152  0.0094
31952W        W48086   8.194   6.493  12.858 -0.1618  0.0769 -0.0118
31953W        W48087  14.968   8.211   3.289  0.0278 -0.1131 -0.0852
31954W        W48088   8.386   3.962   3.687 -0.1786 -0.0124  0.1343
31955W        W48089  11.653   8.797   3.077  0.3571 -0.0365  0.4109
31956W        W48090   8.178   8.977   0.808 -0.0792  0.0335  0.0556
31957W        W48091   6.992   8.519   5.179 -0.3497  0.1535  0.0260
31958W        W48092  16.064   2.523  16.076  0.4416 -0.1763 -0.1790
31959W        W48093  13.439   8.669   1.124  0.0915 -0.2601 -0.1394
31960W        W48094  17.047  13.038  13.435  0.0658 -0.3018 -0.3622
31961W        W48095   6.070   1.985   4.391  0.0652  0.1909  0.3388
31962W        W48096   7.455  10.431   3.572  0.0714 -0.3265  0.0292
31963W        W48097   5.016   6.502   3.160 -0.1286  0.0729 -0.1662
31964W        W48098  17.221  10.175   2.332 -0.3031 -0.1919  0.1960
31965W        W48099   1.821  16.926   2.609  0.0137  0.1606 -0.3031
31966W        W48100  16.232  11.611   1.122 -0.2489 -0.0207  0.0270
31967W        W48101   9.703   8.838  14.992  0.2081  0.3873  0.0565
31968W        W48102   0.479   4.819  12.730 -0.0780 -0.1864 -0.0929
31969W        W48103   4.594  14.611  15.312 -0.1491 -0.1053 -0.0941
31970W        W48104   3.834   6.385  15.676  0.2096 -0.4424  0.1901
31971W        W48105  14.317   7.376  13.908 -0.1745 -0.3352 -0.1120
31972W        W48106   1.090   8.439   3.200 -0.1978  0.0371 -0.0022
31973W        W48107   5.201  17.188   0.619  0.1097  0.4721  0.1222
31974W        W48108  14.243  15.885  14.658 -0.0488  0.1094  0.2224
31975W        W48109  17.908  13.328  11.455 -0.0723  0.3165 -0.0581
31976W        W48110   7.842   0.196  11.822  0.0198  0.0798  0.3281
31977W        W48111   9.312  17.541  13.028  0.2067 -0.0485  0.0390
31978W        W48112  15.176   1.850  13.165 -0.0131  0.2373 -0.1253
31979W        W48113   3.399  16.173   3.916 -0.1162 -0.0585 -0.0516
31980W        W48114  18.181  18.273  14.303  0.1929  0.1056 -0.1916
31981W        W48115  10.342  11.703  14.402  0.2669 -0.0542 -0.2111
31982W        W48116   5.907  13.683   4.679  0.4681 -0.0992 -0.0598
31983W        W48117   9.953   8.374  11.450  0.0920 -0.1650  0.0571
31984W        W48118   7.617   5.594   0.634 -0.2814 -0.0945 -0.0043
31985W        W48119  16.665  13.378  11.712  0.2076  0.4521  0.1368
31986W        W48120  13.151   6.280   4.650  0.2623 -0.4398  0.1182
31987W        W48121  13.332  10.715   4.528 -0.1471 -0.2845 -0.2186
31988W        W48122  17.737  15.936   4.132  0.1944 -0.0128 -0.0497
31989W        W48123   6.285  10.718   4.016  0.0818  0.0345  0.1455
31990W        W48124  13.701   0.379  12.701 -0.0722  0.1234 -0.1197
31991W        W48125  14.384   2.274   1.504 -0.0148 -0.0843  0.1903
31992W        W48126  14.960   0.150   1.753  0.1160 -0.2274  0.0381
31993W        W48127   3.571   5.535  13.880 -0.0888 -0.3243 -0.0721
31994W        W48128  12.763   6.117  13.806  0.0084 -0.2161 -0.3999
31995W        W48129  12.185   8.276   3.713  0.2016 -0.1997 -0.0812
31996W        W48130   4.289   2.371   5.708  0.2580  0.2313  0.0199
31997W        W48131  15.552  15.993  13.418 -0.0910  0.3268 -0.1310
31998W        W48132  13.062  13.370   1.221 -0.1554 -0.0709  0.2192
31999W        W48133   3.335   9.954   5.011 -0.2321  0.1153  0.1952
32000W        W48134  14.722  13.310  12.941 -0.0417 -0.0714 -0.1797
32001W        W48135  14.160  14.248  12.440  0.3240  0.3169 -0.0011
32002W        W48136   7.286  16.300   3.806 -0.1860 -0.0077 -0.2428
32003W        W48137   7.931   7.139   6.315  0.3208 -0.0087 -0.2158
32004W        W48138  16.102   8.004  14.245 -0.2059  0.1634 -0.0389
32005W        W48139  14.451  12.092  11.950 -0.1363 -0.2832 -0.1362
32006W        W48140  15.862   0.179  15.436 -0.2212 -0.0037 -0.2217
32007W        W48141   8.323   3.382  13.839  0.1356 -0.1990  0.4456
32008W        W48142   5.778  13.662   2.706 -0.0017  0.2508  0.0582
32009W        W48143   1.477   5.806  10.491 -0.1862  0.0226  0.0038
32010W        W48144   3.546   7.460   2.211 -0.3109  0.1842 -0.1269
32011W        W48145   4.503   9.044  14.107 -0.0723  0.1122 -0.1427
32012W        W48146  15.160  14.832   4.614  0.0475  0.1458  0.1162
32013W        W48147  14.553  10.768  15.310 -0.0787 -0.2267 -0.1187
32014W        W48148  15.112  15.804   4.200 -0.0354 -0.0699 -0.2264
32015W        W48149   7.735  10.738   4.898  0.1722  0.3244 -0.0743
32016W        W48150   4.411  17.422  13.613  0.3297 -0.0109 -0.1745
32017W        W48151   9.048  14.013  16.087  0.1021  0.5151  0.0836
32018W        W48152   1.022  16.509  11.717 -0.3137  0.0653  0.0298
32019W        W48153  11.160   1.040   3.936  0.0708 -0.0638 -0.0651
32020W        W48154  14.723   1.473  15.616 -0.0679  0.1189  0.3997
32021W        W48155   7.677  16.209  12.202  0.0188  0.0551  0.0304
32022W        W48156  14.378  11.083  14.921 -0.1936 -0.2376 -0.0487
32023W        W48157   0.169  14.685   3.240 -0.2119 -0.1330 -0.0163
32024W        W48158   3.887   9.519  15.397  0.0108  0.1715 -0.1536
32025W        W48159  13.276  14.903   5.847  0.1400  0.2558 -0.0071
32026W        W48160   9.568  11.948  15.787  0.1046 -0.1593  0.1963
32027W        W48161   8.272  10.858   2.159  0.0049 -0.1995  0.1237
32028W        W48162   8.385   1.566   1.712 -0.0063  0.0174 -0.4082
32029W        W48163  14.189  11.638  14.112 -0.1229  0.1448 -0.1415
32030W        W48164   4.100   7.633  13.197  0.3556 -0.3847  0.0053
32031W        W48165  10.207   5.420   1.490  0.3299 -0.0365 -0.0529
32032W        W48166   5.637   7.885  15.663 -0.2945  0.3598  0.4276
32033W        W48167  17.139   6.648  11.520  0.2326 -0.0581  0.0943
32034W        W48168   6.065   4.539   1.902 -0.5911  0.3522  0.0034
32035W        W48169   2.540  13.287   3.769 -0.2070  0.1980 -0.1329
32036W        W48170  18.303   0.316  11.832  0.4184 -0.0691 -0.3240
32037W        W48171  12.994  17.069  13.423 -0.1091 -0.1281  0.1154
32038W        W48172   1.707   7.144  15.514 -0.0509  0.1789 -0.0102
32039W        W48173   1.020  12.127  12.392  0.0921  0.1412  0.1456
32040W        W48174   1.775  15.472   0.078  0.2654 -0.0406 -0.0236
32041W        W48175   8.716   1.584  11.771  0.1604 -0.2513  0.2137
32042W        W48176  15.690   2.074   2.920  0.1233 -0.1582  0.3646
32043W        W48177   4.397   2.805  11.923 -0.2265 -0.1209 -0.1811
32044W        W48178   2.503   8.332  12.117 -0.3524  0.0559  0.1565
32045W        W48179  12.102  10.846   5.787  0.0458 -0.0890 -0.1553
32046W        W48180  15.248  10.559  13.408 -0.2827 -0.0715 -0.0049
32047W        W48181  12.067  18.407   1.778 -0.0610  0.1859 -0.0093
32048W        W48182   5.512   6.036   0.146  0.1795  0.0131  0.0472
32049W        W48183  15.444   5.538   3.188 -0.0492 -0.1710 -0.1949
32050W        W48184   9.243   7.006   3.191 -0.1278  0.0554 -0.1354
32051W        W48185   0.818  16.749   1.127  0.3600 -0.0652 -0.0968
32052W        W48186  17.425  13.950   2.073  0.1051 -0.4291  0.1214
32053W        W48187   9.183   7.630  10.833 -0.0813  0.0361 -0.1669
32054W        W48188  14.537  16.799  13.807  0.0656  0.0745  0.4290
32055W        W48189   9.507  13.762   5.473 -0.1140  0.3429 -0.2905
32056W        W48190   9.317   6.658  15.865  0.3326  0.0477 -0.1467
32057W        W48191   8.544  12.646   3.406 -0.0347  0.1042  0.2838
32058W        W48192  15.830  18.269  13.299 -0.0820 -0.0563  0.2125
32059W        W48193  17.128   4.544   0.880 -0.1575  0.2155  0.0759
32060W        W48194  16.568   5.228  15.082 -0.0044 -0.0294  0.3308
32061W        W48195  16.595  17.017  11.886  0.2526  0.1687  0.3226
32062W        W48196  10.608   9.621   0.654  0.0208 -0.1865 -0.1672
32063W        W48197   2.896   0.129  11.626  0.0564 -0.2191 -0.1760
32064W        W48198  14.281  10.718   4.938  0.0807 -0.1405  0.0592
32065W        W48199  14.309  13.891   4.030 -0.3476 -0.1654  0.1902
32066W        W48200  17.442   6.560   1.170  0.0796 -0.1771  0.0699
32067W        W48201   0.418  11.704   2.979  0.0793 -0.1397  0.1359
32068W        W48202  16.486   1.267   0.869  0.2338 -0.2896 -0.2228
32069W        W48203   3.342   1.974   2.586 -0.2140  0.0461  0.1174
32070W        W48204  11.795   3.289   2.680  0.1230  0.1383 -0.3651
32071W        W48205  12.214   1.095   0.448  0.0143  0.0936  0.0230
32072W        W48206  18.157   3.555  12.667 -0.0320  0.1352  0.2823
32073W        W48207   4.551   1.808   4.468  0.0423 -0.1059 -0.0853
32074W        W48208   2.185   1.135   1.275 -0.1255  0.2265  0.1430
32075W        W48209   8.516  16.174  15.679  0.1764 -0.0128  0.3131
32076W        W48210  10.443  14.912   3.930 -0.2355  0.3905  0.2779
32077W        W48211   2.236   6.073  14.111  0.1180  0.2841  0.3241
32078W        W48212   0.470   9.243  11.507  0.1264 -0.2506 -0.0864
32079W        W48213  11.537  12.457  13.699 -0.1717 -0.0307 -0.2240
32080W        W48214  14.235   3.939  11.858  0.1090  0.3019  0.0018
32081W        W48215   9.203   9.002  15.760  0.1567 -0.2230  0.3955
32082W        W48216  13.955  15.370   3.666 -0.0538  0.0774  0.2841
32083W        W48217   5.774   6.853   4.360  0.0890 -0.0884 -0.0730
32084W        W48218  11.645   9.143  14.460 -0.0312  0.0023  0.0873
32085W        W48219  11.822   3.039   4.129 -0.0955  0.2983 -0.1687
32086W        W48220  17.260   5.671   1.337  0.2621 -0.0848 -0.2339
32087W        W48221  10.378  12.066  12.235 -0.0518 -0.1205 -0.2171
32088W        W48222   8.962  10.633   2.627 -0.2301 -0.1954 -0.0071
32089W        W48223   1.881   5.385   5.655 -0.1673  0.1681  0.0020
32090W        W48224  18.465   3.479  11.226 -0.1604 -0.0389  0.0286
32091W        W48225  15.463  13.936   2.390 -0.2647 -0.1920  0.1640
32092W        W48226  14.793   5.595   2.846 -0.2194  0.3493  0.1340
32093W        W48227   0.150  16.382  15.872  0.0588  0.3922 -0.0381
32094W        W48228  10.064  17.080  14.074  0.3629 -0.1037 -0.3360
32095W        W48229   6.640  13.798   0.265 -0.2672 -0.2157  0.1621
32096W        W48230  13.114   3.227  12.096  0.2618  0.3739  0.2402
32097W        W48231   9.780   7.543   2.253  0.0829  0.3886 -0.0569
32098W        W48232   4.983  15.516  15.460 -0.3505 -0.0612 -0.1492
32099W        W48233  11.973   6.164  14.630  0.3810 -0.2235 -0.2542
32100W        W48234   2.400   0.697  12.757 -0.0789 -0.3633  0.2634
32101W        W48235   4.257   6.341  16.091  0.1364 -0.1929 -0.1840
32102W        W48236  16.760   4.794  13.121  0.2656 -0.1669  0.0579
32103W        W48237   9.306   2.448   2.835  0.1340 -0.0002 -0.2288
32104W        W48238   5.076  13.326   4.334  0.0022 -0.0880  0.0947
32105W        W48239  12.576  13.372  13.386 -0.0343  0.1934 -0.1395
32106W        W48240   0.529   5.851  13.596  0.4056  0.0251 -0.0015
32107W        W48241   9.221  10.837   0.610 -0.0276  0.2717 -0.1332
32108W        W48242  17.336   1.555   0.493  0.0802 -0.0230  0.1683
32109W        W48243   5.913   5.980   4.646 -0.4886  0.2274  0.0322
32110W        W48244   1.268  17.638  10.795 -0.0185 -0.1956  0.0298
32111W        W48245   2.699   1.593  13.321  0.1311 -0.0719 -0.0878
32112W        W48246   6.455   0.908  12.314  0.0996  0.0092  0.1060
32113W        W48247  16.517   0.549  12.937 -0.0350 -0.2957  0.2291
32114W        W48248   9.379   8.523   2.283 -0.2474  0.4223 -0.2458
32115W        W48249  17.672  13.922  10.109 -0.2328  0.3944 -0.2558
32116W        W48250  16.088   2.069   2.081  0.0676  0.2060 -0.1740
32117W        W48251  18.247  18.121   3.370 -0.2166  0.1629 -0.0432
32118W        W48252  14.563  12.690  15.903 -0.1723  0.0030  0.2273
32119W        W48253   3.969   7.788   3.689  0.1698 -0.1528  0.1726
32120W        W48254   2.312   3.084   1.515 -0.2027 -0.1607 -0.1648
32121W        W48255   4.218  14.854   0.714 -0.2130  0.0917 -0.3357
32122W        W48256   2.058  16.861  12.791 -0.2358  0.2000 -0.0397
32123W        W48257   6.514   3.321  11.267  0.1781  0.0652  0.3303
32124W        W48258  17.069  13.484  15.414  0.0401  0.1169  0.0552
32125W        W48259  11.420   0.029   2.336 -0.0695 -0.2390 -0.1578
32126W        W48260   2.571   8.821   3.869  0.0011 -0.2052 -0.0097
32127W        W48261   2.884   3.597   4.484  0.3373  0.0435  0.1315
32128W        W48262   5.784  14.141   2.933 -0.0811 -0.1776 -0.0865
32129W        W48263  16.396   9.686  12.658  0.1972 -0.3386  0.1772
32130W        W48264   7.622  17.505  13.215 -0.0913 -0.0594 -0.3832
32131W        W48265   0.737   9.452   3.888  0.4037  0.1567  0.1468
32132W        W48266   0.440   6.756   3.275  0.0318 -0.3629  0.1244
32133W        W48267  14.916   6.438  15.881 -0.0151 -0.0191 -0.0347
32134W        W48268   9.233   1.541  13.332 -0.5233 -0.0946  0.0116
32135W        W48269  15.358  11.911  13.514 -0.0834  0.4392  0.2574
32136W        W48270   3.653   0.377   3.403 -0.0485 -0.2036  0.1292
32137W        W48271  14.063   8.924  13.787  0.0641  0.1243  0.0219
32138W        W48272   4.030   1.688   4.486 -0.1617 -0.0425 -0.4183
32139W        W48273  16.359   2.620  14.712  0.2392  0.2095  0.1072
32140W        W48274  17.669  17.543   1.701 -0.1099 -0.1966  0.1192
32141W        W48275  13.858  10.483   1.787  0.0616 -0.1842  0.0469
32142W        W48276   8.701   7.261  13.027 -0.1590  0.0271 -0.2609
32143W        W48277  16.833  10.454  13.125 -0.1972 -0.4600 -0.2123
32144W        W48278   1.579   3.720  11.035 -0.1601 -0.6791 -0.1326
32145W        W48279   6.364   3.909   6.247 -0.0897  0.1722 -0.0761
32146W        W48280   1.716  15.980  14.595 -0.0404 -0.0187 -0.2962
32147W        W48281   2.005   4.334  15.482 -0.0005 -0.0575  0.3282
32148W        W48282   7.730   9.898   5.996  0.2432 -0.3913 -0.0585
32149W        W48283  16.752   0.872  13.367 -0.0138  0.0148  0.4016
32150W        W48284  15.067   6.612   4.139 -0.1824 -0.1948  0.0056
32151W        W48285  10.354   4.677  14.474 -0.1029 -0.4121 -0.0831
32152W        W48286  12.944  17.334  15.797  0.0432 -0.3225  0.1481
32153W        W48287   2.381   3.093   0.537  0.1870 -0.1099 -0.2421
32154W        W48288  15.920  17.092   0.252 -0.0217 -0.1331  0.1522
32155W        W48289   5.549   7.400  11.555 -0.0090  0.0222 -0.0231
32156W        W48290  12.359   6.300   5.675  0.0563  0.0952 -0.2347
32157W        W48291   0.405  10.749   5.130  0.0963 -0.1785 -0.0337
32158W        W48292  11.196  12.099  13.829 -0.0187  0.4590 -0.1703
32159W        W48293  13.702  16.586  11.302 -0.2893  0.0412 -0.3620
32160W        W48294  17.915  17.385   2.849 -0.2501  0.0312  0.3952
32161W        W48295   4.738   3.879  11.789 -0.0234  0.1458 -0.0797
32162W        W48296   8.788   0.551   4.178  0.0264 -0.0229  0.0749
32163W        W48297   8.802   4.551   1.169 -0.1089  0.0767  0.1048
32164W        W48298  15.134   0.192   5.251  0.1744  0.1673 -0.0030
32165W        W48299   5.194   5.406  12.271  0.0148  0.1935  0.3800
32166W        W48300   2.989   1.791   4.741 -0.0181 -0.0431  0.3673
32167W        W48301   2.099   6.983  11.597 -0.0385 -0.0235  0.1748
32168W        W48302  16.920   4.840   3.691  0.0157  0.0055  0.1477
32169W        W48303   1.414  15.974  15.357 -0.1354  0.0347 -0.0445
32170W        W48304  10.525   2.207  12.954 -0.0401  0.0429 -0.2076
32171W        W48305  10.221  18.317  12.519 -0.0377 -0.0027  0.0183
32172W        W48306  17.263  10.252  12.537 -0.1868  0.0533  0.0906
32173W        W48307   5.472  10.043   2.122  0.3781 -0.2500 -0.0707
32174W        W48308  16.760  17.977  11.958  0.1433  0.0611 -0.0189
32175W        W48309   7.402   9.878  14.722 -0.1646 -0.0566  0.0965
32176W        W48310   9.879   7.003   2.204 -0.0293 -0.1150 -0.3007
32177W        W48311  12.718  12.208  15.349 -0.0195  0.3472 -0.0830
32178W        W48312   6.644   0.018  12.234 -0.1501 -0.1016 -0.1044
32179W        W48313   8.290   5.774  13.335  0.1966 -0.1456 -0.1063
32180W        W48314  11.726  13.778   4.690 -0.2474 -0.0327 -0.1452
32181W        W48315   8.738  16.238  12.633  0.1667 -0.3313  0.2723
32182W        W48316   8.385  11.431   1.777  0.3210  0.0602 -0.1179
32183W        W48317   4.824   4.419  13.595 -0.1484  0.1283  0.1915
32184W        W48318  10.038   4.949   1.789  0.2876 -0.0233  0.0379
32185W        W48319  12.380   9.161  11.607  0.1625  0.1358  0.2355
32186W        W48320   7.240   8.135  14.735  0.1625 -0.1077 -0.0159
32187W        W48321   7.311   8.717   5.721 -0.0832 -0.1627 -0.3903
32188W        W48322   2.362  12.665  13.852  0.1525 -0.0006 -0.1518
32189W        W48323  10.532   8.076  11.753 -0.0613  0.1812 -0.0841
32190W        W48324   9.256  16.340  12.497 -0.0987 -0.3536 -0.2604
32191W        W48325   8.127  16.714   4.020 -0.3140 -0.0667  0.2026
32192W        W48326   7.312   6.543   0.043 -0.2028 -0.0373  0.0318
32193W        W48327  13.434  10.306  12.630  0.1087 -0.0407  0.1098
32194W        W48328  16.293  10.430  14.319  0.3062 -0.2750  0.0880
32195W        W48329   5.653   8.495   5.359  0.1083  0.2388  0.2335
32196W        W48330   5.326  10.605   3.704 -0.2249  0.1405  0.1620
32197W        W48331   3.292  11.835   2.399 -0.1171  0.1412  0.2462
32198W        W48332   0.522  15.684   2.600 -0.0840 -0.0613  0.0014
32199W        W48333   6.656  13.728   1.642  0.0004  0.1510  0.3118
32200W        W48334   1.927   4.290   0.216 -0.2961  0.0891  0.0148
32201W        W48335   8.331  13.186   1.587 -0.4015  0.0199 -0.0909
32202W        W48336  14.382  18.102   5.310 -0.1138 -0.0372  0.0239
32203W        W48337   2.400  13.485   2.083 -0.0420  0.1855  0.0472
32204W        W48338  15.366   4.287  15.171 -0.0972  0.1948  0.0818
32205W        W48339   2.707  11.954   1.216  0.1681 -0.2088 -0.1366
32206W        W48340  11.179   9.794  13.784  0.3379 -0.1875  0.1650
32207W        W48341   8.256   9.662   2.822  0.0081  0.0750  0.1066
32208W        W48342  10.960  11.602   2.870 -0.0734  0.1738  0.0706
32209W        W48343  11.944   0.525  12.889  0.0953  0.0447 -0.3832
32210W        W48344   2.766   6.683  13.262  0.0858  0.3442 -0.0495
32211W        W48345   6.035   3.960  13.153 -0.2263  0.0052 -0.1034
32212W        W48346  12.715  16.634  11.247  0.2912 -0.0158 -0.1090
32213W        W48347  11.765  15.041  12.290  0.0288 -0.1275  0.0953
32214W        W48348  18.202  16.760  10.174  0.0312  0.0207  0.0664
32215W        W48349  11.303  17.306   3.006  0.3690  0.1112 -0.2576
32216W        W48350   9.771  16.071   4.326 -0.0587  0.3592 -0.0469
32217W        W48351   0.447  13.601   4.685 -0.1775  0.1423 -0.3533
32218W        W48352  13.155  18.223   2.888 -0.2273  0.0886  0.3386
32219W        W48353  13.713   5.386   1.249  0.3872  0.1151 -0.0971
32220W        W48354   8.050   0.160   4.695 -0.0182 -0.1317 -0.1108
32221W        W48355   9.043  16.150  12.991  0.1433  0.2304  0.3303
32222W        W48356   6.192   2.283  15.538  0.0568 -0.1517 -0.0017
32223W        W48357   9.093   6.051  15.099 -0.1146 -0.0998 -0.0368
32224W        W48358   2.476   3.870  15.002 -0.1130 -0.0270  0.0159
32225W        W48359   5.460  13.871  10.853 -0.1924 -0.1433  0.1802
32226W        W48360   3.375  14.908  13.164 -0.0600 -0.3267  0.1581
32227W        W48361   2.923   9.579   4.150  0.1956 -0.2855  0.0185
32228W        W48362  17.188  13.075  13.915  0.1796  0.1028  0.0452
32229W        W48363   3.125  15.866   3.578  0.2323  0.0655 -0.1604
32230W        W48364   5.164  13.169  10.648  0.0302  0.0557 -0.0215
32231W        W48365   9.610   3.339   2.226  0.1689 -0.0008  0.1530
32232W        W48366  11.134  14.534   6.256  0.1955 -0.2108 -0.1406
32233W        W48367   3.132  11.512  10.514 -0.3909  0.1756  0.0193
32234W        W48368   0.211  10.944  10.780  0.0162 -0.2152  0.3274
32235W        W48369   3.704  11.451  14.993 -0.1130 -0.0940 -0.0168
32236W        W48370   6.538   6.016  14.885  0.0347  0.2339 -0.0209
32237W        W48371   6.069  17.571   2.799 -0.0474  0.0284 -0.0787
32238W        W48372  15.476  10.665  15.820  0.2105  0.0436 -0.2530
32239W        W48373  15.638   3.191   3.079  0.2615 -0.2255  0.2044
32240W        W48374  12.309   2.783   5.697 -0.1501 -0.0412  0.0718
32241W        W48375  17.452  13.527   4.863  0.2102  0.2983 -0.2584
32242W        W48376   1.919   5.092   4.292 -0.0292 -0.0657  0.6167
32243W        W48377   7.931   3.441  12.509  0.0408  0.2776 -0.1536
32244W        W48378  18.207  11.027   3.568  0.1999  0.2143 -0.1355
32245W        W48379   4.744   9.108   2.930 -0.0360 -0.1750  0.0473
32246W        W48380  11.239   2.108  13.897 -0.2330  0.2003 -0.1644
32247W        W48381   3.847  13.931  12.337 -0.1343  0.0489  0.2900
32248W        W48382  17.701  13.428   3.091  0.1872  0.4104  0.0624
32249W        W48383   3.796  11.332  15.502  0.0496 -0.1304  0.1810
32250W        W48384   1.332  12.575  11.705 -0.1315  0.0041  0.1408
32251W        W48385  12.556   5.042  14.009 -0.0094 -0.1682 -0.4077
32252W        W48386  11.528   8.768   4.310  0.2476  0.0338 -0.1398
32253W        W48387   0.907   6.274   0.665 -0.1349 -0.1386  0.0470
32254W        W48388   5.764   3.689   0.166 -0.0999  0.0584 -0.0152
32255W        W48389   8.905  16.558  13.532 -0.0610  0.3183 -0.2389
32256W        W48390   8.809  14.490   0.042 -0.0387  0.0643 -0.1430
32257W        W48391  14.954   7.453  12.060  0.3096 -0.0611 -0.1684
32258W        W48392  16.882   0.757   0.875  0.0866  0.2525  0.1248
32259W        W48393   3.462  15.217   1.277 -0.0392 -0.1645 -0.3900
32260W        W48394   1.058   9.429  11.362 -0.1616  0.1991  0.0219
32261W        W48395   5.944  13.076   1.188 -0.2939 -0.0063 -0.0229
32262W        W48396  16.616   9.100  15.912 -0.1167 -0.0375 -0.0697
32263W        W48397   2.008  12.067  11.857 -0.1189 -0.0257  0.2305
32264W        W48398   0.496  12.534  13.750 -0.0642 -0.0600 -0.0813
32265W        W48399  17.285  12.024   0.316  0.0865 -0.2931 -0.2743
32266W        W48400   7.837   3.341   1.014  0.0558 -0.0710 -0.0962
32267W        W48401  13.225   9.928  14.176 -0.0768 -0.0376 -0.3467
32268W        W48402   8.913  10.130  11.704 -0.1711 -0.0268 -0.0872
32269W        W48403  14.463   3.265   2.275 -0.1383  0.1892  0.1102
32270W        W48404   2.166  13.206   1.453  0.0855 -0.2045  0.2666
32271W        W48405   4.258  18.245  11.160 -0.3684 -0.4267  0.1158
32272W        W48406   3.041   5.863  12.201  0.1173  0.0327 -0.0173
32273W        W48407   9.230  14.671  14.328  0.0477 -0.2026 -0.0896
32274W        W48408   4.374  15.489  15.559 -0.1014 -0.0822 -0.2659
32275W        W48409  17.590  17.222   2.543  0.2002 -0.2499  0.1509
32276W        W48410  15.563   3.960   3.929  0.0743 -0.2440 -0.0408
32277W        W48411   7.551   3.636   0.729  0.2003  0.2776  0.0237
32278W        W48412   6.984  12.129   4.234 -0.0105 -0.0844 -0.1577
32279W        W48413  11.521  14.621   3.911 -0.3050  0.1237  0.2308
32280W        W48414  15.070   5.174  12.260  0.0747 -0.2469  0.0243
32281W        W48415   3.345  13.177  12.570  0.0550 -0.4320  0.2494
32282W        W48416   9.728  14.141   2.551  0.0847  0.2441  0.0544
32283W        W48417   0.481   7.897  13.486 -0.0903  0.2849 -0.2552
32284W        W48418  15.750  11.546  12.165 -0.0147 -0.1643 -0.0616
32285W        W48419   0.091  16.572  12.062  0.1550 -0.0070 -0.1523
32286W        W48420   7.163   4.655   0.602 -0.0632 -0.0908 -0.1345
32287W        W48421  14.294   0.119   1.118  0.0120  0.1785  0.0007
32288W        W48422  10.360   7.637  11.592  0.0214 -0.3902  0.2792
32289W        W48423  17.263   5.848   4.714  0.2497  0.1263  0.2728
32290W        W48424  11.340  16.742   0.869  0.1235 -0.1393 -0.0171
32291W        W48425  14.619  15.436   2.986 -0.1968  0.1508  0.1019
32292W        W48426   5.562   2.093   1.311 -0.0719 -0.1040 -0.0519
32293W        W48427  15.444  16.968   3.776  0.0361 -0.0750 -0.0590
32294W        W48428  11.376   2.724  14.058 -0.1741  0.2488 -0.0079
32295W        W48429  14.460  18.171  11.333  0.3018 -0.0886  0.4209
32296W        W48430   0.104   0.012  14.192 -0.0801 -0.0226 -0.2991
32297W        W48431  12.922  13.096   0.335 -0.1547 -0.1557 -0.0396
32298W        W48432  14.505  10.062   3.055 -0.2922  0.1378  0.0460
32299W        W48433   0.560  13.323   0.602 -0.1617 -0.0395 -0.0091
32300W        W48434   1.040   6.228  15.473 -0.1145 -0.0981  0.2120
32301W        W48435  11.773   7.388  11.268  0.1319  0.0028  0.0593
32302W        W48436  11.506  15.410   4.569  0.0982 -0.1955  0.0765
32303W        W48437  11.618   8.987   2.162  0.0601  0.1321 -0.0386
32304W        W48438  18.300   5.290   3.629 -0.0453  0.2867  0.0858
32305W        W48439  14.003  15.985  10.738 -0.0004  0.1410  0.1237
32306W        W48440   1.667  11.673   1.777  0.2833  0.2151 -0.0888
32307W        W48441  15.494  15.740   2.490  0.0513 -0.2361  0.0698
32308W        W48442   5.773   4.329  10.890  0.1351 -0.0644 -0.1092
32309W        W48443   2.326   3.991  11.399  0.2809 -0.2841  0.0331
32310W        W48444   1.032   4.552  12.062 -0.0096 -0.1179 -0.2461
32311W        W48445   4.479   2.410  12.265 -0.1187  0.2130  0.1081
32312W        W48446  13.446  14.473  15.831 -0.0384  0.2263  0.1210
32313W        W48447  10.271  14.005  12.161 -0.1796 -0.2440 -0.2144
32314W        W48448   7.961   6.377   5.660 -0.1188 -0.3047 -0.1559
32315W        W48449  14.762  12.307   3.422  0.0755 -0.2180  0.0042
32316W        W48450  17.170   9.694   4.899  0.0397 -0.0723 -0.2602
32317W        W48451  12.158  16.390   4.990 -0.2175  0.1017 -0.2613
32318W        W48452   8.990   4.443  13.422 -0.1132  0.0134 -0.1223
32319W        W48453   8.651   2.664  14.552  0.1107 -0.0844  0.4118
32320W        W48454   0.288  13.406  13.245 -0.1277 -0.1778  0.2185
32321W        W48455   7.474  17.932  14.701 -0.1940 -0.3769 -0.3389
32322W        W48456   3.741   9.704   3.915 -0.2515 -0.0942  0.1029
32323W        W48457  12.010  14.214   0.628  0.0549  0.0038  0.0835
32324W        W48458  17.284  16.729   0.786 -0.1740  0.0548 -0.4121
32325W        W48459   7.270   9.195  13.442  0.1776 -0.0168  0.0636
32326W        W48460   0.018   6.355   1.094  0.2471  0.0292 -0.1579
32327W        W48461   6.965  15.338  14.700  0.2047 -0.0260  0.2244
32328W        W48462   5.112  11.201   0.923 -0.1340  0.0125 -0.0951
32329W        W48463   1.819   0.797   2.490  0.0636  0.1775 -0.1582
32330W        W48464  13.463   4.772  11.500 -0.0231 -0.0246  0.2162
32331W        W48465   1.648  16.012  12.730 -0.2521 -0.2615 -0.2728
32332W        W48466  11.702  12.523   3.740  0.1944 -0.2632 -0.1774
32333W        W48467  16.977  14.822   3.892  0.1415  0.1288  0.0133
32334W        W48468  17.106   3.730  11.068  0.0404  0.0558  0.1847
32335W        W48469   2.603   1.292  14.999  0.4859 -0.2811 -0.0303
32336W        W48470  14.847  17.164   3.640  0.3106 -0.2143 -0.0948
32337W        W48471   8.446   8.033  15.446 -0.0004 -0.0997 -0.0916
32338W        W48472  13.559  10.456  13.354  0.2640  0.0732  0.1103
32339W        W48473   3.383  15.542  14.763 -0.1495  0.1209 -0.1704
32340W        W48474  17.970  13.214  13.412 -0.1187  0.1759 -0.2389
32341W        W48475   7.883  15.010   0.771 -0.1537  0.0584  0.4109
32342W        W48476   1.079  10.881  11.628 -0.2378 -0.0137 -0.1526
32343W        W48477   8.406   3.809  15.712 -0.1733 -0.5434 -0.0446
32344W        W48478   4.736   4.506   2.617  0.3606 -0.1245  0.0176
32345W        W48479  11.159   7.621  12.880  0.1850 -0.1776  0.0642
32346W        W48480   4.759  17.863   0.270  0.1882 -0.3336 -0.3862
32347W        W48481   5.114  10.922   5.037  0.0482 -0.1165  0.1017
32348W        W48482  14.691  16.421  15.620 -0.1366  0.3611 -0.4039
32349W        W48483  17.667  11.253   2.964 -0.1847 -0.0602  0.1121
32350W        W48484   8.874   7.986  12.630 -0.3367  0.1689 -0.0253
32351W        W48485  12.939   9.128   4.852  0.3383  0.1693 -0.3764
32352W        W48486   6.027  11.850   0.445  0.1056  0.0445 -0.0947
32353W        W48487   4.638  18.008   1.587 -0.2352 -0.0814 -0.1708
32354W        W48488   7.101   8.925  15.047 -0.0036 -0.0665  0.0865
32355W        W48489  15.630  12.065   2.832  0.0144 -0.0937  0.1931
32356W        W48490  16.200   2.849  14.170  0.1262 -0.2234  0.0706
32357W        W48491  13.108  14.038  11.597 -0.2136  0.3046  0.2103
32358W        W48492   8.185   4.828   3.788 -0.2832  0.0296  0.2635
32359W        W48493   5.550   5.744  13.486 -0.3303  0.0520 -0.1817
32360W        W48494  13.525   8.310  14.234  0.1980  0.0604 -0.1138
32361W        W48495  14.932   6.151   5.074 -0.1600 -0.3684  0.0150
32362W        W48496   9.868   8.515  15.443 -0.2261 -0.4507 -0.0279
32363W        W48497  11.835  15.447   0.526  0.2503 -0.0451 -0.1907
32364W        W48498   3.206  10.938  10.043  0.0408  0.1719 -0.1346
32365W        W48499  12.245   3.045   0.657  0.2063 -0.1933 -0.2547
32366W        W48500  15.133   1.511  12.778 -0.2079  0.0594  0.4526
32367W        W48501  13.174   1.507   5.000  0.2731 -0.0238  0.1691
32368W        W48502   3.368  16.778   3.868 -0.1207  0.1473 -0.1373
32369W        W48503   7.664   1.103  15.549  0.1476  0.0999 -0.0346
32370W        W48504   8.521   9.807  13.267  0.2327 -0.2304 -0.2063
32371W        W48505  15.606   1.744  14.013 -0.0766  0.0371 -0.2566
32372W        W48506  18.382   1.122  13.206 -0.0927  0.1771 -0.2726
32373W        W48507   2.763   7.265   3.764  0.2262 -0.0969 -0.1691
32374W        W48508   6.437   7.379   3.805 -0.0615  0.4128  0.0800
32375W        W48509   7.036   3.617  13.160 -0.1994  0.1016  0.1260
32376W        W48510   6.784  13.935  15.448 -0.1268 -0.1563 -0.0629
32377W        W48511   5.540  17.790  10.435  0.2045 -0.1246 -0.1633
32378W        W48512  15.229  11.260  15.692  0.2723 -0.1783 -0.0035
32379W        W48513   2.809   1.719   3.630  0.4617  0.1039  0.2675
32380W        W48514   0.376   9.505   0.747  0.2294 -0.1021 -0.1523
32381W        W48515   7.267   8.599   4.306  0.2012  0.4132 -0.1264
32382W        W48516  17.782   9.411  13.814 -0.1188 -0.2010 -0.0065
32383W        W48517   1.810   0.217  14.517 -0.2016  0.0112  0.0189
32384W        W48518   5.770   5.240   5.276 -0.1817 -0.2191 -0.1995
32385W        W48519  10.821  10.687   0.947 -0.2101  0.1327  0.2876
32386W        W48520  17.600   2.473   2.103 -0.0395  0.0708 -0.0554
32387W        W48521   2.623   8.336   1.932 -0.0668  0.0826 -0.1411
32388W        W48522  12.941  11.261   0.267  0.0691 -0.1646  0.2035
32389W        W48523   4.572  16.105  11.608  0.0254 -0.0279 -0.1068
32390W        W48524  17.080   6.229  11.801  0.0311 -0.1167  0.1725
32391W        W48525  15.546   2.978  11.357  0.5638  0.0889 -0.1096
32392W        W48526  12.610   4.539   3.742  0.2647 -0.1539 -0.1357
32393W        W48527   3.247   3.898   4.681  0.1249 -0.0583 -0.0938
32394W        W48528  16.198  12.118   3.348 -0.0076 -0.0521 -0.3928
32395W        W48529  11.133  17.502  12.344 -0.1223 -0.0848 -0.0963
32396W        W48530   7.697  16.160   5.251  0.0498  0.0889 -0.3932
32397W        W48531   3.733   6.252   3.585 -0.0913  0.0586 -0.1702
32398W        W48532  10.565  16.599   0.332  0.3248 -0.0900  0.2784
32399W        W48533   4.403  16.627   2.091 -0.3029 -0.0695 -0.5768
32400W        W48534   2.343  17.480  10.567  0.1097 -0.2741  0.2591
32401W        W48535   6.678   0.493   1.436  0.3988  0.0809  0.1715
32402W        W48536   7.516   9.768   2.711 -0.0553  0.3827 -0.1112
32403W        W48537   3.025  15.117  15.325  0.1287  0.3735  0.1971
32404W        W48538  13.648  12.447  14.386 -0.3458 -0.2458 -0.0695
32405W        W48539   2.674  15.645   3.470 -0.0278 -0.0544 -0.0056
32406W        W48540   3.823  11.344   3.276 -0.0436  0.5661  0.2265
32407W        W48541  15.600   3.866  14.325 -0.1749  0.1177  0.0742
32408W        W48542  17.275   7.104   0.557  0.1499  0.2340  0.2610
32409W        W48543  18.316   6.191  10.922 -0.4771 -0.1218 -0.1218
32410W        W48544   7.407   7.178  15.918 -0.3662  0.3661 -0.1863
32411W        W48545  14.633   9.639   3.290  0.4927  0.3136 -0.0351
32412W        W48546   6.537  10.381  10.669 -0.0117 -0.0845 -0.3091
32413W        W48547  10.502  15.548   0.789 -0.0666  0.1200 -0.0880
32414W        W48548   9.201   4.318  11.485 -0.2463  0.1314 -0.1518
32415W        W48549   1.440  17.037  14.650  0.0854 -0.5557 -0.0841
32416W        W48550   8.941   5.673  14.826  0.2421 -0.2896 -0.0197
32417W        W48551   9.334  15.787   2.871  0.1289 -0.2390  0.0733
32418W        W48552  15.521   0.962   1.523  0.2895  0.1347 -0.0100
32419W        W48553  11.717   9.012   0.730 -0.0607 -0.0028 -0.2503
32420W        W48554   5.675   7.595   0.433 -0.0145  0.0649 -0.0003
32421W        W48555  15.561  18.207  14.286  0.3662 -0.0400  0.4930
32422W        W48556  10.812   1.483  15.954 -0.1094 -0.1969 -0.1652
32423W        W48557   4.934  16.515  11.583 -0.1112 -0.0883  0.1502
32424W        W48558  12.725  14.417   4.862  0.1261  0.0226 -0.0696
32425W        W48559  15.288  16.031  15.042  0.2325  0.0291 -0.3070
32426W        W48560  14.876  18.201   5.274 -0.0101  0.0673 -0.0624
32427W        W48561  12.942  13.182   3.438 -0.0798  0.0690  0.1089
32428W        W48562  10.117   3.731  14.163  0.0208 -0.1044  0.4154
32429W        W48563   3.381  17.519  12.232 -0.2651  0.1499 -0.0423
32430W        W48564  13.554  10.086   4.668 -0.0919  0.3620  0.2952
32431W        W48565  12.908   4.205   4.549  0.1881  0.0300 -0.0475
32432W        W48566  15.931  14.152   5.074 -0.1780 -0.0348 -0.2232
32433W        W48567   8.490   9.269   6.217  0.0400 -0.0847  0.1912
32434W        W48568   7.710   4.339   4.896 -0.0035 -0.0749  0.1809
32435W        W48569  17.554  11.477   2.437  0.3326 -0.2178  0.2703
32436W        W48570  12.073   7.631  11.636  0.0274  0.0392  0.1263
32437W        W48571   4.831   8.434   3.536  0.0780 -0.0872  0.0406
32438W        W48572  17.137   6.806  12.859 -0.2698 -0.0292 -0.1503
32439W        W48573   2.988  18.316  13.986 -0.0217  0.1936  0.0213
32440W        W48574   9.876   7.899  12.514 -0.0568 -0.0843  0.0722
32441W        W48575  16.714   6.934  14.026  0.1680  0.1581  0.0090
32442W        W48576  10.651  17.291  15.284  0.0615 -0.1485 -0.1277
32443W        W48577  16.591  12.498  15.986 -0.0624  0.1062 -0.0716
32444W        W48578   9.977  14.716   4.034  0.2489 -0.0916 -0.2288
32445W        W48579  11.134  17.010   0.497 -0.1498  0.0139 -0.1363
32446W        W48580   5.590  10.987   2.912 -0.0161  0.0774  0.0162
32447W        W48581   5.152  12.341  15.658  0.1766  0.0628 -0.2068
32448W        W48582   0.625   2.111  15.439 -0.0548  0.1613  0.1519
32449W        W48583  14.043   7.039  13.605  0.2414  0.2579 -0.0584
32450W        W48584  16.196  12.251  13.808  0.0935  0.2929 -0.1369
32451W        W48585  16.051  16.997  13.152  0.3567 -0.2346 -0.1111
32452W        W48586  15.751   1.430   1.423  0.0692  0.2405 -0.0106
32453W        W48587  16.491   5.809   2.717 -0.0653 -0.1649 -0.0473
32454W        W48588  12.071  14.156   6.074  0.2947 -0.2125  0.2363
32455W        W48589  14.746  10.056   3.483  0.2006  0.2122 -0.0404
32456W        W48590   5.254  11.071   4.437 -0.0882  0.2136  0.0917
32457W        W48591  16.585   4.251  13.153 -0.0583  0.1118 -0.2782
32458W        W48592   8.053  17.191  14.913  0.0698  0.3513 -0.0172
32459W        W48593  12.481  12.685  15.160 -0.0099 -0.1723  0.1788
32460W        W48594   6.605   6.632  13.127  0.0748 -0.0709 -0.0881
32461W        W48595  11.952   4.148   1.103  0.1096 -0.2165 -0.1368
32462W        W48596   5.638   6.162  13.884 -0.4146  0.2172  0.1037
32463W        W48597  11.827   3.907  14.579 -0.1806  0.0332  0.1649
32464W        W48598   5.989  13.417  15.073  0.0885 -0.0200  0.0501
32465W        W48599   6.921   9.084   2.034 -0.1116  0.0787 -0.0559
32466W        W48600   1.942  12.242  13.926  0.0936  0.0719 -0.1577
32467W        W48601   7.106  18.106  13.768  0.2076 -0.0096  0.0180
32468W        W48602   2.344  17.668   0.609  0.3762  0.1024  0.0842
32469W        W48603   6.497   5.498   0.026 -0.3500  0.3151  0.1075
32470W        W48604  15.164   9.183  13.020 -0.1347  0.1328 -0.1736
32471ION     NA48605   8.328   8.976   5.254 -0.0576  0.1530  0.0978
32472ION     NA48606  15.447  12.981  10.297  0.1729  0.1506 -0.1299
32473ION     NA48607  11.115  15.322  10.878  0.0092 -0.1769 -0.4414
32474ION     NA48608   5.913  12.036  11.606  0.0477 -0.0125 -0.0850
32475ION     NA48609   5.635  10.292   1.205 -0.0635 -0.1495  0.1153
32476ION     NA48610   7.505   9.314  10.282  0.0672  0.1497 -0.0697
32477ION     NA48611   9.901   4.746  11.055  0.2818 -0.1255 -0.1967
32478ION     NA48612  12.834  13.670  10.799  0.1392  0.1973 -0.1706
32479ION     NA48613   2.014   6.758  13.163  0.1226  0.2622  0.4585
32480ION     NA48614  17.202  10.017  13.974  0.1446  0.0916 -0.1114
32481ION     NA48615   9.776   8.492   5.978 -0.1529 -0.0032  0.1396
32482ION     NA48616   4.224  11.355  14.381 -0.0320  0.2785  0.0980
32483ION     NA48617  13.646   1.729  10.620 -0.2080 -0.2293 -0.1235
32484ION     NA48618   7.991  11.587  10.596  0.0008  0.1962 -0.1288
32485ION     NA48619  14.118   0.865  15.275 -0.0652 -0.0841 -0.2249
32486ION     NA48620   9.977  17.710   3.395 -0.0976  0.0053 -0.1857
32487ION     NA48621   1.470   3.330   5.803 -0.3273  0.0475  0.2176
32488ION     NA48622   0.324  14.510   4.640 -0.0385 -0.0996  0.1218
32489ION     NA48623   7.408   9.753   0.882 -0.0103 -0.1476  0.1288
32490ION     NA48624  11.234  17.460  10.584 -0.0005 -0.0164 -0.1794
32491ION     NA48625   3.415   3.396  10.595 -0.1472  0.0410  0.1174
32492ION     NA48626  13.478  18.347   5.594 -0.0640 -0.0521  0.2066
32493ION     NA48627   6.023   7.603  10.327 -0.0884 -0.1199 -0.1858
32494ION     NA48628  16.936  12.724   9.893  0.0289  0.0100 -0.0446
32495ION     NA48629  12.399  12.862  10.736  0.0528  0.3337 -0.1532
32496ION     NA48630  11.307  11.640  11.217 -0.0621 -0.0382 -0.0140
32497ION     NA48631   2.710   7.081   9.925  0.1347  0.0061  0.4000
32498ION     NA48632   3.225   1.575  10.376 -0.1008  0.1525  0.0460
32499ION     NA48633  11.236   4.629  10.935  0.0917  0.0073  0.0551
32500ION     NA48634   3.550   6.018   9.949  0.1178  0.2997  0.3870
32501ION     NA48635   1.246   7.302  11.250 -0.2029 -0.2338  0.0124
32502ION     NA48636   1.697   7.374   3.206  0.0733 -0.4034  0.1747
32503ION     NA48637   4.083   2.049   6.067  0.0165 -0.4131 -0.1158
32504ION     NA48638   6.340  14.404  15.672 -0.1483 -0.1122  0.0097
32505ION     NA48639  16.071   1.837  10.287 -0.0618 -0.0005  0.4848
32506ION     NA48640   8.606   8.431  11.467 -0.1437  0.2582  0.0458
32507ION     NA48641  14.486   2.554  11.632 -0.1455 -0.3076 -0.0015
32508ION     NA48642   3.260   5.096  14.990  0.0340 -0.0094  0.1562
32509ION     NA48643   0.791   1.103   1.021 -0.0479  0.2163  0.2703
32510ION     NA48644   6.905   9.928  13.338  0.1124  0.2984 -0.2524
32511ION     NA48645   6.694  16.874   4.843 -0.2118  0.3132  0.4722
32512ION     NA48646   4.151  11.949  12.813 -0.3999 -0.1063 -0.0506
32513ION     NA48647   7.964  16.838  11.430 -0.0079 -0.1137  0.1867
32514ION     NA48648   4.925  11.847   5.406  0.0063 -0.1476  0.2175
32515ION     NA48649   6.229   2.470  13.651  0.1801  0.0971 -0.1510
32516ION     NA48650   2.916   7.111   5.489 -0.1173  0.0668  0.1066
32517ION     NA48651   8.452   2.559  10.645  0.1208  0.0198  0.1465
32518ION     NA48652   5.178   2.131  10.085  0.3353  0.0774  0.6597
32519ION     NA48653  13.695   8.223   1.891 -0.0030 -0.0128 -0.3772
32520ION     NA48654  10.217   6.311  10.824 -0.1166 -0.0730 -0.2093
32521ION     NA48655  16.099  18.378   2.496 -0.2913 -0.2448 -0.1259
32522ION     NA48656   2.851   2.153  10.643  0.3455  0.1225  0.4219
32523ION     NA48657   9.581   3.343   1.300  0.0111  0.1288 -0.0618
32524ION     NA48658   6.338  15.080   3.869 -0.2006  0.1046 -0.1380
32525ION     NA48659   9.444   0.335  11.089  0.0586  0.4399  0.0165
32526ION     NA48660   3.607   7.822  15.424  0.0241 -0.0794  0.1487
32527ION     NA48661   1.803   3.796  10.590 -0.2919 -0.2387  0.0163
32528ION     NA48662  14.953   4.719  10.455 -0.1341  0.0204 -0.0765
32529ION     NA48663   5.442  16.837  10.903  0.1459  0.1656  0.3009
32530ION     NA48664   5.211   6.490  14.997 -0.2007 -0.1281  0.1507
32531ION     NA48665  14.170   6.054  10.907 -0.0014 -0.1505 -0.1100
32532ION     NA48666   1.164   5.435  13.421  0.2847 -0.2031  0.3083
32533ION     NA48667  18.125   8.710   2.010 -0.0339 -0.2494  0.0794
32534ION     NA48668  11.700   4.701   2.270  0.2836  0.0802 -0.1143
32535ION     NA48669  15.554  15.154  10.021 -0.0494 -0.1333 -0.0402
32536ION     NA48670  14.922  10.184  10.467  0.0712  0.0886 -0.0566
32537ION     NA48671   7.353   7.447  10.649  0.1971 -0.2772 -0.1568
32538ION     NA48672  16.953   3.948   9.816 -0.1596  0.2600  0.0564
32539ION     NA48673   7.546   4.847  10.798  0.1619  0.2839  0.0428
32540ION     NA48674   1.516   7.969   5.326 -0.3747 -0.2577  0.1528
32541ION     NA48675   4.981   3.782  10.208  0.0647  0.3254  0.2278
32542ION     NA48676   6.530   7.717  10.318 -0.0378 -0.0954  0.5177
32543ION     NA48677  12.956   9.097  10.711 -0.1622  0.0531 -0.3583
32544ION     NA48678  11.085  10.911   6.063 -0.1434 -0.3687 -0.0053
32545ION     NA48679   1.700   0.300   5.579  0.0593  0.2517 -0.0336
32546ION     NA48680   0.733   2.188  10.317 -0.0634  0.0409  0.0272
32547ION     NA48681  16.400   9.769  10.089 -0.0217  0.2419  0.1525
32548ION     NA48682   4.381   1.353  11.735  0.2632  0.2510 -0.2233
32549ION     NA48683  16.005  11.851   5.532  0.2116  0.7012 -0.1444
32550ION     NA48684   0.881   4.850  12.490 -0.0519 -0.0819 -0.0937
32551ION     NA48685   8.104   1.598  10.595  0.2063  0.3815  0.0113
32552ION     NA48686   9.670  16.998  11.600  0.3705  0.0562  0.1255
32553ION     NA48687  18.360  18.279   9.795  0.3574 -0.1140  0.0710
32554ION     NA48688  10.499   2.977  10.688 -0.0745 -0.6284 -0.0660
32555ION     NA48689  12.486  17.328   0.435  0.1241 -0.2068 -0.1004
32556ION     NA48690   3.077  15.937   9.787  0.1002  0.3890 -0.0759
32557ION     NA48691  10.383   1.831   6.531  0.0421 -0.0363  0.3347
32558ION     NA48692  17.364  14.280   2.640  0.1220 -0.1474 -0.1022
32559ION     NA48693  12.155  17.325  10.672  0.3162 -0.0047  0.0965
32560ION     NA48694  13.919   2.659  10.689 -0.1026 -0.3279  0.3557
32561ION     NA48695   0.507  18.158  14.126  0.3205  0.0977  0.0522
32562ION     NA48696  10.751  16.915  10.993 -0.0534 -0.1617 -0.0980
32563ION     NA48697   5.331   2.564   5.512 -0.0931  0.0260 -0.4918
32564ION     NA48698   7.479  13.531  10.892 -0.0402  0.2175  0.0717
32565ION     NA48699   3.327  14.133  15.481 -0.0448  0.1251  0.0036
32566ION     NA48700  12.035  11.539  10.656 -0.3369  0.0436 -0.0532
32567ION     NA48701  11.118  17.942  12.619  0.0535 -0.3718  0.2924
32568ION     NA48702  14.241   7.111  10.510  0.2362 -0.1808  0.0013
32569ION     NA48703  17.046  15.113   9.769  0.1444 -0.1381 -0.0674
32570ION     NA48704   9.976  14.514  10.854 -0.2410  0.0587  0.1070
32571ION     NA48705   3.550  10.275   3.094 -0.0881 -0.1375 -0.0547
32572ION     NA48706   4.667  16.662  10.156  0.1382  0.3325  0.2452
32573ION     NA48707   3.032   1.066  10.451  0.0609  0.2194  0.0176
32574ION     NA48708  17.577   4.536   9.737 -0.0863 -0.0539  0.2468
32575ION     NA48709  14.683  16.278   3.926  0.0421  0.3947 -0.1305
32576ION     NA48710   1.002   4.246   9.945 -0.3304 -0.2800 -0.1334
32577ION     NA48711  14.848   2.179  15.900 -0.1860 -0.2680  0.0951
32578ION     NA48712  16.730  16.924   2.590 -0.1325 -0.0639 -0.1718
32579ION     NA48713  11.492  13.342   3.400  0.0628 -0.0037 -0.1157
32580ION     NA48714   4.104   1.865  12.780 -0.1576 -0.0109  0.0474
32581ION     NA48715   4.048  13.502  10.544 -0.1441  0.0660 -0.0772
32582ION     NA48716   4.352  11.721   9.729  0.1405 -0.2347 -0.0915
32583ION     NA48717  10.448   2.860  11.150  0.1051  0.3037 -0.1555
32584ION     NA48718   4.865   0.704  10.361  0.0266 -0.0665 -0.1021
32585ION     NA48719  14.396   5.072  10.574 -0.0477  0.3704  0.1971
32586ION     NA48720   7.368   3.156  15.130  0.2367  0.1183  0.1408
32587ION     NA48721  16.052   4.458  10.099  0.2387  0.2595  0.0222
32588ION     NA48722  11.012   8.406  10.572 -0.0250  0.0560 -0.0903
32589ION     NA48723   1.627   6.339   9.634 -0.0507 -0.1680 -0.2061
32590ION     NA48724   9.695  11.558  10.580  0.1275  0.0517  0.0508
32591ION     NA48725   3.298  10.893  16.039 -0.2581 -0.1570  0.1614
32592ION     NA48726  16.428  13.546   9.620  0.4382 -0.3218  0.0660
32593ION     NA48727   5.906  10.659  10.414 -0.0128  0.0358  0.0432
32594ION     NA48728  10.336   7.195  10.706 -0.1009  0.0375 -0.0845
32595ION     NA48729  17.042   7.537   9.776 -0.0815 -0.0349  0.1022
32596ION     NA48730   6.506   3.943  10.414  0.2853  0.0900  0.0188
32597ION     NA48731   6.363  12.117  10.628 -0.1539  0.0482  0.0659
32598ION     NA48732   5.933  12.952  10.120  0.1683  0.0753 -0.1533
32599ION     NA48733   9.316   8.123  10.388  0.3519  0.2239  0.2967
32600ION     NA48734   9.029  15.390  15.579  0.1629  0.3796  0.0673
32601ION     NA48735   5.373  16.016  11.653 -0.0019  0.1337  0.2349
32602ION     NA48736  10.637   0.879  10.664 -0.0066 -0.0854  0.2913
32603ION     NA48737   8.426   4.629  10.797  0.0252  0.2265 -0.1364
32604ION     NA48738  14.123   2.728   6.148  0.0569 -0.3731 -0.0232
32605ION     NA48739   6.225  13.994   2.679  0.0388  0.0226 -0.0345
32606ION     NA48740  15.560   2.967  10.369 -0.2198 -0.4196 -0.0490
32607ION     NA48741  13.272  14.349   5.913  0.3799 -0.0814  0.0851
32608ION     NA48742   3.474  16.419  13.174  0.0150  0.1401 -0.1818
32609ION     NA48743   6.215  12.606   5.451 -0.1379 -0.2309 -0.1385
32610ION     NA48744   3.205   8.891  14.241  0.0073 -0.2029 -0.1532
32611ION     NA48745   3.255   8.120   9.756  0.0118  0.2403 -0.1859
32612ION     NA48746  13.331   3.711   3.578 -0.0674  0.2190  0.1029
32613ION     NA48747  14.243   3.459  10.546 -0.1857  0.2555  0.1326
32614ION     NA48748   3.645  12.497   9.737 -0.0071 -0.1104  0.0549
32615ION     NA48749  14.636   6.320   5.953 -0.1917 -0.1348  0.0411
32616ION     NA48750  15.726  14.744  14.959 -0.2419  0.0448  0.1438
32617ION     NA48751   1.251   4.439  13.868  0.2625  0.2432 -0.1425
32618ION     NA48752   0.396  11.820  10.974  0.1764  0.0984  0.0797
32619ION     NA48753   2.587  17.094  10.033  0.1140  0.1760  0.1520
32620ION     NA48754  17.064   5.152   1.245 -0.0929  0.2217  0.1800
32621ION     NA48755   5.813  13.418   5.413  0.3506  0.0075 -0.0727
32622ION     NA48756   1.629   6.389   4.073  0.2815  0.0298  0.0164
32623ION     NA48757  13.438  12.891  10.436  0.1383  0.3047  0.2453
32624ION     NA48758   8.155   0.439  10.667 -0.1755  0.1283 -0.2059
32625ION     NA48759   3.072   5.588   9.986 -0.2167 -0.0407 -0.1022
32626ION     NA48760   0.778  11.312   9.573  0.0848 -0.0420 -0.3020
32627ION     NA48761  14.695  18.203  10.409  0.3326  0.0683  0.0096
32628ION     NA48762   2.978   5.670   3.274 -0.2365  0.0475 -0.0929
32629ION     NA48763   3.395  13.375   9.761 -0.1022  0.2240 -0.0949
32630ION     NA48764  14.324   2.564   0.993  0.1780 -0.0851 -0.0133
32631ION     NA48765   7.989  12.734  10.499 -0.1093  0.2987 -0.0141
32632ION     NA48766   9.993  13.698   6.278 -0.5398 -0.0423  0.2228
32633ION     NA48767   5.731   1.224  10.354  0.0954 -0.1633  0.0479
32634ION     NA48768   4.502   9.508   1.015 -0.0894  0.1381 -0.3249
32635ION     NA48769   4.220  15.887  10.016  0.0387  0.3754  0.3091
32636ION     NA48770   0.377   7.299   2.299 -0.1190  0.0261  0.0120
32637ION     NA48771  18.151  11.557   0.907 -0.1518  0.0997 -0.0843
32638ION     NA48772  15.881   6.447  14.126  0.4007  0.2334 -0.0582
32639ION     NA48773   7.486   5.788  10.674  0.3159 -0.2089  0.1751
32640ION     NA48774  14.895   1.786   5.740 -0.0147 -0.1330 -0.1379
32641ION     NA48775   5.226  13.275   9.671 -0.3258 -0.1359  0.1742
32642ION     NA48776  14.791   7.189  14.002 -0.1300 -0.2545  0.0622
32643ION     NA48777  14.491  14.850  12.378 -0.0995 -0.0984 -0.1541
32644ION     NA48778  16.610  16.471  10.029 -0.1562 -0.1636  0.1333
32645ION     NA48779  18.447   0.692   9.825  0.0551  0.0123  0.2117
32646ION     NA48780   1.968  16.885  14.645  0.2497 -0.2854 -0.2620
32647ION     NA48781   0.348  14.591   9.848  0.0578  0.1575 -0.1949
32648ION     NA48782  12.657   3.216   5.818 -0.0925 -0.0084 -0.0875
32649ION     NA48783   6.900   7.295  12.687  0.0424  0.0550 -0.0035
32650ION     NA48784   2.885  13.500   5.455 -0.2950  0.0564  0.0086
32651ION     NA48785  18.102   6.301   5.521 -0.0121  0.0806 -0.1910
32652ION     NA48786   7.160   0.501  12.429 -0.0692  0.1751 -0.2613
32653ION     NA48787  15.430  16.926  10.191 -0.5403  0.2411 -0.2990
32654ION     NA48788  16.177  10.798   9.840 -0.0661  0.1164  0.2400
32655ION     NA48789   6.661  17.943   5.964 -0.0536 -0.2245  0.0573
32656ION     NA48790   0.106  14.112   2.616  0.1607 -0.3476  0.0643
32657ION     NA48791   7.111   0.639   5.548 -0.1663 -0.0024  0.3279
32658ION     NA48792   8.891   1.019  10.840 -0.2799  0.0444 -0.0037
32659ION     NA48793  10.987  15.858  10.839  0.1576 -0.0190 -0.2503
32660ION     NA48794   7.623   6.687  10.768  0.0013 -0.0442 -0.0313
32661ION     NA48795  11.323  12.105  10.564 -0.1247 -0.1989 -0.2003
32662ION     NA48796   6.895  10.392  10.346  0.2658  0.1893 -0.5045
32663ION     NA48797   6.725  15.129  10.332  0.0191  0.0319  0.1167
32664ION     NA48798   0.992   0.424   4.307 -0.1703 -0.0371 -0.1865
32665ION     NA48799  12.930   1.532  10.320  0.4115 -0.3290 -0.1537
32666ION     NA48800   5.852  16.965   6.203  0.1488  0.1081  0.2312
32667ION     NA48801  12.059   6.480   3.774  0.1095 -0.1803 -0.5183
32668ION     NA48802  17.903   9.086  12.801  0.1520 -0.2042  0.2216
32669ION     NA48803  12.593   7.304  10.745  0.3707 -0.0267  0.2423
32670ION     NA48804  10.094   0.950  11.733 -0.0350  0.1176  0.1484
32671ION     NA48805   7.550   2.362  10.635  0.0835 -0.0343 -0.2466
32672ION     NA48806  14.618   5.642   3.677 -0.1670 -0.2006  0.1296
32673ION     NA48807   4.683   1.747  11.095  0.1476  0.0448 -0.1945
32674ION     NA48808  11.957   5.709  10.632  0.2739  0.2063  0.0090
32675ION     NA48809   7.866  14.513  10.971 -0.0356  0.0716  0.1166
32676ION     NA48810  13.003  14.633  10.424  0.1920 -0.1950 -0.2064
32677ION     NA48811  14.828  12.270  15.700  0.2104 -0.0532  0.0314
32678ION     NA48812   6.679  13.423  10.190  0.0169  0.0440 -0.0219
32679ION     NA48813   8.674  13.701   3.904 -0.1126  0.0114  0.2473
32680ION     NA48814   2.929   1.689   4.205  0.0542  0.2512  0.3763
32681ION     NA48815   1.625  11.255   9.978 -0.4213 -0.0034  0.0323
32682ION     NA48816  13.293  17.586  13.360  0.0364 -0.1131 -0.3918
32683ION     NA48817  13.168   6.330  10.587  0.0527  0.1613 -0.4218
32684ION     NA48818  17.596  10.449   5.375  0.0175  0.2880 -0.1778
32685ION     NA48819  12.047  13.172  11.264 -0.0856 -0.2104  0.3060
32686ION     NA48820  15.246   1.749   2.378  0.1797 -0.1251 -0.1508
32687ION     NA48821  12.175  11.853  14.701  0.0691  0.0866 -0.0978
32688ION     NA48822  11.833  10.145  10.649 -0.2483  0.0116  0.2420
32689ION     NA48823  14.164  17.264  10.158  0.1369  0.2097  0.1480
32690ION     NA48824   0.758  17.292  10.075  0.3465 -0.1909  0.5267
32691ION     NA48825  15.382   0.998  12.170 -0.2292 -0.0161 -0.0685
32692ION     NA48826  14.807  12.385   2.899 -0.3022 -0.0897 -0.0238
32693ION     NA48827   4.762  11.120   2.584  0.2393 -0.1400 -0.0217
32694ION     NA48828   6.830  11.183  10.313 -0.0278  0.1945  0.0304
32695ION     NA48829  12.789  15.829  10.569 -0.0398  0.0614 -0.2938
32696ION     NA48830   7.351   8.273   5.461  0.2198  0.1762 -0.0323
32697ION     NA48831   4.321  18.326  15.252 -0.4440  0.0865 -0.2927
32698ION     NA48832   5.703  10.222  10.515 -0.3114  0.2140  0.2655
32699ION     NA48833   6.867   5.935   1.204  0.2241 -0.1781  0.1999
32700ION     NA48834   2.996   7.695   3.627 -0.1892  0.2778 -0.1014
32701ION     NA48835  17.922   8.722   9.480 -0.1056  0.0673  0.0319
32702ION     NA48836  17.066   6.623   9.653 -0.3414 -0.1502 -0.1308
32703ION     NA48837   2.843   3.602  12.685  0.0335  0.1638  0.1104
32704ION     NA48838  15.109   7.203  10.446 -0.1389  0.1492 -0.0062
32705ION     NA48839   3.802   4.261  10.299 -0.2089 -0.1777 -0.1304
32706ION     NA48840  10.261   0.006  10.710  0.1995  0.1397  0.0565
32707ION     NA48841   5.908   6.870  14.403 -0.0528  0.2267 -0.1375
32708ION     NA48842  11.307  14.057  10.857 -0.0401  0.2333 -0.2671
32709ION     NA48843   4.633   4.659  10.110 -0.3077  0.1261 -0.0641
32710ION     NA48844  10.841   8.493   3.518 -0.0652  0.0185 -0.0246
32711ION     NA48845   5.230   7.599  11.261  0.0124 -0.1825  0.0563
32712ION     NA48846  18.338   9.756   9.493 -0.0610 -0.2927 -0.0316
32713ION     NA48847   9.559   3.917   6.114  0.2123 -0.2133  0.2522
32714ION     NA48848   9.449  13.702  10.822  0.4191  0.2105  0.3120
32715ION     NA48849   5.903   6.599  10.476 -0.1503 -0.0643 -0.2550
32716ION     NA48850  11.325   1.666  10.656  0.0453  0.5385  0.1002
32717ION     NA48851  10.573   8.167  10.773 -0.1695 -0.0888 -0.2046
32718ION     NA48852   0.186   6.008   9.637 -0.1780  0.1740 -0.1700
32719ION     NA48853   8.616   6.581   0.906 -0.0707  0.2266 -0.2533
32720ION     NA48854   3.080  12.817   5.024  0.0002 -0.0958  0.0869
32721ION     NA48855   9.882  13.058  11.018 -0.0581 -0.1134 -0.1242
32722ION     NA48856   2.199  11.868   9.493 -0.1173 -0.2533 -0.2295
32723ION     NA48857   7.769  16.353  10.691 -0.1777  0.0981 -0.1824
32724ION     NA48858   8.701  12.566  15.141 -0.0501 -0.2342  0.4287
32725ION     NA48859   4.738   9.487  10.001  0.1752 -0.1589 -0.1334
32726ION     NA48860  17.649   8.043   9.561  0.2516  0.1569  0.1276
32727ION     NA48861   2.087   7.969  12.182 -0.2803  0.1452  0.0575
32728ION     NA48862  16.233   0.935  10.215  0.1848  0.1492  0.3097
32729ION     NA48863  17.366  11.314   3.368  0.0245 -0.0357  0.2316
32730ION     NA48864   6.258  15.668  10.463  0.0852 -0.1267  0.1261
32731ION     NA48865   6.464   8.832   3.040  0.3092  0.1293 -0.0465
32732ION     NA48866   5.252   9.463  10.041 -0.1818 -0.0376 -0.0005
32733ION     NA48867   3.487  10.506  14.445 -0.2667 -0.0155 -0.0279
32734ION     NA48868  17.891   1.207  10.108 -0.1153  0.1633  0.1042
32735ION     NA48869   5.262  16.260   5.899  0.5030 -0.1139 -0.0380
32736ION     NA48870  12.360  10.407  14.315  0.0677 -0.2037  0.0563
32737ION     NA48871  15.607  17.843   5.279 -0.2916 -0.2199  0.0444
32738ION     NA48872   8.422   6.293  10.690 -0.4236  0.2661 -0.1376
32739ION     NA48873   5.857   8.602  10.185  0.0012  0.1177  0.4158
32740ION     NA48874   7.559  18.368   5.954  0.2843 -0.0717 -0.5734
32741ION     NA48875   6.486   4.964  10.513 -0.0162 -0.2503 -0.1366
32742ION     NA48876   0.751  17.564   4.521 -0.2766 -0.1020  0.0688
32743ION     NA48877  18.048  18.158  10.146  0.2433  0.2262 -0.0487
32744ION     NA48878  11.275   5.008  14.101  0.3761 -0.0984 -0.1540
32745ION     NA48879  11.613  13.007  10.523  0.0824 -0.0102 -0.0251
32746ION     NA48880  12.447   5.039  10.606  0.2959 -0.0254 -0.0637
32747ION     NA48881  17.613  12.529   3.777  0.0945 -0.1903  0.0976
32748ION     NA48882   8.338   3.531  10.824 -0.2832 -0.0719  0.1126
32749ION     NA48883  13.465  13.686  11.483 -0.0643 -0.1778 -0.0634
32750ION     NA48884  18.408   2.378   5.520  0.1822 -0.0160  0.1396
32751ION     NA48885  12.305  16.619  11.014 -0.1033  0.4323  0.0754
32752ION     NA48886  11.087  11.398  10.839  0.2561 -0.0471 -0.0644
32753ION     NA48887  18.299  15.454   9.770 -0.3236  0.0537  0.0660
32754ION     NA48888   0.441  10.940   4.436 -0.3692 -0.2325  0.2404
32755ION     NA48889   7.383   7.616  14.692  0.1875  0.1078  0.1892
32756ION     NA48890   1.507  12.882   9.599  0.2726 -0.0960  0.0142
32757ION     NA48891  12.898   7.470   2.895  0.1929  0.0780 -0.2000
32758ION     NA48892   2.188  12.618  10.096  0.0036 -0.0730 -0.1773
32759ION     NA48893   9.726  12.641  10.790  0.3761  0.2825  0.0368
32760ION     NA48894   8.375  15.889  11.141 -0.0398  0.3086 -0.0371
32761ION     NA48895  17.842  10.662  11.407  0.2254  0.1040  0.0201
32762ION     NA48896  13.113   4.977   2.930 -0.0576  0.0633  0.0850
32763ION     NA48897   1.758   5.072   2.905  0.2535 -0.0752 -0.3166
32764ION     NA48898   6.442   8.781  14.828  0.2485 -0.1851 -0.1267
32765ION     NA48899  14.659  17.891  16.071  0.3242 -0.1152  0.0296
32766ION     NA48900   0.923  15.856   5.567 -0.0112  0.2767 -0.1830
32767ION     NA48901   1.011   7.429   9.596  0.2102  0.1763  0.1319
32768ION     NA48902   0.124  18.017   4.250  0.3478  0.0589  0.1489
32769ION     NA48903   3.361  15.865   5.634 -0.0862  0.0206 -0.0346
32770ION     NA48904  13.327   0.864  10.424 -0.2794  0.1317 -0.2900
32771ION     NA48905   0.142   7.861   9.585  0.0660  0.0848  0.0796
32772ION     NA48906   4.898  10.545  10.046 -0.2511  0.0297 -0.0983
32773ION     NA48907   8.312   3.866  11.699  0.0850  0.2404  0.0533
32774ION     NA48908   5.326  12.121   9.987  0.3204 -0.2162 -0.0781
32775ION     NA48909   0.349   3.546   9.688  0.0864 -0.0979  0.0545
32776ION     NA48910   5.454  11.203  10.106  0.0817  0.1724  0.5287
32777ION     NA48911   1.695   9.185   5.337 -0.2179 -0.3365 -0.1743
32778ION     NA48912  17.167  16.316   5.201 -0.4275 -0.2468 -0.2736
32779ION     NA48913   4.333   3.082  10.166 -0.1192  0.1738  0.0072
32780ION     NA48914   7.884  15.369  10.680  0.2909 -0.1947  0.0794
32781ION     NA48915  11.004  17.797   3.836  0.1338 -0.0046 -0.1571
32782ION     NA48916  10.585  16.971   1.300 -0.0057  0.1891  0.1569
32783ION     NA48917   7.588  17.095  10.655 -0.1814 -0.2885 -0.0358
32784ION     NA48918  17.647  11.009   9.609  0.0591  0.2980 -0.3946
32785ION     NA48919  10.745  12.883  10.638  0.6721 -0.1575 -0.0042
32786ION     NA48920   2.875  15.884  10.771 -0.2080 -0.0291 -0.2031
32787ION     NA48921  15.498  13.601   3.359 -0.2466  0.0489  0.1410
32788ION     NA48922  16.184   8.984  10.348  0.1408 -0.0408  0.0021
32789ION     NA48923  13.103   7.744   6.175  0.1655 -0.2257 -0.0337
32790ION     NA48924  17.838  13.747   9.569  0.0537 -0.0257 -0.1203
32791ION     NA48925  10.917  10.542  14.429 -0.1231  0.0027  0.0677
32792ION     NA48926   7.922   5.096  14.694 -0.0465 -0.2926  0.1367
32793ION     NA48927   8.190   5.636  12.298 -0.0070  0.7086 -0.0014
32794ION     NA48928   7.596   1.275  13.919 -0.0873 -0.0083  0.0796
32795ION     NA48929  14.806  14.728  10.206  0.2227 -0.0107 -0.0196
32796ION     NA48930  18.413   4.292   9.563  0.4175  0.3257 -0.0615
32797ION     NA48931  17.190   0.449  10.038 -0.0044  0.0019 -0.0342
32798ION     NA48932  10.370   0.404   6.164 -0.0091 -0.0856  0.2813
32799ION     NA48933   6.782   2.581  14.423  0.1307  0.1145  0.1869
32800ION     NA48934   6.968   3.107  10.379 -0.2550  0.2963 -0.1802
32801ION     NA48935   1.497  15.693   4.831 -0.0263  0.0830 -0.2429
32802ION     NA48936   9.527   8.964  10.444 -0.0621  0.0432 -0.0792
32803ION     NA48937  13.845  14.357  10.424 -0.2657 -0.1017  0.1094
32804ION     NA48938  10.646   3.771  10.897  0.1881 -0.0732 -0.0363
32805ION     NA48939  13.994  14.245   5.459  0.4249  0.0024 -0.2365
32806ION     NA48940  10.807  10.065  10.512 -0.0821  0.1144 -0.0703
32807ION     NA48941  13.006  10.360  10.744 -0.0659  0.0745  0.0215
32808ION     NA48942   5.755  11.608  10.127  0.0426 -0.0412 -0.1600
32809ION     NA48943   2.748  10.164  11.762 -0.1339  0.2026 -0.0729
32810ION     NA48944   3.264  18.137   4.672 -0.0795 -0.0356 -0.0851
32811ION     NA48945  13.129   4.240  10.750  0.1270  0.0860  0.1378
32812ION     NA48946  14.011  14.816  10.335 -0.1016 -0.3569 -0.1153
32813ION     NA48947  14.234  18.140   5.759 -0.1271  0.1805 -0.2364
32814ION     NA48948   9.404   1.525   4.640  0.2105  0.1587 -0.1330
32815ION     NA48949   2.922   9.581   9.711 -0.0512  0.2021  0.1089
32816ION     NA48950   7.554   2.394  14.469 -0.3466 -0.1199 -0.2319
32817ION     NA48951   3.577  14.573   5.375 -0.3658  0.2690 -0.2691
32818ION     NA48952  12.048  18.230  10.838 -0.2629 -0.0719 -0.3444
32819ION     NA48953  10.505   1.551  11.068  0.0440  0.1613 -0.3217
32820ION     NA48954  11.345   7.407  10.758  0.0761 -0.1547  0.2930
32821ION     NA48955  15.182   5.697  10.463 -0.1521  0.0756 -0.1524
32822ION     NA48956   6.694  14.710   1.548 -0.1536  0.1368 -0.0154
32823ION     NA48957  13.366  12.514  10.844 -0.0246  0.2572 -0.1208
32824ION     NA48958  14.715   0.593  10.404 -0.0106 -0.4165  0.1182
32825ION     NA48959   0.517   9.143  10.083 -0.1393 -0.2579 -0.0672
32826ION     NA48960   1.165  15.792  10.027 -0.0404 -0.0472 -0.1572
32827ION     NA48961   2.423   7.914   9.606  0.2089 -0.1261 -0.0148
32828ION     NA48962  13.362   2.933  14.736 -0.0695  0.0442 -0.0929
32829ION     NA48963  13.344   7.672  13.253 -0.0049  0.0319  0.0848
32830ION     NA48964  11.552   9.166  10.737  0.1602  0.1130  0.2486
32831ION     NA48965   7.417  11.563   5.899  0.4206 -0.1319  0.4361
32832ION     NA48966   6.667   9.064  10.483  0.1018  0.0291  0.0984
32833ION     NA48967   0.294   1.440  10.177  0.0977  0.2448  0.4449
32834ION     NA48968  15.946   0.152  10.367  0.0200  0.1172  0.1048
32835ION     NA48969  14.885  12.695  10.215  0.1515  0.2161  0.2284
32836ION     NA48970  17.841   7.323   9.592  0.2312 -0.1032  0.0190
32837ION     NA48971   8.196   7.019   3.706  0.0189 -0.0530 -0.0260
32838ION     NA48972   0.529   9.952   5.355  0.0612 -0.2067 -0.2641
32839ION     NA48973  12.770  16.554  12.838 -0.0374 -0.1333 -0.1454
32840ION     NA48974   0.082  11.298   9.810  0.0077 -0.2399  0.0623
32841ION     NA48975  17.821  12.740   9.805  0.0293 -0.2170  0.2270
32842ION     NA48976   7.745   8.989   3.248  0.0995 -0.0795 -0.0310
32843ION     NA48977   8.266   8.751  10.723  0.0654 -0.2487 -0.0482
32844ION     NA48978   1.098   3.388   9.868 -0.2111  0.1218  0.4092
32845ION     NA48979   5.376   4.239  10.132 -0.1525 -0.2691 -0.0568
32846ION     NA48980  13.290   2.101   3.726  0.0546 -0.2572 -0.0349
32847ION     NA48981  11.404  10.538   5.210 -0.1697 -0.0441 -0.0884
32848ION     NA48982   8.126   3.948   6.232 -0.2181  0.0121 -0.1607
32849ION     NA48983   4.331   3.484   0.021 -0.0585 -0.1634  0.2560
32850ION     NA48984  16.488   9.652  15.771 -0.1435  0.2175 -0.1574
32851ION     NA48985   4.558   1.337  15.522 -0.1467 -0.0026  0.0086
32852ION     NA48986   3.874  14.454  12.294  0.2151  0.1097  0.1091
32853ION     NA48987  13.457   7.641  10.458  0.0439  0.3483  0.3664
32854ION     NA48988   3.207  11.860   5.428 -0.0232 -0.0036 -0.1238
32855ION     NA48989   8.311   8.031  10.629  0.1613  0.0496  0.1718
32856ION     NA48990   1.046   0.748  10.054  0.1258 -0.1425  0.1851
32857ION     NA48991   7.840   4.718   6.261  0.1067 -0.0462  0.1242
32858ION     NA48992  15.304   8.636  10.666  0.0490  0.0640  0.0674
32859ION     NA48993  13.225   5.201   0.503 -0.2342 -0.0458  0.0103
32860ION     NA48994  10.578   9.896   3.995  0.2432  0.1240  0.2639
32861ION     NA48995   0.017  14.094   9.869  0.0496 -0.1109 -0.1686
32862ION     NA48996  17.718  10.532   4.324 -0.2926  0.0077 -0.0922
32863ION     NA48997  10.453   5.323  10.811 -0.1323 -0.1611 -0.3019
32864ION     NA48998   2.407  10.510   2.320  0.1318 -0.0353 -0.1948
32865ION     NA48999   1.020  13.343  11.311  0.1395 -0.1033  0.1779
32866ION     NA49000  16.274   1.871  11.691  0.1996 -0.2066 -0.2515
32867ION     NA49001  16.406  16.270   4.307  0.2100  0.1040 -0.1804
32868ION     NA49002   5.290  17.205   3.798 -0.2055 -0.0823 -0.1584
32869ION     NA49003   3.059  14.135   9.431 -0.3188  0.3441  0.0710
32870ION     NA49004   0.623  10.160   9.614  0.1204  0.2931 -0.1221
32871ION     NA49005   7.410   0.924  10.564 -0.0327  0.3317 -0.1229
32872ION     NA49006  14.495  12.743   5.786 -0.0759 -0.2859  0.1413
32873ION     NA49007  11.084   6.579  11.048 -0.1065  0.2060  0.1272
32874ION     NA49008   7.024  15.754  10.967 -0.2079 -0.2342  0.1047
32875ION     NA49009  12.246  14.772   6.002  0.1573 -0.0606  0.1495
32876ION     NA49010  14.063   9.848   5.386  0.3091 -0.5137  0.0256
32877ION     NA49011   2.817  11.622  10.172  0.0917 -0.1125 -0.0593
32878ION     NA49012  13.272   2.809   3.420  0.1271  0.0789 -0.1268
32879ION     NA49013   2.151   4.772  15.244 -0.0763 -0.3135 -0.2624
32880ION     NA49014  16.158  16.819  10.481  0.3221  0.3318 -0.0631
32881ION     NA49015   7.199   1.669  10.400  0.1336 -0.0620  0.0629
32882ION     NA49016  17.205   2.673   9.981  0.2669 -0.2722  0.0104
32883ION     NA49017   1.228  18.120  10.098  0.0150 -0.1596  0.0386
32884ION     NA49018  13.459   9.324  11.629 -0.0057 -0.0672 -0.2788
32885ION     NA49019  10.391  15.327  11.143 -0.0270 -0.0143  0.1716
32886ION     NA49020  18.434  10.605   3.158 -0.0650 -0.1502  0.2953
32887ION     NA49021   8.788   7.109  10.823 -0.0994 -0.4241 -0.1438
32888ION     NA49022   9.113  15.566  10.977 -0.0920  0.5510 -0.2316
32889ION     NA49023   7.472   8.379  10.508 -0.0698  0.0706 -0.0837
32890ION     NA49024  13.791   8.328   6.096 -0.0771  0.1923  0.1139
32891ION     NA49025   2.752  15.158   5.551 -0.1789 -0.1812  0.1014
32892ION     NA49026  16.168   7.982   9.986  0.0706  0.1378  0.0682
32893ION     NA49027   2.483   5.985   5.489 -0.2632 -0.1648  0.0125
32894ION     NA49028  16.797   0.372   5.457 -0.2862  0.1120  0.0576
32895ION     NA49029   5.180   8.592  10.298 -0.0120  0.2522 -0.0993
32896ION     NA49030   2.022  12.643  11.088 -0.1675 -0.0720 -0.3303
32897ION     NA49031   7.862  10.247  10.440  0.1149 -0.3655 -0.1541
32898ION     NA49032   7.797  13.509   5.712 -0.0563  0.1974  0.0434
32899ION     NA49033   4.521   6.323   2.537 -0.1369  0.0422 -0.3317
32900ION     NA49034   8.609  17.200  15.833 -0.0738 -0.0637 -0.0119
32901ION     NA49035   6.594  12.819   0.556  0.0481  0.0952 -0.0455
32902ION     NA49036   6.029   5.805  10.579  0.0728 -0.0766  0.1797
32903ION     NA49037   8.955  13.221  10.789 -0.0060 -0.0475  0.0645
32904ION     NA49038  14.057  17.565   4.305  0.0701 -0.3752  0.0079
32905ION     NA49039  16.145  11.330   9.978 -0.0978 -0.2406 -0.0112
32906ION     NA49040  13.998   6.943   0.254 -0.0869 -0.2612 -0.1896
32907ION     NA49041   6.700   0.303  10.443  0.3162  0.3510 -0.4240
32908ION     NA49042  10.875  17.605   6.349  0.2265 -0.0172 -0.4687
32909ION     NA49043  12.116  10.621  10.847  0.0773  0.2437  0.3062
32910ION     NA49044  11.909  14.622  11.036  0.1503 -0.1063  0.0006
32911ION     NA49045   6.791  10.985   5.784  0.2106 -0.1212 -0.1934
32912ION     NA49046  17.274   9.474   9.667 -0.1865  0.1243 -0.0976
32913ION     NA49047   6.267   2.041  10.271  0.1135 -0.0603  0.2215
32914ION     NA49048   9.699   2.696  10.737  0.1596  0.2342 -0.3005
32915ION     NA49049   3.878  14.235   9.560 -0.2527  0.0420 -0.0671
32916ION     NA49050  17.058   3.187   2.309  0.0687 -0.1547  0.0025
32917ION     NA49051   7.572  13.410   2.467 -0.2646 -0.0538 -0.1973
32918ION     NA49052   3.045   3.835  10.349  0.2709 -0.1945  0.0310
32919ION     NA49053   2.192   6.771   5.301 -0.7812 -0.0690 -0.1336
32920ION     NA49054  12.336   6.581  10.656 -0.1434 -0.1727 -0.1453
32921ION     NA49055  14.414   8.437   5.564  0.0737  0.0207 -0.1639
32922ION     NA49056  15.404  10.605  10.127  0.2892  0.0038  0.2411
32923ION     NA49057  11.597  15.163   3.060  0.0270  0.0499 -0.2331
32924ION     NA49058   4.753   5.644   3.299  0.0874  0.0952 -0.0658
32925ION     NA49059  10.661  16.795  15.391 -0.0924  0.3474  0.0119
32926ION     NA49060   2.165  16.170  10.035 -0.3104  0.2356 -0.0618
32927ION     NA49061  10.960   7.851   6.263  0.1840 -0.1697  0.0479
32928ION     NA49062   8.787  18.478  10.990  0.1659  0.5036 -0.0317
32929ION     NA49063  17.451   2.138   9.884 -0.0449 -0.0094  0.3852
32930ION     NA49064  12.592   0.755  10.556 -0.1055 -0.1837 -0.0296
32931ION     NA49065  12.989  18.332  10.503 -0.1544 -0.3281 -0.3224
32932ION     NA49066   9.815  13.884  11.522  0.0579 -0.3312  0.0275
32933ION     NA49067  10.254  17.620  10.519  0.1287 -0.1452 -0.1643
32934ION     NA49068  13.101  17.596  10.480 -0.0902  0.0381 -0.2690
32935ION     NA49069   6.663  14.194  10.276 -0.0589  0.0570 -0.2563
32936ION     NA49070   1.517  16.124  10.909 -0.1417  0.0326  0.1470
32937ION     NA49071   8.664  10.054   5.920  0.5848 -0.0032 -0.0961
32938ION     NA49072  14.382  11.721  10.535  0.0604 -0.0132  0.0064
32939ION     NA49073  10.338   9.340  11.460 -0.2013  0.0340 -0.1899
32940ION     NA49074  12.196   7.520   6.106 -0.0374  0.1066  0.0486
32941ION     NA49075   1.719  10.969   9.398  0.2458 -0.0202 -0.1103
32942ION     NA49076  18.040   6.349   1.262  0.1734  0.3310 -0.1644
32943ION     NA49077   9.509  13.085   6.011 -0.1745 -0.2923 -0.0719
32944ION     NA49078  17.858  18.049   0.682  0.2739  0.2597  0.3353
32945ION     NA49079  10.425   2.815  12.582  0.0821  0.2905 -0.0549
32946ION     NA49080   4.816  18.376  10.427 -0.2005 -0.1562  0.3693
32947ION     NA49081   8.608  13.952  10.756  0.0497 -0.2740  0.0018
32948ION     NA49082  10.415  13.859  10.711 -0.1194  0.2427 -0.0089
32949ION     NA49083   2.391   2.468  10.026 -0.1598 -0.2552  0.0983
32950ION     NA49084   8.474  11.811   5.435  0.0098 -0.2542 -0.0560
32951ION     NA49085  12.956   9.745   2.647  0.2488  0.1443  0.3350
32952ION     NA49086  12.472   3.723  10.771 -0.3016 -0.1619 -0.0483
32953ION     NA49087  11.561   3.943  10.869 -0.3748  0.1291  0.2186
32954ION     NA49088  14.860  11.826  10.619 -0.0794  0.0491 -0.0100
32955ION     NA49089   9.279  17.462  10.820  0.1414 -0.1081  0.0115
32956ION     NA49090   3.543   9.864   9.614 -0.1217 -0.1007 -0.1253
32957ION     NA49091   8.417  17.184   0.634  0.1829 -0.3479  0.0507
32958ION     NA49092   1.662  17.426  10.017  0.0337 -0.4254 -0.1698
32959ION     NA49093  11.552   6.288  13.199  0.0119 -0.2116 -0.0282
32960ION     NA49094  14.011  16.776  10.116  0.0201  0.0395 -0.0486
32961ION     NA49095  11.338   0.855  10.235 -0.1069 -0.0660 -0.1802
32962ION     NA49096  14.201  13.439  10.468  0.0875 -0.1283  0.1433
32963ION     NA49097  14.656   1.415  10.648 -0.1156 -0.0950  0.4042
32964ION     NA49098   2.566   0.887  12.129  0.2147 -0.4263  0.1607
32965ION     NA49099   0.254  16.264   9.752 -0.0996 -0.1812  0.2236
32966ION     NA49100  13.548   1.212  11.459  0.2534 -0.0375 -0.1327
32967ION     NA49101   0.113  18.116   5.366  0.0748  0.1436 -0.1290
32968ION     NA49102   5.666  11.441   1.577 -0.3051  0.1566 -0.0734
32969ION     NA49103   5.233   5.880  10.205  0.2675 -0.1441  0.1659
32970ION     NA49104   6.388  18.430  10.310 -0.2650  0.1563 -0.1545
32971ION     NA49105   4.527  17.358  10.320  0.0889  0.2356  0.0375
32972ION     NA49106  16.581  16.480  12.009 -0.1984  0.4023 -0.1245
32973ION     NA49107  18.146   2.803   9.804 -0.0277 -0.3453 -0.3132
32974ION     NA49108  18.468  17.076   9.951  0.0241  0.0723  0.0290
32975ION     NA49109   9.139  16.609  10.898  0.0572 -0.1254  0.2764
32976ION     NA49110   0.911  13.712   9.832 -0.0126 -0.0944  0.1075
32977ION     NA49111  13.199  16.417  11.498  0.3030 -0.0386 -0.3583
32978ION     NA49112   8.553   5.372  10.719 -0.0859  0.3044  0.0165
32979ION     NA49113  11.994  16.274   5.914  0.2380 -0.0856  0.0106
32980ION     NA49114   3.885  10.609  13.108  0.1330 -0.2740  0.0086
32981ION     NA49115  13.893   0.021  10.324  0.3396 -0.4814  0.1017
32982ION     NA49116   1.741   0.127  10.161 -0.1392  0.0411 -0.2435
32983ION     NA49117   4.066   8.265   9.924 -0.0248  0.2185 -0.2506
32984ION     NA49118  12.211  14.666  15.725  0.1154 -0.1242  0.2291
32985ION     NA49119  13.237  11.479   6.164  0.0743 -0.0311 -0.1390
32986ION     NA49120  15.593   6.655  10.112 -0.0067 -0.0818  0.3040
32987ION     NA49121   3.325  16.840  10.188  0.0376  0.1071  0.2117
32988ION     NA49122  17.320  12.992   9.669 -0.1027 -0.1053 -0.1519
32989ION     NA49123   1.680   0.074  16.021 -0.1859 -0.0374 -0.0929
32990ION     NA49124  16.781  13.781   9.914  0.1796  0.3417 -0.0877
32991ION     NA49125  12.099   6.550  11.485 -0.0664  0.2774 -0.1360
32992ION     NA49126   3.619   8.980   9.909  0.2239 -0.0018 -0.2739
32993ION     NA49127  13.025  14.811  10.876 -0.1824 -0.3343  0.0885
32994ION     NA49128  16.087  17.718   4.759  0.0639  0.2916 -0.3003
32995ION     NA49129   8.414   2.256   1.360  0.1842 -0.1296  0.1653
32996ION     NA49130  17.234  18.068   9.835  0.0008  0.3905 -0.2717
32997ION     NA49131  10.583  10.988  10.468 -0.2827 -0.1383  0.1900
32998ION     NA49132   5.880   9.437  10.326 -0.1677 -0.0952 -0.0525
32999ION     NA49133  14.768  10.870   1.589 -0.1654  0.0027  0.2822
33000ION     NA49134   7.350   1.576   5.080  0.0177 -0.1666  0.4214
33001ION     NA49135  16.585   2.356   0.134  0.0575 -0.1344 -0.0557
33002ION     NA49136  14.427   4.180   5.823 -0.1669  0.1446  0.0777
33003ION     NA49137  13.159  12.555  12.126  0.0222  0.0523 -0.1723
33004ION     NA49138  14.720   5.829  11.639  0.1751 -0.1101 -0.0651
33005ION     NA49139  10.872  15.476  12.335 -0.0205 -0.1836 -0.1854
33006ION     NA49140   0.697   2.322   1.324 -0.1926 -0.2946  0.3519
33007ION     NA49141   5.611   0.248  10.297 -0.3170  0.1349 -0.2508
33008ION     NA49142  12.818  17.532  11.656 -0.2350  0.0022  0.1304
33009ION     NA49143   4.472  14.210  15.646 -0.0885  0.1716 -0.0732
33010ION     NA49144   9.425   9.519  15.747 -0.2481 -0.2283 -0.2152
33011ION     NA49145   5.157   9.954   5.403  0.1767 -0.3110  0.1119
33012ION     NA49146  12.226   1.577  10.534 -0.0584 -0.0263 -0.1614
33013ION     NA49147  10.864  14.778   5.885  0.0457  0.2176  0.3293
33014ION     NA49148  14.461  10.991  10.600 -0.4044  0.3681  0.0709
33015ION     NA49149   8.300   1.838   5.842 -0.0121  0.1070 -0.1475
33016ION     NA49150   8.713  10.363  10.511 -0.1790 -0.1872 -0.1942
33017ION     NA49151  16.609   2.518   5.700  0.0193  0.0498  0.2446
33018ION     NA49152   6.569   1.270  10.322  0.1466  0.0673  0.1814
33019ION     NA49153   8.887  11.098  13.578  0.2187 -0.2281  0.0452
33020ION     NA49154  17.915   5.319   9.772  0.1399  0.0133  0.3268
33021ION     NA49155  16.422   7.282  10.245  0.0829  0.1460 -0.2141
33022ION     NA49156  17.100   5.771   9.742 -0.0831 -0.0792 -0.2696
33023ION     NA49157   1.522   2.888  10.296 -0.1294  0.0940 -0.0626
33024ION     NA49158  15.643  15.822   5.415  0.1760  0.1932 -0.2257
33025ION     NA49159  15.159  14.308   9.939  0.1068 -0.0969 -0.0169
33026ION     NA49160   1.757  14.109  15.981  0.0562 -0.1605 -0.3076
33027ION     NA49161   2.421  13.592   5.530  0.0340  0.2790 -0.2730
33028ION     NA49162  13.138   2.881  10.814  0.3580 -0.2557  0.3449
33029ION     NA49163   9.871   3.496  14.903 -0.2764 -0.1202 -0.2080
33030ION     NA49164  16.706  17.481  10.119 -0.0088  0.0665  0.0434
33031ION     NA49165   7.274  18.033  10.784 -0.1675  0.0539 -0.1287
33032ION     NA49166  12.862   9.994   6.208 -0.0223  0.2881 -0.1326
33033ION     NA49167  16.437   2.607  10.125 -0.1805 -0.2275 -0.0828
33034ION     NA49168  17.976   0.130  16.052  0.0081 -0.0893 -0.2247
33035ION     NA49169  16.309   9.386   4.326  0.1437  0.0969 -0.0056
33036ION     NA49170   4.058   1.274  10.234 -0.1644 -0.0630 -0.2079
33037ION     NA49171   5.856   2.744  10.557 -0.0062 -0.0887 -0.2545
33038ION     NA49172   7.841  12.190  14.853  0.0400 -0.2957  0.0545
33039ION     NA49173  12.100   9.755   2.989  0.2436 -0.2382 -0.0237
33040ION     NA49174  14.879   6.113   5.555  0.1891 -0.0314  0.4195
33041ION     NA49175  11.670  12.823   0.405  0.1489 -0.2954  0.0317
33042ION     NA49176  13.645   5.825  10.880  0.2980  0.3134  0.0151
33043ION     NA49177  17.622  17.443  10.081 -0.2090  0.0635 -0.1807
33044ION     NA49178   3.276   4.890  13.461 -0.2145 -0.0075  0.0825
33045ION     NA49179  16.326   5.974  10.086 -0.1935  0.1072 -0.0702
33046ION     NA49180  15.838  17.665  10.155  0.3502  0.1278 -0.2318
33047ION     NA49181  14.667  16.642   1.588 -0.0843  0.3520  0.0791
33048ION     NA49182   2.145  13.031   5.805  0.2401 -0.1111 -0.1358
33049ION     NA49183   8.227   4.706  11.276 -0.2171  0.0767  0.1981
33050ION     NA49184   9.573   9.623   1.754 -0.0207  0.0572 -0.1296
33051ION     NA49185  10.282  10.192  10.547  0.1097 -0.0927  0.1275
33052ION     NA49186  14.954  11.660   5.736 -0.1988 -0.1531 -0.0919
33053ION     NA49187   2.656   8.791   9.680  0.0742 -0.0459 -0.1535
33054ION     NA49188   5.815  16.059  10.595  0.0971  0.0079  0.1452
33055ION     NA49189   2.982   6.615   0.523 -0.0403  0.1150 -0.0832
33056ION     NA49190   9.761  16.091  11.212 -0.0272  0.2961 -0.2140
33057ION     NA49191   9.714   8.037   0.631 -0.4323  0.0888  0.0106
33058ION     NA49192   5.806  13.727  10.344 -0.1389 -0.2021 -0.1561
33059ION     NA49193  16.419  18.464  10.144 -0.1725  0.0144 -0.2004
33060ION     NA49194   8.588  14.929  10.890  0.1753  0.1539 -0.1521
33061ION     NA49195   9.511  18.025  10.762 -0.3005 -0.2926 -0.0284
33062ION     NA49196   9.405   4.999  10.978 -0.0108  0.0610 -0.2234
33063ION     NA49197  17.661   1.533  10.841  0.2065  0.0947 -0.0571
33064ION     NA49198   6.668   6.293  11.047  0.1397  0.1183 -0.0403
33065ION     NA49199   4.501  15.377   9.949  0.0923  0.0766  0.0208
33066ION     NA49200  10.425  18.080  15.487 -0.3474  0.0602 -0.0040
33067ION     NA49201   6.177  14.391  11.047 -0.2652 -0.3132  0.1080
33068ION     NA49202  12.785   4.971   5.994  0.3790  0.2628  0.2855
33069ION     NA49203   2.524   3.753  10.089 -0.3107  0.2252  0.2440
33070ION     NA49204  13.718   9.634  10.654  0.2030  0.0749 -0.2360
33071ION     NA49205   1.787   8.541   9.474  0.0688  0.3002 -0.1986
33072ION     NA49206   8.429   9.630  10.439 -0.2945  0.1478 -0.0512
33073ION     NA49207  14.262   7.952  10.327 -0.2879 -0.0603 -0.0126
33074ION     NA49208  13.002  16.496  10.539  0.1174 -0.2731  0.0033
33075ION     NA49209  15.049  15.939   2.198 -0.0721 -0.4408 -0.1693
33076ION     NA49210   1.451   1.222   5.760  0.3420  0.0851  0.4570
33077ION     NA49211   3.608   2.140  10.486 -0.1361 -0.4697  0.0524
33078ION     NA49212   7.018  13.001  10.531 -0.0264  0.0004 -0.0379
33079ION     NA49213  18.003   2.855   2.851 -0.1777 -0.0925 -0.2619
33080ION     NA49214   0.714  12.288   9.749  0.0980 -0.2257  0.1874
33081ION     NA49215   8.659  11.240  10.676 -0.0107  0.0494 -0.1093
33082ION     NA49216   2.835   3.786   5.416 -0.2327 -0.1387  0.0935
33083ION     NA49217   0.157  13.194   9.889 -0.4919  0.1599  0.0226
33084ION     NA49218   8.294   4.063   3.196 -0.0349  0.1905  0.0210
33085ION     NA49219   9.162   9.837   3.509  0.0880 -0.0659  0.1733
33086ION     NA49220  12.913   5.385  15.844  0.0517  0.1418 -0.0636
33087ION     NA49221  15.317   0.605  10.380  0.0978  0.1790  0.1451
33088ION     NA49222   0.837   6.439  10.943 -0.2144  0.3512 -0.2792
33089ION     NA49223   0.509   1.362  13.462 -0.4491 -0.2981  0.2358
33090ION     NA49224   3.728  16.988  10.474 -0.2914 -0.3104 -0.1661
33091ION     NA49225   1.110   5.690   5.248 -0.0821  0.2738 -0.0178
33092ION     NA49226   8.856  14.281   0.897  0.3569 -0.0748 -0.2551
33093ION     NA49227   8.954   4.952  13.616  0.0579  0.0730  0.1525
33094ION     NA49228   1.870   7.242   9.748  0.0065  0.1144  0.2555
33095ION     NA49229   4.328  17.553   5.941 -0.2901 -0.0049  0.0680
33096ION     NA49230   6.520  11.776   6.029 -0.0765  0.0219 -0.0754
33097ION     NA49231  16.357   6.669  10.821  0.0439  0.0958 -0.2178
33098ION     NA49232   8.863   6.778  14.501 -0.0730  0.1233  0.1601
33099ION     NA49233   8.360  12.135   4.456  0.0369  0.0893 -0.0825
33100ION     NA49234   7.505   4.801   4.818 -0.1285 -0.0507 -0.1834
33101ION     NA49235  17.048  11.732   9.974 -0.3087  0.0187 -0.1668
33102ION     NA49236  11.360   2.663  10.750 -0.0858 -0.3703 -0.1174
33103ION     NA49237   4.703   3.425  11.371  0.1042 -0.0814 -0.0402
33104ION     NA49238  11.169  12.933   1.325  0.2175 -0.1868 -0.3371
33105ION     NA49239  15.970   3.951  11.439  0.0504  0.0469  0.1390
33106ION     NA49240   9.622   1.219  10.832  0.1777 -0.1258 -0.1135
33107ION     NA49241   6.525  10.812  15.093 -0.0639 -0.0079  0.1058
33108ION     NA49242  18.313  10.336   9.660 -0.2241  0.1639 -0.0355
33109ION     NA49243  14.279  12.576  10.248 -0.0163  0.2752 -0.0257
33110ION     NA49244   4.552   1.301  13.475  0.0727  0.4276 -0.1165
33111ION     NA49245   1.273  14.828   9.781  0.0289 -0.0692  0.0381
33112ION     NA49246   1.609   1.772  10.120  0.0791 -0.1356 -0.0494
33113ION     NA49247  14.228  13.043  13.256  0.1052  0.3607 -0.1061
33114ION     NA49248   8.783   0.244  15.885 -0.4028  0.1792  0.1688
33115ION     NA49249   1.508  10.246   5.175  0.3715  0.2163  0.0041
33116ION     NA49250   2.239   5.517   9.824  0.0674 -0.0147  0.1051
33117ION     NA49251  18.070  11.175  13.702 -0.2287 -0.1006  0.1213
33118ION     NA49252   4.128   2.858   5.806 -0.1447  0.3036  0.0601
33119ION     NA49253  13.674   8.519  10.437  0.0564  0.0818 -0.1344
33120ION     NA49254   1.701  14.256   9.594  0.0930  0.0619 -0.0297
33121ION     NA49255  16.282  15.651   9.781  0.2355  0.2811 -0.0063
33122ION     NA49256  17.077   1.265  10.073 -0.1596  0.1300  0.0194
33123ION     NA49257   4.595  12.681   2.073 -0.0401  0.0929  0.1353
33124ION     NA49258  10.491   6.545   6.139 -0.0912  0.3525  0.1341
33125ION     NA49259   1.041   4.178   4.366  0.1522 -0.1487  0.0451
33126ION     NA49260   1.298   1.867  15.740  0.0392 -0.1016  0.1923
33127ION     NA49261   9.055   3.211  10.781  0.0710  0.1463  0.0604
33128ION     NA49262   7.560   3.724  13.295 -0.0590  0.1593  0.0547
33129ION     NA49263  18.177   1.032  14.996  0.0237  0.2487  0.4519
33130ION     NA49264   2.227  10.220   9.481  0.0193  0.1500 -0.0388
33131ION     NA49265  14.300  11.580   2.041 -0.1576 -0.2572  0.2200
33132ION     NA49266  12.756   9.110   6.343  0.4442  0.0729 -0.3434
33133ION     NA49267  12.138  14.357  10.696 -0.2328  0.1172  0.1126
33134ION     NA49268  15.503   5.041  10.174 -0.0813  0.2112  0.1327
33135ION     NA49269   9.975   1.094   6.290 -0.0362  0.1522 -0.1287
33136ION     NA49270   6.518   9.127   5.625  0.4198 -0.1234  0.1091
33137ION     NA49271   8.557  16.753  10.810  0.0161 -0.1353 -0.3145
33138ION     NA49272   6.342  16.949  10.710  0.0240 -0.2867 -0.0956
33139ION     NA49273   9.653  12.499   5.176 -0.0591  0.0607 -0.3054
33140ION     NA49274   1.346  13.953   0.938 -0.1475 -0.0553 -0.0496
33141ION     NA49275  15.317  10.549   3.016  0.0705  0.2657  0.5760
33142ION     NA49276  16.129  14.342   9.983  0.0383  0.2387 -0.0717
33143ION     NA49277   9.121   2.591   6.235 -0.0010  0.0863  0.0263
33144ION     NA49278   7.378   5.906   0.315  0.1628 -0.1661  0.2420
33145ION     NA49279  15.941  12.365  10.094 -0.0769  0.0559 -0.1349
33146ION     NA49280  13.612  10.473  10.683  0.2126 -0.1833  0.2915
33147ION     NA49281  12.093  15.773  11.030 -0.1388 -0.0263 -0.1747
33148ION     NA49282  15.945  10.720   5.451 -0.0006  0.2636 -0.0821
33149ION     NA49283  17.815   3.456   9.663  0.0706  0.0873  0.3602
33150ION     NA49284   2.505   4.616  10.033  0.0161 -0.0839  0.0734
33151ION     NA49285   6.550   5.939  10.694 -0.1161  0.0325  0.0863
33152ION     NA49286  16.739   7.412   5.620  0.2603  0.0169 -0.0891
33153ION     NA49287   9.308   5.872  10.776 -0.1194 -0.0796  0.2608
33154ION     NA49288   8.347  13.119  14.652  0.0228  0.0867  0.0620
33155ION     NA49289  11.942   8.217  10.786  0.1646  0.1989 -0.0098
33156ION     NA49290  17.900  11.807   9.677 -0.2170 -0.0592 -0.1271
33157ION     NA49291   3.135  10.690   9.652  0.0806  0.1799 -0.0925
33158ION     NA49292  12.508  17.473   2.409  0.3253  0.0390  0.0128
33159ION     NA49293   9.094  18.219   6.024  0.0635  0.1348 -0.2264
33160ION     NA49294  14.622  16.624  14.230 -0.2283  0.1568  0.0887
33161ION     NA49295  15.394   4.036  10.680  0.1139  0.0660  0.0409
33162ION     NA49296   3.204   5.123  10.095 -0.1199 -0.0261 -0.1771
33163ION     NA49297   0.887   8.356   9.638 -0.0751  0.1229  0.0908
33164ION     NA49298   9.519   6.752  11.220 -0.1794 -0.3677 -0.2043
33165ION     NA49299  13.668  11.171  13.537  0.1364 -0.0193  0.0733
33166ION     NA49300   4.296   0.858  15.029  0.1894 -0.1003 -0.0139
33167ION     NA49301   0.482   2.965  13.417  0.5909 -0.0493  0.2288
33168ION     NA49302  17.433  10.125   9.637  0.0442  0.1122 -0.0605
33169ION     NA49303   7.629  13.539  15.267 -0.0185  0.1279 -0.1497
33170ION     NA49304   5.613  17.708  13.310 -0.1658  0.1312  0.1960
33171ION     NA49305   0.356   5.067   9.622 -0.0161 -0.1006 -0.3238
33172ION     NA49306  14.496  10.117   2.553 -0.1864 -0.1868 -0.0348
33173ION     NA49307   2.130   0.922  10.224  0.0243  0.0499 -0.5889
33174ION     NA49308  18.400   5.510   5.125 -0.0376  0.1980 -0.3356
33175ION     NA49309   1.666  17.307   5.290  0.1086 -0.0031  0.1450
33176ION     NA49310  10.806  15.342  15.837  0.1039 -0.2087  0.0520
33177ION     NA49311   9.807   3.499  10.712 -0.0642  0.0432 -0.3554
33178ION     NA49312  15.009   3.727  10.442 -0.1411  0.0371  0.1286
33179ION     NA49313   2.873  15.094   9.927  0.4870  0.3216 -0.1584
33180ION     NA49314   4.938   2.914  10.107  0.3505 -0.2633 -0.1351
33181ION     NA49315  11.984  12.566   1.534  0.2295 -0.1274  0.0707
33182ION     NA49316  10.365   9.149  10.553  0.1018 -0.1326 -0.0137
33183ION     NA49317   0.172   6.943   9.515 -0.0860  0.0369  0.0748
33184ION     NA49318  12.447   6.106   6.147  0.0844  0.2157  0.2383
33185ION     NA49319  16.817  12.246   4.001  0.1078  0.1825  0.1906
33186ION     NA49320   2.107   4.579  10.293 -0.0423  0.1345 -0.2717
33187ION     NA49321  17.790   6.207   9.669  0.0604 -0.2573  0.0648
33188ION     NA49322   7.792  10.745  10.678  0.1589 -0.2357  0.1550
33189ION     NA49323  12.038  12.585  13.599 -0.1195  0.3334 -0.1305
33190ION     NA49324  15.984   9.261   5.311 -0.2073 -0.2828  0.1283
33191ION     NA49325  14.096  15.211  10.066 -0.1562  0.0390 -0.0120
33192ION     NA49326  10.526  11.873  10.880 -0.3187  0.1182  0.1832
33193ION     NA49327   8.525  17.949  11.015 -0.0437 -0.2228  0.2125
33194ION     NA49328   1.316   9.294   9.835 -0.0595  0.1032 -0.1229
33195ION     NA49329   2.277  13.548   9.470  0.1748  0.3115  0.4267
33196ION     NA49330   4.954  13.388  10.201  0.0017 -0.1866  0.1520
33197ION     NA49331   4.262   8.087   3.414  0.3128  0.4589 -0.0230
33198ION     NA49332   6.955   8.290  10.713 -0.0987 -0.0584 -0.3597
33199ION     NA49333  18.126  12.651  15.257  0.1707  0.2528  0.3038
33200ION     NA49334   8.888   2.713   2.602  0.0754  0.1514 -0.1045
33201ION     NA49335  15.059   9.652  10.713 -0.1899 -0.0187 -0.4961
33202ION     NA49336   3.659   5.958   5.511 -0.0524 -0.1028  0.1002
33203ION     NA49337   8.724  10.583   2.173 -0.1018 -0.2138 -0.1335
33204ION     NA49338   9.696  10.341   5.958 -0.1345 -0.0300  0.0840
33205ION     NA49339  12.794   8.269  10.615  0.0994  0.3343  0.4094
33206ION     NA49340  14.391   5.255   5.832  0.3079 -0.0592 -0.4487
33207ION     NA49341  17.465  15.888   9.895 -0.2859  0.0984 -0.3926
33208ION     NA49342   4.216   6.676  10.172 -0.2432 -0.0706  0.0650
33209ION     NA49343   3.297  17.754  10.217 -0.1479 -0.1673 -0.2172
33210ION     NA49344  13.555  11.151  10.645  0.0567 -0.1108  0.1411
33211ION     NA49345   6.599   7.283   6.226 -0.0607  0.2376  0.1131
33212ION     NA49346   5.363  18.175   5.195 -0.1127  0.1406  0.0695
33213ION     NA49347  12.457   9.916   1.620  0.1369  0.0145 -0.1857
33214ION     NA49348   1.474  12.721   5.412 -0.1525 -0.0972 -0.1265
33215ION     NA49349   9.170   4.365   6.280 -0.0969 -0.4484  0.2842
33216ION     NA49350  16.924   4.346   2.676  0.1915  0.1785  0.2539
33217ION     NA49351   2.275  15.945   5.740  0.2312  0.1985  0.3308
33218ION     NA49352   7.551   0.102   0.425 -0.0278  0.4585  0.1200
33219ION     NA49353  13.418   5.045  10.684 -0.0428  0.0880 -0.1643
33220ION     NA49354   5.237  15.724  10.309  0.1317  0.3378 -0.2154
33221ION     NA49355  17.845  14.873  10.101 -0.3207 -0.3237  0.0009
33222ION     NA49356  16.872   6.990  12.402  0.3715 -0.3207  0.0533
33223ION     NA49357   9.983  12.105  11.922  0.1963 -0.1802 -0.3050
33224ION     NA49358   1.740  15.232  15.608 -0.1105  0.1125  0.0245
33225ION     NA49359   8.589  17.665   0.680  0.1394  0.1272  0.0266
33226ION     NA49360   4.802  15.579   5.485 -0.2277  0.0765  0.2035
33227ION     NA49361   9.605   8.124   4.853 -0.0643  0.0495  0.1715
33228ION     NA49362  14.641   2.618  10.485 -0.1867 -0.1387 -0.0942
33229ION     NA49363  14.826  15.668  10.216  0.3457  0.1680  0.0646
33230ION     NA49364   8.631  12.443  10.576 -0.0145  0.1201  0.0274
33231ION     NA49365   0.121   9.416   1.272  0.2271  0.2537  0.0717
33232ION     NA49366  17.503  15.945  12.429 -0.3037  0.0748  0.3170
33233ION     NA49367   0.877  11.873   0.341  0.0066 -0.0615 -0.3281
33234ION     NA49368  14.166   6.225  10.437  0.0451 -0.1046  0.2161
33235ION     NA49369   9.199   4.038  10.975 -0.0902  0.2819  0.0957
33236ION     NA49370  11.253   0.022  10.660  0.1995 -0.0029  0.1753
33237ION     NA49371   4.438   2.197  10.116 -0.0734  0.2254 -0.1360
33238ION     NA49372  15.388  10.083   5.122  0.1532 -0.0139  0.0549
33239ION     NA49373   0.897  17.880   0.808  0.3500 -0.0276 -0.2268
33240ION     NA49374  17.920  14.560   5.640 -0.3313  0.3600 -0.3303
33241ION     NA49375  10.940   2.096  12.063 -0.1405  0.0723  0.0175
33242ION     NA49376  10.342  10.184   4.784  0.1048  0.1768  0.1795
33243ION     NA49377  16.118   3.623  10.084  0.1040 -0.0341  0.3422
  18.50391  18.50391  16.09174
