INSANE! Membrane UpperLeaflet>loPI:POPI:DPPI:PYPI:ERGO=80.0:5.0:3.0:2.0:10.0 LowerLeaflet>PSPI:POPI:POPS:YOPS:POPE:YOPE:POPC:YOPC:ERGO=6.0:14.0:21.0:9.0:9.0:21.0:12.0:48.0:60.0
49377
    1loPI    C1    1  15.167   2.100  10.436 -0.1152  0.0522  0.0258
    1loPI    C2    2  15.398   1.773  10.436 -0.1300  0.0418 -0.0028
    1loPI    C3    3  15.523   2.107  10.254 -0.1739  0.0104 -0.0912
    1loPI   PO4    4  14.945   1.999  10.417  0.2371  0.0922  0.1519
    1loPI   GL1    5  14.652   1.965  10.031 -0.1359  0.0509  0.0625
    1loPI   GL2    6  14.664   2.190   9.807 -0.1016  0.0474 -0.2227
    1loPI   C1A    7  14.684   1.634   9.696  0.1961 -0.0919  0.1237
    1loPI   C2A    8  14.649   1.668   9.239 -0.1711 -0.3036  0.3329
    1loPI   C3A    9  14.838   1.494   8.871 -0.0972  0.1597 -0.0040
    1loPI   C4A   10  14.764   1.352   8.467 -0.3414 -0.3829 -0.2422
    1loPI   C5A   11  14.927   1.358   7.977 -0.0672 -0.0195 -0.0916
    1loPI   C6A   12  14.956   1.270   7.500 -0.2501  0.0319  0.3830
    1loPI   C1B   13  14.348   2.009   9.529  0.0608 -0.0514  0.2881
    1loPI   C2B   14  14.324   2.060   9.056  0.2282  0.1373 -0.0002
    1loPI   C3B   15  14.194   1.970   8.665  0.3824  0.3334  0.2332
    1loPI   C4B   16  14.256   1.753   8.304 -0.4080  0.3598  0.3309
    2loPI    C1   17  15.301  14.292  10.507  0.0945 -0.0351 -0.3664
    2loPI    C2   18  15.281  14.571  10.793 -0.1189  0.0637 -0.4754
    2loPI    C3   19  15.627  14.386  10.719 -0.0879 -0.0484 -0.0739
    2loPI   PO4   20  15.106  14.441  10.271  0.0296 -0.3707  0.2561
    2loPI   GL1   21  15.112  14.763   9.913 -0.1525  0.0128 -0.0971
    2loPI   GL2   22  15.373  14.644   9.749  0.0970  0.0118  0.2218
    2loPI   C1A   23  15.095  15.003   9.617 -0.0404 -0.2112  0.0847
    2loPI   C2A   24  14.993  15.010   9.224  0.1875 -0.1621  0.1761
    2loPI   C3A   25  14.961  14.908   8.871 -0.0322 -0.0509 -0.2044
    2loPI   C4A   26  14.810  14.897   8.547 -0.2503 -0.3549 -0.0255
    2loPI   C5A   27  14.809  14.891   8.104 -0.3992  0.0647  0.4804
    2loPI   C6A   28  14.899  14.639   7.740  0.2255  0.1178 -0.3916
    2loPI   C1B   29  15.292  14.439   9.416  0.0871 -0.2729  0.1268
    2loPI   C2B   30  15.297  14.583   9.036 -0.0979 -0.0488  0.1036
    2loPI   C3B   31  15.310  14.508   8.578  0.0246 -0.0270  0.1057
    2loPI   C4B   32  15.101  14.507   8.229  0.0136 -0.0424 -0.1451
    3loPI    C1   33   0.420   7.026  10.314  0.0199 -0.0603  0.2062
    3loPI    C2   34   0.730   7.254  10.422 -0.0095  0.0246  0.1123
    3loPI    C3   35   0.423   7.203  10.673  0.1078 -0.1093  0.2300
    3loPI   PO4   36   0.399   7.054   9.974  0.3302  0.0697  0.0586
    3loPI   GL1   37   0.528   6.725   9.582 -0.1025 -0.0863  0.2523
    3loPI   GL2   38   0.460   6.461   9.618  0.1315  0.0265 -0.3913
    3loPI   C1A   39   0.208   6.888   9.263 -0.1754 -0.0350  0.1190
    3loPI   C2A   40   0.135   6.942   8.815  0.0308  0.2710 -0.0711
    3loPI   C3A   41   0.077   7.001   8.475 -0.0180  0.1869  0.0220
    3loPI   C4A   42  -0.014   6.980   8.050 -0.1978 -0.1221  0.0688
    3loPI   C5A   43  -0.133   6.851   7.679 -0.0996  0.0722  0.0962
    3loPI   C6A   44   0.198   6.569   7.463 -0.1804  0.1806  0.0018
    3loPI   C1B   45   0.496   6.420   9.157 -0.4209 -0.0821 -0.1825
    3loPI   C2B   46   0.479   6.462   8.778 -0.0017 -0.0258  0.2678
    3loPI   C3B   47   0.365   6.484   8.363  0.2599  0.1193  0.3057
    3loPI   C4B   48   0.400   6.469   7.930 -0.2433 -0.0038  0.0718
    4loPI    C1   49   4.984  13.178  10.359 -0.0311 -0.0603  0.0151
    4loPI    C2   50   4.770  13.228  10.693  0.0124  0.1383  0.0149
    4loPI    C3   51   5.066  12.959  10.684 -0.1736 -0.0714  0.0445
    4loPI   PO4   52   4.763  13.191  10.160  0.1093  0.0347 -0.1601
    4loPI   GL1   53   4.748  13.486   9.735  0.3575  0.1678  0.0286
    4loPI   GL2   54   4.479  13.350   9.761 -0.0192 -0.1184 -0.2098
    4loPI   C1A   55   4.758  13.627   9.272  0.0859 -0.0418 -0.3403
    4loPI   C2A   56   4.810  13.569   8.815  0.0336  0.1990  0.0256
    4loPI   C3A   57   4.809  13.660   8.356 -0.5013  0.2182  0.0351
    4loPI   C4A   58   4.696  13.557   7.911  0.0159 -0.0198  0.0510
    4loPI   C5A   59   4.408  13.223   7.686 -0.2502  0.0384 -0.0142
    4loPI   C6A   60   3.927  13.171   7.720  0.1929 -0.1942 -0.1466
    4loPI   C1B   61   4.209  13.266   9.412  0.1359 -0.2572 -0.1710
    4loPI   C2B   62   4.217  13.362   9.023 -0.0912  0.4162  0.2085
    4loPI   C3B   63   4.226  13.507   8.542  0.0716 -0.2348 -0.0441
    4loPI   C4B   64   4.181  13.389   8.165  0.2220 -0.3405 -0.1687
    5loPI    C1   65  13.103   2.277  10.589 -0.0304 -0.0878  0.3342
    5loPI    C2   66  13.156   2.501  10.917 -0.1058 -0.0102  0.2938
    5loPI    C3   67  12.810   2.309  10.859 -0.1207  0.0380  0.2222
    5loPI   PO4   68  13.369   2.336  10.407  0.2985  0.2155 -0.0581
    5loPI   GL1   69  13.474   2.219  10.003  0.0316  0.0369  0.0602
    5loPI   GL2   70  13.298   1.999   9.834 -0.0162 -0.1896  0.0474
    5loPI   C1A   71  13.647   2.142   9.557  0.0468 -0.0453 -0.3239
    5loPI   C2A   72  13.854   1.937   9.195  0.0829  0.0046 -0.1262
    5loPI   C3A   73  13.675   1.938   8.776 -0.1340  0.0257  0.2884
    5loPI   C4A   74  13.548   1.917   8.345 -0.0201  0.1514  0.3026
    5loPI   C5A   75  13.387   2.262   8.162  0.0816  0.2785  0.0060
    5loPI   C6A   76  13.162   2.526   7.891  0.0789  0.1040  0.0763
    5loPI   C1B   77  13.192   2.198   9.395  0.1733  0.0364  0.0271
    5loPI   C2B   78  13.365   2.249   9.017  0.0021  0.1413  0.1822
    5loPI   C3B   79  13.375   2.426   8.624 -0.0622 -0.1023  0.1476
    5loPI   C4B   80  13.574   2.724   8.291 -0.3365 -0.2077  0.1706
    6loPI    C1   81   2.019   0.024  10.370 -0.1693  0.0982  0.2567
    6loPI    C2   82   2.205   0.378  10.372 -0.1522  0.0941 -0.0739
    6loPI    C3   83   2.376   0.061  10.547 -0.1305  0.2290  0.1527
    6loPI   PO4   84   2.001  -0.076  10.130 -0.1301  0.2545  0.1493
    6loPI   GL1   85   1.655  -0.209   9.854  0.1410 -0.1634  0.0950
    6loPI   GL2   86   1.869   0.008   9.673  0.1742  0.1893 -0.0242
    6loPI   C1A   87   1.437  -0.372   9.462 -0.1287  0.0855  0.2551
    6loPI   C2A   88   1.537  -0.448   9.017 -0.0534  0.2920 -0.2419
    6loPI   C3A   89   1.407  -0.379   8.561 -0.0780  0.0628 -0.1575
    6loPI   C4A   90   1.588  -0.186   8.196  0.0235 -0.1695  0.0542
    6loPI   C5A   91   1.892  -0.024   7.924  0.0704 -0.1830  0.3373
    6loPI   C6A   92   2.207   0.174   7.903 -0.1145  0.2811 -0.0655
    6loPI   C1B   93   1.766   0.169   9.227  0.0061 -0.3043 -0.0938
    6loPI   C2B   94   1.688   0.007   8.827 -0.2750  0.1966  0.0476
    6loPI   C3B   95   1.270   0.142   8.548 -0.1737 -0.1512 -0.1628
    6loPI   C4B   96   1.060   0.289   8.267  0.0545 -0.0879  0.0005
    7loPI    C1   97   6.264   1.123  10.623 -0.2239 -0.1028 -0.1026
    7loPI    C2   98   6.285   1.515  10.548  0.2463 -0.0502  0.2619
    7loPI    C3   99   5.948   1.358  10.696 -0.0068  0.1789 -0.0544
    7loPI   PO4  100   6.348   1.016  10.371 -0.2004  0.3766  0.0298
    7loPI   GL1  101   6.453   1.231  10.044 -0.0150 -0.0792  0.1809
    7loPI   GL2  102   6.401   1.543  10.042  0.0022  0.0337 -0.1108
    7loPI   C1A  103   6.484   1.239   9.631 -0.0991  0.1617  0.1834
    7loPI   C2A  104   6.547   1.142   9.210  0.1334 -0.0914 -0.0688
    7loPI   C3A  105   6.483   1.212   8.741 -0.0167  0.0796  0.1732
    7loPI   C4A  106   6.419   1.070   8.364  0.0545 -0.4111 -0.3798
    7loPI   C5A  107   6.300   0.716   8.104  0.0383  0.1559 -0.1422
    7loPI   C6A  108   5.944   0.415   8.019 -0.2473  0.0995  0.1808
    7loPI   C1B  109   6.754   1.577   9.824  0.2096 -0.0370  0.3334
    7loPI   C2B  110   6.721   1.578   9.346  0.1408  0.0259  0.3387
    7loPI   C3B  111   6.665   1.618   8.860  0.2525 -0.2268 -0.0166
    7loPI   C4B  112   6.778   1.933   8.536  0.1772  0.2645  0.2929
    8loPI    C1  113  14.820  16.707  10.446 -0.3357 -0.0266  0.0408
    8loPI    C2  114  14.574  16.775  10.753 -0.2631 -0.0297  0.0999
    8loPI    C3  115  14.948  16.915  10.762 -0.2665 -0.0142  0.0047
    8loPI   PO4  116  14.668  16.665  10.218 -0.1637 -0.1237 -0.0658
    8loPI   GL1  117  14.732  16.812   9.837  0.2694 -0.0604  0.1316
    8loPI   GL2  118  14.951  17.012   9.838 -0.0755  0.4148  0.0987
    8loPI   C1A  119  14.814  16.769   9.398 -0.2205  0.0462 -0.1106
    8loPI   C2A  120  14.781  16.783   8.935 -0.0451  0.1027  0.1544
    8loPI   C3A  121  14.796  16.714   8.446 -0.1466 -0.1082 -0.0033
    8loPI   C4A  122  15.032  16.633   8.070 -0.4427 -0.2029 -0.0174
    8loPI   C5A  123  15.376  16.262   8.022  0.0899  0.0587 -0.1180
    8loPI   C6A  124  15.611  16.020   7.710 -0.0223  0.1663 -0.1168
    8loPI   C1B  125  15.112  17.251   9.432 -0.4213  0.0465 -0.1386
    8loPI   C2B  126  15.084  17.202   9.076 -0.1117  0.2979 -0.1476
    8loPI   C3B  127  15.074  17.160   8.721 -0.1512  0.0124 -0.0128
    8loPI   C4B  128  15.039  17.267   8.257 -0.2714  0.0702  0.2412
    9loPI    C1  129  18.318  16.966  10.502 -0.0821 -0.1046 -0.0927
    9loPI    C2  130  18.462  16.666  10.723 -0.1201  0.0684  0.1709
    9loPI    C3  131  18.643  17.022  10.728  0.1038 -0.0275 -0.3734
    9loPI   PO4  132  18.200  17.015  10.207  0.0785 -0.0031 -0.2225
    9loPI   GL1  133  18.234  16.748   9.823 -0.0071  0.0731  0.1716
    9loPI   GL2  134  18.545  17.043   9.790 -0.0898  0.3373 -0.1476
    9loPI   C1A  135  17.967  16.866   9.500  0.0691  0.1674 -0.1793
    9loPI   C2A  136  17.883  16.977   9.049  0.1875 -0.0705 -0.2103
    9loPI   C3A  137  17.974  17.087   8.635  0.3537 -0.1294 -0.0325
    9loPI   C4A  138  18.045  16.976   8.210 -0.3639  0.0619 -0.0284
    9loPI   C5A  139  18.120  16.717   7.864 -0.1324 -0.3387 -0.0270
    9loPI   C6A  140  18.448  16.472   7.683  0.0324  0.0201  0.0344
    9loPI   C1B  141  18.432  16.901   9.373 -0.1615  0.0406 -0.2588
    9loPI   C2B  142  18.432  17.017   8.996  0.0019 -0.1363 -0.0109
    9loPI   C3B  143  18.544  16.968   8.522  0.1076  0.0207  0.0693
    9loPI   C4B  144  18.607  16.928   8.077 -0.0731  0.1228  0.0306
   10loPI    C1  145   0.806   6.854   9.966 -0.1556  0.1481  0.1273
   10loPI    C2  146   0.608   6.536  10.106  0.3419 -0.1992  0.0671
   10loPI    C3  147   0.840   6.752  10.351  0.1939 -0.0242  0.0549
   10loPI   PO4  148   1.004   6.809   9.745  0.2043  0.2714 -0.2644
   10loPI   GL1  149   1.050   7.066   9.380  0.1217 -0.2468  0.1050
   10loPI   GL2  150   0.989   7.388   9.267  0.4471 -0.1903 -0.1721
   10loPI   C1A  151   0.736   6.996   9.092  0.1134  0.1856 -0.0469
   10loPI   C2A  152   0.600   6.953   8.653 -0.1026 -0.3216  0.1204
   10loPI   C3A  153   0.499   6.968   8.230 -0.1565 -0.0110  0.1222
   10loPI   C4A  154   0.559   6.967   7.743 -0.0158  0.3344  0.0648
   10loPI   C5A  155   0.691   6.578   7.470  0.0991  0.1866  0.0370
   10loPI   C6A  156   0.571   6.224   7.176  0.0437  0.2112  0.0105
   10loPI   C1B  157   0.772   7.430   8.813 -0.3401 -0.1749 -0.2142
   10loPI   C2B  158   0.703   7.480   8.431 -0.1084  0.1223  0.0609
   10loPI   C3B  159   0.340   7.381   8.204 -0.1292 -0.2855  0.1536
   10loPI   C4B  160   0.158   7.439   7.746 -0.3388  0.0144 -0.0539
   11loPI    C1  161   3.031   0.326  10.603 -0.1806  0.1068  0.0039
   11loPI    C2  162   2.786   0.244  10.908 -0.2519 -0.1969 -0.1317
   11loPI    C3  163   3.123   0.034  10.860 -0.0416  0.1125 -0.0387
   11loPI   PO4  164   2.801   0.342  10.341  0.0342  0.0116  0.0448
   11loPI   GL1  165   2.758   0.416   9.876  0.0927 -0.1191 -0.2391
   11loPI   GL2  166   2.891   0.497   9.665  0.0498 -0.0564  0.2384
   11loPI   C1A  167   2.467   0.746   9.712  0.2981  0.1155  0.1553
   11loPI   C2A  168   2.294   1.132   9.546  0.1989 -0.1038  0.0121
   11loPI   C3A  169   2.001   1.390   9.158 -0.1099  0.1696 -0.0903
   11loPI   C4A  170   1.800   1.365   8.697 -0.3036 -0.0541 -0.0402
   11loPI   C5A  171   1.749   1.413   8.214  0.0582  0.0995  0.0799
   11loPI   C6A  172   1.840   1.140   7.857  0.2290  0.0534 -0.2564
   11loPI   C1B  173   2.792   0.476   9.224  0.1848  0.1970 -0.4937
   11loPI   C2B  174   2.626   0.584   8.846  0.0826 -0.1225 -0.2314
   11loPI   C3B  175   2.383   0.477   8.486  0.0633 -0.0438 -0.0180
   11loPI   C4B  176   2.152   0.673   8.212 -0.1588  0.0659 -0.2430
   12loPI    C1  177   6.474  17.215  10.441 -0.1361 -0.0226 -0.0401
   12loPI    C2  178   6.600  17.051  10.783 -0.0910 -0.0256 -0.0581
   12loPI    C3  179   6.685  17.433  10.701  0.0589 -0.0779 -0.1500
   12loPI   PO4  180   6.577  17.063  10.259 -0.2829  0.2531 -0.3875
   12loPI   GL1  181   6.708  17.067   9.879  0.1671  0.4229  0.3365
   12loPI   GL2  182   6.884  17.264   9.877 -0.0146 -0.4348  0.1337
   12loPI   C1A  183   6.426  16.876   9.508  0.0746 -0.0368  0.0746
   12loPI   C2A  184   6.367  16.947   9.124 -0.3744 -0.3221 -0.0899
   12loPI   C3A  185   6.248  16.839   8.680 -0.0909 -0.0604 -0.2417
   12loPI   C4A  186   6.185  16.522   8.370  0.0846 -0.1510  0.0931
   12loPI   C5A  187   6.400  16.468   8.038 -0.0275 -0.2061  0.1566
   12loPI   C6A  188   6.673  16.669   7.669  0.0166  0.0877 -0.0546
   12loPI   C1B  189   6.813  17.258   9.440 -0.1320  0.2089 -0.3083
   12loPI   C2B  190   6.743  17.272   9.023  0.2597 -0.1361  0.1068
   12loPI   C3B  191   6.815  17.316   8.574  0.1005 -0.0412 -0.1666
   12loPI   C4B  192   6.879  17.307   8.202  0.1470  0.1277 -0.3950
   13loPI    C1  193  12.355   8.695  10.357 -0.0642 -0.0106  0.0259
   13loPI    C2  194  12.754   8.695  10.374 -0.0594  0.3656  0.0135
   13loPI    C3  195  12.539   8.749  10.707 -0.1063  0.0101  0.0450
   13loPI   PO4  196  12.339   8.453  10.210 -0.2904 -0.1280 -0.3445
   13loPI   GL1  197  12.322   8.604   9.752 -0.0501 -0.1472  0.0567
   13loPI   GL2  198  12.131   8.843   9.865  0.0920 -0.0836 -0.3504
   13loPI   C1A  199  12.179   8.749   9.225  0.1616  0.2272 -0.1280
   13loPI   C2A  200  12.064   8.876   8.805 -0.0095 -0.1216 -0.1832
   13loPI   C3A  201  12.093   8.863   8.328  0.1318  0.2048 -0.0517
   13loPI   C4A  202  12.258   8.627   8.103  0.2403  0.0080 -0.1914
   13loPI   C5A  203  12.318   8.290   8.027 -0.1076  0.2113  0.0275
   13loPI   C6A  204  12.165   8.035   7.795 -0.0392 -0.0661  0.1120
   13loPI   C1B  205  11.959   9.151   9.477 -0.1942  0.0869  0.0723
   13loPI   C2B  206  11.939   9.288   9.019  0.2506  0.0432 -0.0107
   13loPI   C3B  207  11.855   9.296   8.619 -0.0362 -0.3158  0.2543
   13loPI   C4B  208  11.976   9.405   8.239  0.2912  0.2493 -0.0239
   14loPI    C1  209   1.586  10.522   9.947 -0.1449  0.2181  0.1251
   14loPI    C2  210   1.973  10.459  10.028 -0.1356 -0.0000 -0.0786
   14loPI    C3  211   1.704  10.451  10.323 -0.0377 -0.2730  0.0065
   14loPI   PO4  212   1.543  10.406   9.732  0.0374 -0.3403  0.2501
   14loPI   GL1  213   1.545  10.364   9.274 -0.3134  0.1246 -0.2416
   14loPI   GL2  214   1.230  10.258   9.332  0.0535  0.2051 -0.0396
   14loPI   C1A  215   1.483  10.317   8.798  0.0175  0.0948  0.3006
   14loPI   C2A  216   1.438   9.946   8.551  0.0278 -0.0112  0.0351
   14loPI   C3A  217   1.580   9.961   8.096  0.3162  0.3144  0.1169
   14loPI   C4A  218   1.587  10.151   7.763 -0.0129 -0.0640 -0.2411
   14loPI   C5A  219   1.327  10.184   7.405  0.2345  0.1661  0.0061
   14loPI   C6A  220   1.153  10.025   7.048  0.3701 -0.0242 -0.0832
   14loPI   C1B  221   1.244   9.822   9.090 -0.1669  0.0640 -0.1407
   14loPI   C2B  222   1.688   9.708   8.965  0.2059 -0.0127  0.1377
   14loPI   C3B  223   1.898   9.637   8.523 -0.0657  0.2092  0.2484
   14loPI   C4B  224   1.668   9.473   8.075  0.1920  0.2334 -0.3560
   15loPI    C1  225  13.951  16.189  10.342  0.1475  0.0509 -0.3417
   15loPI    C2  226  14.165  16.497  10.480 -0.0946  0.0940 -0.0514
   15loPI    C3  227  13.969  16.260  10.735 -0.1735 -0.1073 -0.2952
   15loPI   PO4  228  13.987  16.197  10.152  0.0280 -0.0629  0.2600
   15loPI   GL1  229  14.242  16.377   9.845 -0.0617 -0.3152  0.1811
   15loPI   GL2  230  14.496  16.190  10.078 -0.0229 -0.0528 -0.2239
   15loPI   C1A  231  14.221  16.339   9.400  0.1775  0.0401 -0.1773
   15loPI   C2A  232  14.077  16.234   9.029 -0.4092  0.0927  0.1851
   15loPI   C3A  233  14.083  16.242   8.608  0.0289 -0.0860 -0.3280
   15loPI   C4A  234  13.744  16.203   8.424 -0.3766  0.0677 -0.0671
   15loPI   C5A  235  13.633  16.215   8.054 -0.0114  0.0481  0.0176
   15loPI   C6A  236  13.642  16.468   7.738  0.1947  0.0240 -0.0497
   15loPI   C1B  237  14.690  16.308   9.652 -0.1119 -0.0713  0.2455
   15loPI   C2B  238  14.719  16.301   9.141  0.4384 -0.4366  0.0603
   15loPI   C3B  239  14.518  16.366   8.826  0.1847  0.1293 -0.0919
   15loPI   C4B  240  14.546  16.290   8.407 -0.0851  0.0404  0.0404
   16loPI    C1  241  14.690  17.733  10.357 -0.2513  0.3965 -0.1903
   16loPI    C2  242  14.416  17.931  10.571 -0.4644 -0.1892  0.1014
   16loPI    C3  243  14.353  17.549  10.470  0.0105 -0.1717 -0.2984
   16loPI   PO4  244  14.691  17.805  10.124 -0.2272  0.2467 -0.1660
   16loPI   GL1  245  14.738  18.002   9.711 -0.1867  0.2425  0.0818
   16loPI   GL2  246  14.416  17.822   9.583 -0.0527 -0.3029  0.1180
   16loPI   C1A  247  14.579  18.224   9.370 -0.0340  0.0582  0.4790
   16loPI   C2A  248  14.513  18.319   8.903  0.1207 -0.0945  0.1625
   16loPI   C3A  249  14.191  18.574   8.488 -0.2693  0.0537 -0.1969
   16loPI   C4A  250  13.926  18.637   8.185  0.4922 -0.3632  0.0587
   16loPI   C5A  251  14.105  18.823   7.908 -0.0755 -0.3653  0.0617
   16loPI   C6A  252  14.590  18.919   7.940  0.0796 -0.1674 -0.1997
   16loPI   C1B  253  14.236  17.647   9.196 -0.1951  0.0445  0.1208
   16loPI   C2B  254  14.116  17.603   8.803  0.0973  0.0114  0.2633
   16loPI   C3B  255  14.264  17.585   8.421 -0.3034 -0.2820  0.3285
   16loPI   C4B  256  14.600  17.540   8.071  0.0225 -0.0112 -0.3015
   17loPI    C1  257   0.871   8.614   9.953 -0.2460 -0.0307 -0.0896
   17loPI    C2  258   1.084   8.326  10.130  0.0043 -0.0456 -0.4053
   17loPI    C3  259   0.926   8.264   9.769 -0.0734  0.1589 -0.4075
   17loPI   PO4  260   0.921   8.895   9.950 -0.2147 -0.1914  0.0086
   17loPI   GL1  261   0.869   9.092   9.603 -0.2293  0.0790 -0.3096
   17loPI   GL2  262   0.807   8.938   9.294  0.3455  0.2495 -0.2380
   17loPI   C1A  263   0.983   9.360   9.157  0.2199  0.2000  0.1113
   17loPI   C2A  264   0.852   9.554   8.774 -0.3957 -0.0956  0.2290
   17loPI   C3A  265   0.856   9.818   8.515 -0.0154  0.1676  0.0836
   17loPI   C4A  266   0.602  10.112   8.117 -0.1201 -0.3949 -0.3500
   17loPI   C5A  267   0.838  10.415   7.895  0.2210  0.0900 -0.1844
   17loPI   C6A  268   1.179  10.414   7.798 -0.1081  0.0367 -0.2066
   17loPI   C1B  269   0.982   8.926   8.894 -0.2116 -0.1642 -0.2699
   17loPI   C2B  270   1.048   8.802   8.520  0.0470 -0.1657  0.0755
   17loPI   C3B  271   0.920   8.973   8.120 -0.0479  0.1439  0.0663
   17loPI   C4B  272   0.861   9.072   7.636  0.1335 -0.1160  0.1113
   18loPI    C1  273   7.544  15.027  10.309  0.3398  0.0985  0.2297
   18loPI    C2  274   7.323  15.118  10.629  0.0419  0.1397  0.0173
   18loPI    C3  275   7.271  15.319  10.287  0.2433 -0.0113 -0.1043
   18loPI   PO4  276   7.838  15.041  10.400 -0.0673  0.1544  0.0689
   18loPI   GL1  277   8.182  14.962  10.071 -0.1764 -0.1423  0.0821
   18loPI   GL2  278   7.852  14.816   9.928  0.0478  0.0246 -0.0811
   18loPI   C1A  279   8.121  15.191   9.681  0.2043 -0.0373 -0.0793
   18loPI   C2A  280   8.279  15.436   9.342 -0.0604  0.2726 -0.0399
   18loPI   C3A  281   8.469  15.491   8.928 -0.1115  0.0712  0.3734
   18loPI   C4A  282   8.694  15.426   8.543  0.0718  0.1598 -0.0391
   18loPI   C5A  283   8.793  15.123   8.475 -0.1173  0.1471  0.2749
   18loPI   C6A  284   8.641  14.754   8.542  0.0381 -0.0741  0.0171
   18loPI   C1B  285   7.743  14.823   9.486  0.2342  0.3798  0.1575
   18loPI   C2B  286   7.873  14.622   9.167  0.0864 -0.2320 -0.0746
   18loPI   C3B  287   8.111  14.570   8.795 -0.1562 -0.0763  0.0124
   18loPI   C4B  288   8.238  14.470   8.390 -0.3055  0.0843 -0.1847
   19loPI    C1  289  14.708   7.931  10.805  0.1681  0.2211 -0.0544
   19loPI    C2  290  14.343   7.871  10.958  0.1861  0.0279 -0.0858
   19loPI    C3  291  14.558   8.188  11.073  0.0707  0.0583  0.0487
   19loPI   PO4  292  14.748   7.991  10.543  0.0090  0.0271  0.1826
   19loPI   GL1  293  14.956   7.952  10.072 -0.1545  0.2631  0.0080
   19loPI   GL2  294  14.723   7.744   9.849  0.0651 -0.2008 -0.0567
   19loPI   C1A  295  14.606   8.183   9.734  0.2616  0.1084 -0.0795
   19loPI   C2A  296  14.656   8.080   9.338 -0.0835  0.0004 -0.2726
   19loPI   C3A  297  14.698   8.091   8.949 -0.2406 -0.0330 -0.0846
   19loPI   C4A  298  14.676   8.183   8.516  0.3638  0.0741 -0.2014
   19loPI   C5A  299  14.590   8.184   8.081 -0.0162  0.1174 -0.1957
   19loPI   C6A  300  14.883   8.002   7.715 -0.3096 -0.5371  0.4470
   19loPI   C1B  301  14.507   7.648   9.603  0.2273  0.2549  0.0041
   19loPI   C2B  302  14.463   7.630   9.162 -0.2348  0.4839  0.1467
   19loPI   C3B  303  14.567   7.670   8.700 -0.2406 -0.2100  0.2235
   19loPI   C4B  304  14.504   7.650   8.260 -0.0924  0.1009  0.1010
   20loPI    C1  305  10.572   5.003  10.593 -0.0821  0.1421  0.0007
   20loPI    C2  306  10.190   5.079  10.685 -0.0727  0.1229  0.0559
   20loPI    C3  307  10.479   5.328  10.806 -0.0594  0.0932  0.0854
   20loPI   PO4  308  10.480   4.944  10.327  0.1160 -0.1937  0.0857
   20loPI   GL1  309  10.422   4.600  10.016 -0.1936  0.3462  0.0332
   20loPI   GL2  310  10.155   4.478  10.039  0.0439  0.0598  0.1066
   20loPI   C1A  311  10.767   4.514   9.702 -0.2365 -0.0018 -0.0564
   20loPI   C2A  312  10.786   4.543   9.211 -0.1769 -0.2692  0.0687
   20loPI   C3A  313  10.894   4.383   8.822  0.1474  0.0554 -0.1869
   20loPI   C4A  314  11.005   4.395   8.485 -0.3537 -0.0723  0.0499
   20loPI   C5A  315  11.062   4.398   8.133 -0.0663  0.3583  0.1581
   20loPI   C6A  316  10.875   4.530   7.795  0.2679 -0.0752 -0.0781
   20loPI   C1B  317   9.965   4.457   9.682 -0.3993 -0.0450  0.2065
   20loPI   C2B  318   9.845   4.431   9.246  0.0649 -0.2546 -0.1715
   20loPI   C3B  319   9.899   4.325   8.752 -0.0611 -0.3083  0.1585
   20loPI   C4B  320   9.965   4.370   8.299 -0.0729 -0.2139  0.0092
   21loPI    C1  321  16.688   8.619  10.278 -0.1788  0.0903 -0.0964
   21loPI    C2  322  16.741   8.500  10.656 -0.1556 -0.1913 -0.1852
   21loPI    C3  323  16.568   8.853  10.579 -0.3059 -0.2031  0.0855
   21loPI   PO4  324  16.614   8.454  10.194 -0.0389 -0.0790  0.1374
   21loPI   GL1  325  16.169   8.420   9.996  0.1056 -0.1544  0.0542
   21loPI   GL2  326  15.894   8.494  10.059  0.1454 -0.2314  0.0204
   21loPI   C1A  327  16.023   8.523   9.520  0.0193 -0.1557 -0.1986
   21loPI   C2A  328  16.059   8.559   9.025 -0.1026 -0.0605  0.1487
   21loPI   C3A  329  15.997   8.707   8.558 -0.1130  0.0220  0.3293
   21loPI   C4A  330  15.824   8.966   8.165  0.2708 -0.0348 -0.1247
   21loPI   C5A  331  15.778   9.294   7.861  0.0107  0.0446  0.0640
   21loPI   C6A  332  15.482   9.556   7.674 -0.3077  0.0127  0.0305
   21loPI   C1B  333  15.571   8.579   9.763 -0.1337  0.3973 -0.1764
   21loPI   C2B  334  15.392   8.573   9.417 -0.1198  0.0402 -0.0335
   21loPI   C3B  335  15.422   8.690   9.021  0.3573 -0.0257  0.2285
   21loPI   C4B  336  15.454   8.686   8.575  0.1236 -0.2043  0.1657
   22loPI    C1  337   1.367   9.056   9.898  0.0969  0.2871 -0.3070
   22loPI    C2  338   1.665   8.980  10.154 -0.0699  0.0369 -0.1829
   22loPI    C3  339   1.369   9.226  10.260  0.1708  0.4167 -0.3673
   22loPI   PO4  340   1.487   8.972   9.603 -0.1922 -0.1251  0.0932
   22loPI   GL1  341   1.332   9.035   9.289 -0.1147 -0.1156  0.0025
   22loPI   GL2  342   1.477   9.338   9.240 -0.0392  0.0772  0.0172
   22loPI   C1A  343   1.537   8.814   8.942 -0.2863 -0.0786 -0.0351
   22loPI   C2A  344   1.555   8.605   8.607 -0.1029 -0.0442 -0.0312
   22loPI   C3A  345   1.362   8.634   8.159  0.0087  0.0590 -0.0984
   22loPI   C4A  346   1.292   8.739   7.710 -0.1741  0.0107  0.0551
   22loPI   C5A  347   1.283   8.749   7.251  0.0310 -0.0662  0.0268
   22loPI   C6A  348   1.117   8.569   6.921 -0.1273 -0.0911 -0.1527
   22loPI   C1B  349   1.267   9.319   8.758 -0.2379  0.0315  0.0285
   22loPI   C2B  350   1.288   9.230   8.320  0.1555 -0.1622 -0.3804
   22loPI   C3B  351   1.273   9.230   7.801 -0.0656 -0.1046 -0.2122
   22loPI   C4B  352   1.229   9.248   7.341  0.1085  0.1236  0.1846
   23loPI    C1  353  18.060  16.443  10.611 -0.0727  0.0938 -0.2383
   23loPI    C2  354  17.846  16.781  10.597 -0.3289 -0.0505  0.0602
   23loPI    C3  355  18.042  16.683  10.931  0.0697 -0.0064 -0.1541
   23loPI   PO4  356  18.155  16.436  10.420  0.1474  0.1354  0.4844
   23loPI   GL1  357  18.308  16.275   9.994 -0.0877  0.0129 -0.1340
   23loPI   GL2  358  17.905  16.335   9.948  0.1616 -0.0032  0.1449
   23loPI   C1A  359  18.373  16.339   9.528 -0.2816 -0.3714  0.3202
   23loPI   C2A  360  18.170  16.502   9.156 -0.4064 -0.1423  0.0070
   23loPI   C3A  361  18.210  16.657   8.746  0.2151 -0.0480  0.0220
   23loPI   C4A  362  18.252  16.527   8.309  0.0418 -0.1765 -0.0950
   23loPI   C5A  363  18.326  16.196   8.050 -0.0579  0.0922  0.0102
   23loPI   C6A  364  18.191  16.088   7.648 -0.0291  0.0232 -0.0297
   23loPI   C1B  365  17.658  16.504   9.633  0.0729  0.0475  0.0351
   23loPI   C2B  366  17.685  16.508   9.194  0.1228  0.2355 -0.4449
   23loPI   C3B  367  17.688  16.606   8.787  0.1056  0.0968  0.2208
   23loPI   C4B  368  17.776  16.609   8.439  0.2683  0.0264 -0.1853
   24loPI    C1  369   1.030   5.065  10.026  0.0245  0.0030  0.0879
   24loPI    C2  370   1.142   5.158  10.398  0.0690 -0.0163  0.0793
   24loPI    C3  371   1.103   4.775  10.291 -0.1141 -0.0083  0.1143
   24loPI   PO4  372   1.159   5.169   9.902 -0.0673 -0.0153  0.0661
   24loPI   GL1  373   1.272   5.024   9.539 -0.0324  0.0746 -0.1258
   24loPI   GL2  374   1.306   5.151   9.243  0.2848  0.0055  0.0855
   24loPI   C1A  375   1.269   4.654   9.293 -0.2306 -0.2341 -0.4023
   24loPI   C2A  376   1.319   4.638   8.951 -0.1458 -0.4331 -0.2083
   24loPI   C3A  377   1.288   4.555   8.451  0.1392  0.3690 -0.0977
   24loPI   C4A  378   1.514   4.375   8.050 -0.2126  0.1981  0.1804
   24loPI   C5A  379   1.855   4.416   7.742  0.1281  0.0180 -0.0378
   24loPI   C6A  380   2.215   4.287   7.651 -0.0509  0.0959 -0.1758
   24loPI   C1B  381   1.090   5.181   8.847 -0.2130  0.0579  0.2918
   24loPI   C2B  382   0.767   5.095   8.545  0.1000 -0.0340 -0.5058
   24loPI   C3B  383   0.555   4.976   8.211 -0.2086  0.1604  0.1462
   24loPI   C4B  384   0.579   4.859   7.742  0.0639  0.1616  0.1515
   25loPI    C1  385  15.969  10.256  10.476 -0.0949  0.1190  0.0235
   25loPI    C2  386  16.104  10.493  10.183  0.2000 -0.1048 -0.0267
   25loPI    C3  387  16.307  10.164  10.283 -0.0935 -0.2267  0.1841
   25loPI   PO4  388  15.684  10.264  10.382  0.1879 -0.0186  0.1921
   25loPI   GL1  389  15.402  10.275  10.074  0.1310  0.0328  0.1383
   25loPI   GL2  390  15.619  10.505   9.949  0.0918 -0.1528 -0.0050
   25loPI   C1A  391  15.187  10.200   9.659 -0.0745 -0.0566 -0.0224
   25loPI   C2A  392  15.277  10.152   9.336  0.1791  0.4729 -0.0650
   25loPI   C3A  393  15.168  10.062   8.908  0.1024 -0.1367 -0.0889
   25loPI   C4A  394  15.070   9.992   8.552  0.0839  0.0091  0.2924
   25loPI   C5A  395  15.015   9.767   8.220 -0.0872 -0.1847  0.0932
   25loPI   C6A  396  15.084   9.898   7.782  0.1119 -0.1866  0.2624
   25loPI   C1B  397  15.653  10.441   9.521  0.0835  0.1330  0.0110
   25loPI   C2B  398  15.519  10.426   9.041 -0.3080 -0.1358  0.0968
   25loPI   C3B  399  15.369  10.427   8.561 -0.1007  0.1851 -0.2410
   25loPI   C4B  400  15.268  10.265   8.175  0.0952 -0.0049 -0.2002
   26loPI    C1  401   8.167   1.764  10.631  0.0409 -0.0578  0.1635
   26loPI    C2  402   7.819   1.914  10.758  0.0438  0.0930 -0.0020
   26loPI    C3  403   8.151   1.967  10.975  0.0063  0.1471  0.0426
   26loPI   PO4  404   8.136   1.775  10.290  0.0097  0.0718 -0.4381
   26loPI   GL1  405   8.327   1.804   9.880 -0.3261 -0.1950  0.1056
   26loPI   GL2  406   8.340   1.510   9.845 -0.1655  0.0097  0.0013
   26loPI   C1A  407   8.382   1.888   9.525 -0.1350 -0.1156 -0.0622
   26loPI   C2A  408   8.485   1.933   9.099  0.2907  0.1532 -0.0694
   26loPI   C3A  409   8.554   1.925   8.629  0.1254 -0.3810  0.0741
   26loPI   C4A  410   8.623   1.849   8.238  0.2503  0.2900  0.1361
   26loPI   C5A  411   8.811   1.963   7.747 -0.1969 -0.0131 -0.1005
   26loPI   C6A  412   8.786   2.424   7.532 -0.0062  0.1601 -0.0248
   26loPI   C1B  413   8.332   1.418   9.372  0.2340  0.2666  0.2326
   26loPI   C2B  414   8.342   1.486   9.032 -0.0038 -0.1025  0.0990
   26loPI   C3B  415   8.304   1.500   8.630 -0.1239 -0.1488  0.1375
   26loPI   C4B  416   8.373   1.422   8.186  0.2838  0.0278  0.1046
   27loPI    C1  417   9.302  17.666  10.993  0.1477  0.0127  0.0862
   27loPI    C2  418   9.336  18.010  11.195  0.0032  0.0368  0.0708
   27loPI    C3  419   9.058  17.742  11.300  0.0192 -0.0114 -0.0088
   27loPI   PO4  420   9.341  17.751  10.751 -0.1890 -0.1376 -0.0091
   27loPI   GL1  421   9.417  17.821  10.385 -0.1240  0.2076  0.1796
   27loPI   GL2  422   9.096  17.645  10.332 -0.0772  0.0031  0.3072
   27loPI   C1A  423   9.622  17.908  10.068  0.2185 -0.2306 -0.1704
   27loPI   C2A  424   9.657  18.269   9.841 -0.0705 -0.2429 -0.0285
   27loPI   C3A  425   9.618  18.374   9.341  0.0626 -0.1569 -0.0177
   27loPI   C4A  426   9.400  18.342   8.970  0.0364 -0.1088  0.1740
   27loPI   C5A  427   9.433  18.333   8.543  0.1436  0.2652  0.2263
   27loPI   C6A  428   9.516  18.073   8.167  0.0958  0.0040  0.1715
   27loPI   C1B  429   9.300  17.540   9.921  0.0339  0.1022  0.2016
   27loPI   C2B  430   9.452  17.628   9.601  0.0713  0.0574 -0.0449
   27loPI   C3B  431   9.347  17.623   9.162  0.0791 -0.0632 -0.2910
   27loPI   C4B  432   9.277  17.512   8.731  0.1435  0.1043 -0.1177
   28loPI    C1  433   9.535  12.668  10.739 -0.0255  0.0410 -0.1642
   28loPI    C2  434   9.366  12.327  10.862 -0.0132  0.0220 -0.1997
   28loPI    C3  435   9.244  12.676  11.013 -0.0879  0.0086 -0.2289
   28loPI   PO4  436   9.494  12.633  10.422 -0.0391  0.2300 -0.0684
   28loPI   GL1  437   9.362  12.427  10.143  0.0122  0.0274  0.1730
   28loPI   GL2  438   9.243  12.102   9.979  0.1539  0.0083  0.0408
   28loPI   C1A  439   9.343  12.445   9.635  0.1719 -0.4414 -0.1316
   28loPI   C2A  440   9.558  12.433   9.306 -0.2330 -0.2555  0.0650
   28loPI   C3A  441   9.726  12.243   8.842  0.3403  0.2786  0.1665
   28loPI   C4A  442   9.786  12.267   8.397  0.0715  0.5643  0.2707
   28loPI   C5A  443   9.525  12.266   8.088  0.0098  0.0464 -0.1973
   28loPI   C6A  444   9.104  12.026   8.059  0.0103 -0.4776 -0.4802
   28loPI   C1B  445   9.447  11.825   9.599 -0.0577  0.1015 -0.4343
   28loPI   C2B  446   9.507  11.827   9.102  0.3525  0.0076 -0.1648
   28loPI   C3B  447   9.717  11.690   8.774 -0.1396 -0.1120 -0.0265
   28loPI   C4B  448   9.758  11.286   8.732 -0.2869 -0.1684 -0.0477
   29loPI    C1  449   3.865  10.086   9.996  0.2531  0.1377 -0.1690
   29loPI    C2  450   3.485  10.187  10.066  0.1746 -0.3172  0.0979
   29loPI    C3  451   3.779  10.443  10.155 -0.0695  0.0875 -0.2258
   29loPI   PO4  452   3.897   9.986   9.830  0.0322  0.1816 -0.2256
   29loPI   GL1  453   3.896   9.875   9.440  0.0252 -0.1922  0.2291
   29loPI   GL2  454   3.876  10.219   9.334 -0.0456  0.0247 -0.0105
   29loPI   C1A  455   4.306   9.996   9.159  0.2148  0.1156  0.1900
   29loPI   C2A  456   4.192   9.868   8.745  0.1348  0.1688  0.0117
   29loPI   C3A  457   4.400   9.875   8.348  0.0541  0.2540 -0.0192
   29loPI   C4A  458   4.462   9.509   8.016 -0.1408 -0.5424 -0.3013
   29loPI   C5A  459   4.271   9.645   7.640 -0.0071 -0.0265 -0.0548
   29loPI   C6A  460   4.068   9.591   7.323 -0.2095 -0.2169 -0.1871
   29loPI   C1B  461   3.869  10.193   8.918 -0.0220  0.3055 -0.3656
   29loPI   C2B  462   3.953  10.149   8.472 -0.1362  0.2080  0.2507
   29loPI   C3B  463   3.969   9.878   8.064 -0.0388 -0.3956 -0.0432
   29loPI   C4B  464   3.789   9.567   7.827  0.0450 -0.2342 -0.0924
   30loPI    C1  465  12.077   5.030  10.392  0.3084 -0.1673 -0.0169
   30loPI    C2  466  11.800   5.316  10.427  0.1774 -0.2868 -0.0665
   30loPI    C3  467  12.179   5.413  10.342  0.0767 -0.1468 -0.3698
   30loPI   PO4  468  11.992   4.921  10.231 -0.1001 -0.0171 -0.0874
   30loPI   GL1  469  12.047   4.666   9.892  0.1231 -0.0475 -0.0107
   30loPI   GL2  470  11.730   4.761   9.802  0.0887  0.1102  0.2633
   30loPI   C1A  471  12.070   4.951   9.543 -0.0072 -0.2922 -0.0645
   30loPI   C2A  472  12.202   4.946   9.067  0.0940 -0.3502 -0.1195
   30loPI   C3A  473  12.265   5.202   8.662 -0.2515  0.0650 -0.1984
   30loPI   C4A  474  12.396   5.145   8.198  0.2291 -0.0557 -0.0777
   30loPI   C5A  475  12.768   5.246   7.954 -0.2439  0.1193  0.2366
   30loPI   C6A  476  13.272   5.230   7.830  0.1227 -0.4448 -0.0190
   30loPI   C1B  477  11.795   4.535   9.390 -0.1050  0.4031 -0.0995
   30loPI   C2B  478  11.871   4.622   8.997 -0.1440 -0.1987 -0.1572
   30loPI   C3B  479  11.889   4.748   8.604  0.1644  0.0331 -0.2852
   30loPI   C4B  480  11.760   4.927   8.244  0.3145  0.1074 -0.1880
   31loPI    C1  481  14.340  15.915  10.519 -0.0069  0.0572  0.1599
   31loPI    C2  482  14.738  15.879  10.504  0.0036  0.1126  0.2927
   31loPI    C3  483  14.573  16.226  10.615 -0.0867  0.1989 -0.0954
   31loPI   PO4  484  14.257  15.779  10.337 -0.0496 -0.1278 -0.0972
   31loPI   GL1  485  14.293  15.788   9.980 -0.1548 -0.1505 -0.2534
   31loPI   GL2  486  14.627  15.622  10.020 -0.0584  0.1978 -0.1625
   31loPI   C1A  487  14.425  15.921   9.593 -0.0926  0.2200 -0.0694
   31loPI   C2A  488  14.438  15.881   9.151  0.2260  0.1438 -0.2823
   31loPI   C3A  489  14.358  15.822   8.807 -0.0977 -0.2410  0.1378
   31loPI   C4A  490  14.481  15.808   8.274  0.3398 -0.0591 -0.0755
   31loPI   C5A  491  14.789  15.957   8.131  0.0987  0.0667  0.2124
   31loPI   C6A  492  15.244  15.789   8.012  0.1516 -0.1598 -0.1147
   31loPI   C1B  493  14.769  15.449   9.683  0.1655  0.1030 -0.1967
   31loPI   C2B  494  14.735  15.415   9.232 -0.0748  0.5863  0.1359
   31loPI   C3B  495  14.738  15.405   8.778  0.2964  0.0545  0.0382
   31loPI   C4B  496  14.717  15.406   8.322  0.1432  0.0138  0.0138
   32loPI    C1  497  13.981   3.287  10.336 -0.0155 -0.0017  0.0479
   32loPI    C2  498  13.760   3.126  10.628 -0.1414  0.0425 -0.0221
   32loPI    C3  499  13.956   3.470  10.692 -0.0989  0.0074  0.0375
   32loPI   PO4  500  13.816   3.314  10.103 -0.0565  0.4593 -0.0427
   32loPI   GL1  501  13.896   3.322   9.740  0.0909 -0.2597 -0.0068
   32loPI   GL2  502  13.990   3.444   9.513  0.0949  0.1134 -0.0615
   32loPI   C1A  503  13.535   3.266   9.406 -0.1025  0.1286  0.0079
   32loPI   C2A  504  13.375   3.440   9.036 -0.0817 -0.1237  0.3004
   32loPI   C3A  505  13.213   3.644   8.585  0.1408 -0.2233  0.2263
   32loPI   C4A  506  13.013   3.753   8.274 -0.0540 -0.1245 -0.2886
   32loPI   C5A  507  12.949   4.037   7.994  0.3215 -0.1048 -0.2747
   32loPI   C6A  508  12.760   4.358   7.814  0.2772  0.0444  0.0927
   32loPI   C1B  509  13.921   3.341   9.046 -0.1790  0.0752  0.1040
   32loPI   C2B  510  14.030   3.393   8.628  0.0900 -0.0508  0.1651
   32loPI   C3B  511  13.821   3.363   8.201  0.0037  0.0389  0.2221
   32loPI   C4B  512  13.753   3.165   7.793 -0.2272  0.1789  0.1822
   33loPI    C1  513   4.436  17.784  10.958  0.0915  0.1986 -0.0230
   33loPI    C2  514   4.058  17.865  11.063  0.0206 -0.0389 -0.0901
   33loPI    C3  515   4.205  17.496  11.111  0.1427 -0.0287 -0.3641
   33loPI   PO4  516   4.438  17.842  10.703  0.2674  0.1159 -0.2521
   33loPI   GL1  517   4.390  17.774  10.294 -0.1634  0.3025  0.1939
   33loPI   GL2  518   4.168  18.028  10.060 -0.0739 -0.1463 -0.2450
   33loPI   C1A  519   4.403  17.662   9.850 -0.2743 -0.1307  0.2389
   33loPI   C2A  520   4.503  17.662   9.471  0.1473  0.0317 -0.2584
   33loPI   C3A  521   4.485  17.704   9.049 -0.1539  0.2069  0.1117
   33loPI   C4A  522   4.683  17.777   8.682 -0.0072 -0.1015  0.1691
   33loPI   C5A  523   4.805  17.728   8.218 -0.1839 -0.1362 -0.0045
   33loPI   C6A  524   5.228  17.662   8.055 -0.1981  0.0708  0.0556
   33loPI   C1B  525   4.084  18.114   9.744  0.0484  0.2044  0.0486
   33loPI   C2B  526   4.109  18.035   9.309  0.0271 -0.1712  0.1271
   33loPI   C3B  527   4.129  18.086   8.961  0.0608 -0.0362 -0.3244
   33loPI   C4B  528   4.221  18.073   8.563  0.1886  0.1292 -0.2762
   34loPI    C1  529   9.809   3.213  10.163  0.2488  0.0993 -0.1078
   34loPI    C2  530   9.847   3.544  10.385  0.2152  0.0461 -0.0223
   34loPI    C3  531   9.903   3.184  10.551  0.1991  0.0064 -0.1026
   34loPI   PO4  532   9.959   3.264   9.991  0.1843  0.0781 -0.1986
   34loPI   GL1  533  10.230   3.316   9.644  0.0025  0.0671  0.0894
   34loPI   GL2  534  10.064   2.968   9.619 -0.0522  0.1955  0.1694
   34loPI   C1A  535  10.348   3.442   9.293 -0.0637 -0.0999 -0.0342
   34loPI   C2A  536  10.352   3.464   8.852 -0.3063 -0.2246  0.2988
   34loPI   C3A  537  10.350   3.515   8.334  0.2488  0.1883  0.1670
   34loPI   C4A  538  10.483   3.575   7.934  0.0190  0.1941 -0.1159
   34loPI   C5A  539  10.659   3.353   7.607 -0.2863  0.1721  0.0410
   34loPI   C6A  540  11.046   3.057   7.381 -0.3017 -0.2253  0.0359
   34loPI   C1B  541  10.110   2.992   9.178  0.0844  0.3328  0.1532
   34loPI   C2B  542  10.011   3.023   8.747 -0.0860  0.1363 -0.2050
   34loPI   C3B  543  10.031   3.140   8.377  0.0020 -0.0366  0.1856
   34loPI   C4B  544   9.891   3.024   7.972  0.0611 -0.1523  0.4036
   35loPI    C1  545  14.438   8.800  10.696  0.1475 -0.0031 -0.1774
   35loPI    C2  546  14.689   8.893  10.993 -0.2015  0.1616  0.0725
   35loPI    C3  547  14.390   8.635  11.057 -0.1137 -0.0169 -0.2166
   35loPI   PO4  548  14.554   8.800  10.494 -0.3132 -0.0736  0.1688
   35loPI   GL1  549  14.548   8.909  10.073  0.2716  0.1634 -0.1292
   35loPI   GL2  550  14.392   9.162   9.881 -0.0565 -0.1631  0.0580
   35loPI   C1A  551  14.412   8.657   9.688  0.0450 -0.0452  0.0172
   35loPI   C2A  552  14.401   8.553   9.226  0.2789 -0.0252  0.1858
   35loPI   C3A  553  14.472   8.519   8.836  0.1990  0.2493  0.1912
   35loPI   C4A  554  14.429   8.626   8.393 -0.1788  0.0584 -0.1756
   35loPI   C5A  555  14.131   8.457   8.068  0.2858 -0.2173  0.2635
   35loPI   C6A  556  13.683   8.474   7.910  0.1038  0.1478  0.1504
   35loPI   C1B  557  14.215   9.079   9.452 -0.0379  0.2901  0.2315
   35loPI   C2B  558  14.207   9.025   9.041  0.0510 -0.0895  0.0432
   35loPI   C3B  559  13.988   9.005   8.614 -0.1749 -0.0840  0.1252
   35loPI   C4B  560  13.823   8.912   8.208  0.0059  0.1419  0.0033
   36loPI    C1  561   5.779   3.013  10.860 -0.0419 -0.0223  0.0536
   36loPI    C2  562   5.866   3.399  10.798 -0.2094  0.0081  0.0006
   36loPI    C3  563   5.965   3.224  11.144 -0.0559  0.0748 -0.0086
   36loPI   PO4  564   5.785   2.818  10.577  0.0199 -0.0581 -0.1791
   36loPI   GL1  565   5.576   2.804  10.147  0.0213 -0.0886 -0.0504
   36loPI   GL2  566   5.343   2.954  10.010 -0.1464  0.0464 -0.2031
   36loPI   C1A  567   5.737   2.741   9.752  0.0328 -0.1825 -0.1019
   36loPI   C2A  568   5.994   2.669   9.428 -0.0693 -0.1302  0.0532
   36loPI   C3A  569   6.185   2.839   9.223  0.0008  0.0740 -0.1309
   36loPI   C4A  570   6.315   2.794   8.857  0.3292 -0.0883 -0.1708
   36loPI   C5A  571   6.350   2.852   8.454  0.2600  0.1414 -0.1712
   36loPI   C6A  572   6.573   3.094   8.057 -0.0947  0.1015  0.0839
   36loPI   C1B  573   5.281   2.930   9.590  0.1490  0.0492  0.2148
   36loPI   C2B  574   5.366   2.906   9.178  0.0793  0.2829  0.0738
   36loPI   C3B  575   5.451   3.071   8.728  0.1528  0.0443  0.0848
   36loPI   C4B  576   5.430   3.370   8.450  0.0444  0.0967 -0.0221
   37loPI    C1  577  17.316  11.103  10.257  0.0494  0.0007 -0.1680
   37loPI    C2  578  17.563  11.311  10.493 -0.0632 -0.2028  0.1348
   37loPI    C3  579  17.169  11.317  10.561 -0.1339  0.0137 -0.2643
   37loPI   PO4  580  17.374  11.131  10.035  0.2941 -0.2103 -0.0445
   37loPI   GL1  581  17.524  11.130   9.673 -0.1672 -0.1299  0.2288
   37loPI   GL2  582  17.664  11.333   9.553 -0.0789 -0.4438  0.0411
   37loPI   C1A  583  17.156  11.107   9.379 -0.1194 -0.1002 -0.0182
   37loPI   C2A  584  16.762  11.252   9.185 -0.1383 -0.2408  0.2275
   37loPI   C3A  585  16.555  11.408   9.003  0.3762  0.1779  0.1637
   37loPI   C4A  586  16.390  11.320   8.580 -0.1444 -0.2006  0.2578
   37loPI   C5A  587  16.231  11.064   8.491  0.3861  0.3703  0.1226
   37loPI   C6A  588  16.174  10.914   8.015 -0.1302 -0.2128  0.0667
   37loPI   C1B  589  17.587  11.251   9.124  0.0775 -0.0143 -0.2444
   37loPI   C2B  590  17.515  11.361   8.693  0.1352 -0.0246 -0.0115
   37loPI   C3B  591  17.225  11.459   8.277 -0.0301 -0.2017  0.3229
   37loPI   C4B  592  17.114  11.309   7.864 -0.2132 -0.0119 -0.1268
   38loPI    C1  593   2.133   5.462   9.941 -0.1038 -0.2983 -0.1872
   38loPI    C2  594   2.319   5.405  10.290 -0.0573  0.3678 -0.0900
   38loPI    C3  595   1.919   5.416  10.276 -0.0627  0.2036 -0.0838
   38loPI   PO4  596   2.400   5.368   9.810 -0.0551 -0.0321  0.1467
   38loPI   GL1  597   2.389   5.262   9.369 -0.1759 -0.3913 -0.0391
   38loPI   GL2  598   2.166   5.095   9.434  0.1113  0.0882 -0.1252
   38loPI   C1A  599   2.556   5.365   9.055 -0.2949  0.0276 -0.0736
   38loPI   C2A  600   2.515   5.375   8.586 -0.1571 -0.1167 -0.2048
   38loPI   C3A  601   2.380   5.561   8.179  0.0429 -0.0843  0.1100
   38loPI   C4A  602   2.061   5.591   7.873 -0.0671  0.0085 -0.2033
   38loPI   C5A  603   1.919   5.335   7.547  0.0369 -0.3065  0.2875
   38loPI   C6A  604   1.857   4.952   7.407 -0.2166  0.0234 -0.1015
   38loPI   C1B  605   2.175   4.958   9.042  0.1084 -0.1837  0.0456
   38loPI   C2B  606   2.262   4.767   8.560  0.1440  0.1876  0.2891
   38loPI   C3B  607   2.203   4.620   8.111 -0.1806  0.0829 -0.1917
   38loPI   C4B  608   2.336   4.824   7.681 -0.0318  0.0045  0.0419
   39loPI    C1  609  16.387   4.391  10.384  0.0395 -0.2796 -0.1457
   39loPI    C2  610  16.396   4.404  10.783 -0.0462 -0.0027 -0.1510
   39loPI    C3  611  16.303   4.063  10.597  0.0852 -0.1576  0.0625
   39loPI   PO4  612  16.117   4.590  10.267  0.2820  0.1154 -0.3598
   39loPI   GL1  613  16.043   4.812   9.857 -0.1540  0.2720 -0.0677
   39loPI   GL2  614  15.722   4.698   9.645  0.4074 -0.1214  0.1666
   39loPI   C1A  615  16.136   4.762   9.373 -0.2627 -0.0268 -0.0567
   39loPI   C2A  616  16.076   4.694   8.981  0.3759  0.1942 -0.1434
   39loPI   C3A  617  15.775   4.900   8.893 -0.1406  0.0379 -0.2138
   39loPI   C4A  618  15.517   5.104   8.629  0.0787 -0.2535  0.1997
   39loPI   C5A  619  15.136   5.056   8.391 -0.2133 -0.3924  0.0310
   39loPI   C6A  620  14.765   4.923   8.061  0.0330  0.1086 -0.1022
   39loPI   C1B  621  15.765   4.448   9.247  0.3050 -0.0886 -0.1240
   39loPI   C2B  622  15.773   4.263   8.888 -0.3035 -0.0518 -0.1065
   39loPI   C3B  623  15.901   4.014   8.558  0.0669  0.3664 -0.1476
   39loPI   C4B  624  15.946   3.672   8.212 -0.0930 -0.2955 -0.2167
   40loPI    C1  625   9.785  16.800  10.787  0.0848 -0.1494 -0.0164
   40loPI    C2  626   9.613  17.013  11.079 -0.1279  0.0103 -0.2531
   40loPI    C3  627  10.003  17.057  11.003 -0.1136  0.1146 -0.1239
   40loPI   PO4  628   9.573  16.746  10.560  0.1197 -0.1151 -0.2828
   40loPI   GL1  629   9.458  16.760  10.144 -0.0316  0.1991 -0.0363
   40loPI   GL2  630   9.602  16.517  10.038 -0.0709 -0.1756 -0.1261
   40loPI   C1A  631   9.158  16.695   9.800 -0.0059 -0.1067  0.0723
   40loPI   C2A  632   9.260  16.690   9.336  0.0150  0.1981 -0.0633
   40loPI   C3A  633   9.251  16.630   8.911  0.2945 -0.0600  0.0251
   40loPI   C4A  634   9.180  16.653   8.392 -0.0716 -0.0322  0.1214
   40loPI   C5A  635   9.255  16.842   8.032  0.0818 -0.3515 -0.3525
   40loPI   C6A  636   9.562  17.119   7.850 -0.0621  0.0801  0.1115
   40loPI   C1B  637   9.672  16.579   9.563  0.1899  0.1946 -0.2084
   40loPI   C2B  638   9.715  16.644   9.167 -0.0228  0.1129 -0.3290
   40loPI   C3B  639   9.744  16.597   8.709 -0.2322  0.1122  0.1939
   40loPI   C4B  640  10.042  16.834   8.425  0.2993  0.0783 -0.1685
   41loPI    C1  641  18.283   4.145  10.003 -0.0989 -0.0437  0.0928
   41loPI    C2  642  18.334   4.087  10.396  0.0246 -0.1107  0.0675
   41loPI    C3  643  18.021   3.924  10.209 -0.0886  0.0027  0.1562
   41loPI   PO4  644  18.413   4.077   9.832 -0.0032 -0.0016 -0.0385
   41loPI   GL1  645  18.390   4.353   9.431 -0.1173 -0.0640 -0.0247
   41loPI   GL2  646  18.658   4.203   9.402  0.1328  0.2642  0.1096
   41loPI   C1A  647  18.546   4.527   9.001 -0.1557 -0.2221 -0.2215
   41loPI   C2A  648  18.775   4.587   8.559  0.1730  0.1049 -0.2851
   41loPI   C3A  649  18.687   4.615   8.138  0.3138 -0.0125  0.1403
   41loPI   C4A  650  18.533   4.669   7.716  0.0471  0.1068  0.3384
   41loPI   C5A  651  18.703   4.933   7.403  0.0380  0.0247 -0.0810
   41loPI   C6A  652  18.605   5.197   7.085  0.0804 -0.4375  0.1046
   41loPI   C1B  653  18.490   4.036   8.923  0.0249  0.1358 -0.6786
   41loPI   C2B  654  18.310   4.331   8.637  0.1455  0.1864  0.0572
   41loPI   C3B  655  18.188   4.668   8.403  0.0089  0.0598  0.0281
   41loPI   C4B  656  17.997   5.019   8.378 -0.0374  0.0703  0.2903
   42loPI    C1  657   5.620  16.545  10.911  0.3213  0.1448 -0.0256
   42loPI    C2  658   5.497  16.174  10.825 -0.2115  0.3254 -0.0773
   42loPI    C3  659   5.567  16.279  11.205  0.2325  0.0925 -0.0886
   42loPI   PO4  660   5.813  16.517  10.614  0.0030  0.1441  0.3625
   42loPI   GL1  661   5.691  16.741  10.247 -0.0125  0.2533 -0.0472
   42loPI   GL2  662   5.690  17.034  10.098  0.1170 -0.1154 -0.3678
   42loPI   C1A  663   5.437  16.529  10.032 -0.1127 -0.0082  0.0222
   42loPI   C2A  664   5.597  16.101   9.818 -0.1815  0.2277  0.1538
   42loPI   C3A  665   5.584  15.933   9.398 -0.1563  0.1727  0.1990
   42loPI   C4A  666   5.636  16.108   9.011 -0.0358 -0.0110  0.1402
   42loPI   C5A  667   5.570  16.012   8.571  0.2219 -0.4688  0.4246
   42loPI   C6A  668   5.407  15.755   8.351 -0.1099 -0.1631  0.2361
   42loPI   C1B  669   5.324  16.998   9.856 -0.1020 -0.1353  0.1561
   42loPI   C2B  670   5.148  16.816   9.540 -0.1268 -0.1242 -0.0684
   42loPI   C3B  671   5.070  16.604   9.248  0.2365 -0.0434  0.1292
   42loPI   C4B  672   4.671  16.579   9.031 -0.1239  0.1443 -0.1150
   43loPI    C1  673  10.189  13.068  10.855 -0.0776 -0.0500  0.0323
   43loPI    C2  674  10.454  12.906  11.107 -0.0946  0.0834  0.1372
   43loPI    C3  675  10.115  12.713  11.022  0.1126 -0.1702 -0.1337
   43loPI   PO4  676  10.302  13.135  10.637 -0.0725 -0.0016 -0.2196
   43loPI   GL1  677  10.193  13.027  10.225 -0.1578 -0.0958 -0.1286
   43loPI   GL2  678  10.284  13.281  10.060 -0.0058  0.0226  0.0531
   43loPI   C1A  679  10.175  12.848   9.868 -0.1398  0.2063 -0.0123
   43loPI   C2A  680  10.422  12.820   9.544 -0.1680  0.0736 -0.0710
   43loPI   C3A  681  10.804  12.815   9.457 -0.0798  0.0722 -0.2181
   43loPI   C4A  682  10.972  12.586   9.127 -0.1988  0.2867 -0.0834
   43loPI   C5A  683  11.107  12.584   8.690  0.0980  0.0435  0.0044
   43loPI   C6A  684  10.993  12.735   8.257 -0.0119 -0.0319  0.0870
   43loPI   C1B  685  10.297  13.361   9.604 -0.1372  0.2455  0.1075
   43loPI   C2B  686  10.371  13.490   9.121  0.1126 -0.1099 -0.1721
   43loPI   C3B  687  10.599  13.325   8.756  0.0242 -0.2388  0.0223
   43loPI   C4B  688  11.012  13.132   8.685  0.0144  0.0459  0.2322
   44loPI    C1  689   1.089   6.332  10.085 -0.0816  0.0957  0.1030
   44loPI    C2  690   1.479   6.253  10.118 -0.0998 -0.0366  0.0084
   44loPI    C3  691   1.322   6.565  10.311  0.0379 -0.0290  0.1097
   44loPI   PO4  692   0.960   6.315   9.800 -0.2308 -0.0697 -0.1102
   44loPI   GL1  693   1.043   6.052   9.440  0.2122  0.4632 -0.0067
   44loPI   GL2  694   1.311   6.067   9.496 -0.1721  0.1633  0.2262
   44loPI   C1A  695   1.184   5.710   9.056 -0.0636  0.1079  0.0641
   44loPI   C2A  696   1.418   5.629   8.676 -0.0293 -0.0057  0.2626
   44loPI   C3A  697   1.585   5.423   8.232  0.1390  0.0728 -0.0959
   44loPI   C4A  698   1.378   5.410   7.900 -0.1644  0.0713  0.0873
   44loPI   C5A  699   1.269   5.132   7.545 -0.1333  0.1159  0.0896
   44loPI   C6A  700   1.406   4.868   7.210  0.3613  0.0482  0.1756
   44loPI   C1B  701   1.357   6.274   9.105  0.0096  0.0150 -0.0586
   44loPI   C2B  702   1.338   6.193   8.726 -0.0360 -0.0299 -0.2304
   44loPI   C3B  703   1.170   6.262   8.241  0.0115  0.2749  0.3666
   44loPI   C4B  704   1.165   6.152   7.783 -0.1053  0.0909  0.0128
   45loPI    C1  705  11.409  11.066  10.814 -0.0417 -0.0114 -0.2891
   45loPI    C2  706  11.121  10.804  10.907  0.1410 -0.0997  0.0457
   45loPI    C3  707  11.100  11.180  11.041  0.0972 -0.0598 -0.0718
   45loPI   PO4  708  11.430  10.961  10.577  0.0950  0.0242 -0.2273
   45loPI   GL1  709  11.567  11.089  10.205  0.2105 -0.0626  0.0091
   45loPI   GL2  710  11.678  11.378  10.088 -0.1060  0.3246  0.1049
   45loPI   C1A  711  11.826  10.982   9.879  0.0505 -0.0273  0.0633
   45loPI   C2A  712  12.110  11.039   9.569  0.1504 -0.2905 -0.1054
   45loPI   C3A  713  12.098  11.068   9.135  0.2236  0.4099 -0.1010
   45loPI   C4A  714  12.085  11.071   8.636 -0.1403 -0.1498 -0.1864
   45loPI   C5A  715  11.699  11.049   8.384 -0.1516  0.0280  0.1743
   45loPI   C6A  716  11.468  11.104   7.997  0.0504  0.2253 -0.2134
   45loPI   C1B  717  11.859  11.465   9.663  0.1576 -0.0720 -0.0385
   45loPI   C2B  718  11.844  11.481   9.329  0.0361  0.1978  0.0078
   45loPI   C3B  719  11.967  11.538   8.906 -0.1526 -0.0222 -0.2959
   45loPI   C4B  720  12.025  11.596   8.571 -0.0904  0.3188  0.0235
   46loPI    C1  721  13.178   8.896  10.594  0.0976  0.1145 -0.1012
   46loPI    C2  722  13.311   9.112  10.904  0.0300 -0.1373  0.1070
   46loPI    C3  723  12.964   8.915  10.932 -0.0062 -0.1144 -0.1522
   46loPI   PO4  724  13.216   9.010  10.434  0.0484  0.0923  0.1455
   46loPI   GL1  725  13.355   9.101  10.057  0.1672  0.1522 -0.4315
   46loPI   GL2  726  13.654   9.195  10.112  0.4513  0.0482 -0.1899
   46loPI   C1A  727  13.371   8.842   9.623  0.1242 -0.0824 -0.3845
   46loPI   C2A  728  13.220   8.528   9.282 -0.1049 -0.0120 -0.0983
   46loPI   C3A  729  13.334   8.679   8.944 -0.2565  0.1183  0.0348
   46loPI   C4A  730  13.457   8.723   8.530 -0.1699 -0.3615  0.0119
   46loPI   C5A  731  13.382   8.848   8.027  0.1719 -0.0574 -0.0638
   46loPI   C6A  732  13.569   8.851   7.615 -0.1733  0.0689  0.0334
   46loPI   C1B  733  13.843   8.915   9.788 -0.1474  0.0269  0.1845
   46loPI   C2B  734  13.769   8.737   9.338 -0.1811 -0.1876 -0.0068
   46loPI   C3B  735  13.832   8.578   8.988  0.3468 -0.4554 -0.2324
   46loPI   C4B  736  13.915   8.510   8.531  0.0254 -0.2171 -0.1102
   47loPI    C1  737  18.142   0.237  10.490 -0.0374 -0.1152 -0.0548
   47loPI    C2  738  17.761   0.322  10.400 -0.0492  0.0714  0.1628
   47loPI    C3  739  17.850  -0.015  10.598 -0.0775 -0.0763 -0.0718
   47loPI   PO4  740  18.294   0.351  10.355 -0.2619  0.0111  0.4362
   47loPI   GL1  741  18.325   0.454   9.890 -0.0035 -0.3189  0.1107
   47loPI   GL2  742  18.564   0.660   9.785 -0.2960  0.0544  0.1971
   47loPI   C1A  743  18.139   0.401   9.489 -0.0676 -0.0226 -0.0229
   47loPI   C2A  744  17.988   0.236   9.197 -0.0238  0.0046 -0.0241
   47loPI   C3A  745  17.879   0.376   8.811  0.2829 -0.0385 -0.3027
   47loPI   C4A  746  17.944   0.641   8.556 -0.1210  0.0946  0.1682
   47loPI   C5A  747  17.850   0.795   8.162 -0.3938  0.3409  0.1694
   47loPI   C6A  748  18.038   0.754   7.805 -0.1692  0.0178  0.0764
   47loPI   C1B  749  18.693   0.429   9.476 -0.0462  0.1239 -0.0783
   47loPI   C2B  750  18.874   0.497   9.103  0.0762 -0.1470  0.0197
   47loPI   C3B  751  18.882   0.793   8.706  0.0835  0.0811 -0.3863
   47loPI   C4B  752  18.781   0.941   8.285  0.0546  0.0041 -0.1718
   48loPI    C1  753  10.199   2.451  10.525  0.0949 -0.2325  0.2157
   48loPI    C2  754  10.436   2.263  10.788  0.1325 -0.0110  0.3427
   48loPI    C3  755  10.040   2.209  10.801  0.1639 -0.2932  0.2026
   48loPI   PO4  756  10.345   2.422  10.299 -0.0433 -0.0716  0.3473
   48loPI   GL1  757  10.186   2.349   9.851  0.0486 -0.0881 -0.1847
   48loPI   GL2  758  10.294   1.995   9.905 -0.1020  0.1340  0.0753
   48loPI   C1A  759  10.210   2.544   9.428  0.2582 -0.1704  0.0862
   48loPI   C2A  760  10.197   2.453   8.947 -0.0745 -0.0892 -0.2918
   48loPI   C3A  761  10.210   2.578   8.512  0.2265  0.0081  0.0569
   48loPI   C4A  762  10.255   2.750   8.205  0.1847  0.3277  0.1544
   48loPI   C5A  763  10.128   2.550   7.878  0.0270 -0.1815  0.0451
   48loPI   C6A  764   9.956   2.784   7.533 -0.3481 -0.2080  0.1776
   48loPI   C1B  765  10.570   2.005   9.514 -0.2295 -0.2173  0.2159
   48loPI   C2B  766  10.453   2.012   9.008  0.1559 -0.0149 -0.1025
   48loPI   C3B  767  10.480   2.021   8.648  0.1149 -0.0293  0.0718
   48loPI   C4B  768  10.318   2.169   8.232  0.0377  0.0877  0.0433
   49loPI    C1  769  12.284  12.153  10.418 -0.2829 -0.0508 -0.0393
   49loPI    C2  770  12.114  11.941  10.711 -0.2223 -0.0358  0.0069
   49loPI    C3  771  12.488  12.076  10.753 -0.2450  0.0428 -0.0406
   49loPI   PO4  772  12.073  12.297  10.323 -0.0471  0.0727  0.2355
   49loPI   GL1  773  11.966  12.350  10.010  0.3131 -0.1929  0.2208
   49loPI   GL2  774  12.285  12.425   9.852 -0.0480 -0.1243  0.2048
   49loPI   C1A  775  11.906  12.319   9.614  0.3410 -0.0650  0.1211
   49loPI   C2A  776  12.027  12.437   9.146  0.3890  0.2524  0.1552
   49loPI   C3A  777  11.846  12.501   8.776  0.4301  0.1121 -0.2041
   49loPI   C4A  778  11.908  12.852   8.512  0.1353  0.0210 -0.2770
   49loPI   C5A  779  11.846  13.222   8.187  0.0151  0.3237  0.0098
   49loPI   C6A  780  12.156  13.483   8.059  0.0132 -0.1017 -0.0136
   49loPI   C1B  781  12.359  12.550   9.523 -0.1396 -0.1425 -0.2239
   49loPI   C2B  782  12.499  12.533   9.075  0.1089  0.0855 -0.2940
   49loPI   C3B  783  12.355  12.632   8.694  0.0014 -0.1929 -0.0172
   49loPI   C4B  784  12.142  12.514   8.266 -0.2778  0.0833  0.0810
   50loPI    C1  785  13.483   5.613  10.379  0.1105  0.1702  0.0402
   50loPI    C2  786  13.308   5.752  10.711  0.0799 -0.1168  0.1474
   50loPI    C3  787  13.705   5.706  10.698  0.0935  0.0102  0.0998
   50loPI   PO4  788  13.381   5.709  10.206  0.3142 -0.2460  0.3403
   50loPI   GL1  789  13.116   5.683   9.940  0.0588 -0.1593 -0.2030
   50loPI   GL2  790  13.142   5.365   9.765  0.3604 -0.0497 -0.1129
   50loPI   C1A  791  13.111   5.760   9.467 -0.0965  0.2569  0.0981
   50loPI   C2A  792  12.774   5.751   9.199 -0.1493 -0.0903  0.1635
   50loPI   C3A  793  12.493   5.826   8.919  0.0672 -0.1263  0.0912
   50loPI   C4A  794  12.281   5.694   8.529  0.0263 -0.2691 -0.0881
   50loPI   C5A  795  12.269   5.984   8.175  0.0447  0.4038  0.2122
   50loPI   C6A  796  12.197   6.017   7.738 -0.1689  0.2017  0.0289
   50loPI   C1B  797  12.931   5.280   9.398 -0.3198 -0.1395 -0.1171
   50loPI   C2B  798  13.056   5.134   9.064  0.0237 -0.1520 -0.2561
   50loPI   C3B  799  13.354   5.234   8.722  0.3870  0.0491  0.1995
   50loPI   C4B  800  13.170   5.469   8.283 -0.1799  0.0766  0.0464
   51loPI    C1  801   3.834   5.082  10.505 -0.0755 -0.1345  0.0087
   51loPI    C2  802   4.070   5.309  10.736 -0.0199 -0.2123  0.0287
   51loPI    C3  803   3.695   5.426  10.657  0.0930  0.0194 -0.1793
   51loPI   PO4  804   4.008   5.077  10.236  0.0658 -0.1146 -0.1401
   51loPI   GL1  805   4.097   5.236   9.917 -0.1199 -0.0419  0.2310
   51loPI   GL2  806   4.365   4.942   9.892 -0.1600 -0.0378 -0.1045
   51loPI   C1A  807   4.051   5.334   9.452 -0.2403 -0.0980  0.0641
   51loPI   C2A  808   3.988   5.280   9.000 -0.0048  0.1817 -0.1650
   51loPI   C3A  809   4.010   5.218   8.669 -0.2040 -0.0072  0.2151
   51loPI   C4A  810   3.889   5.132   8.216  0.3855  0.0169  0.1876
   51loPI   C5A  811   3.521   4.927   8.018 -0.2896 -0.4663  0.1924
   51loPI   C6A  812   3.471   4.563   7.677  0.0884 -0.0003  0.1634
   51loPI   C1B  813   4.384   4.925   9.530 -0.1112 -0.2663  0.1338
   51loPI   C2B  814   4.315   4.931   9.147  0.1049  0.0436 -0.1876
   51loPI   C3B  815   4.329   4.818   8.700 -0.2944 -0.2507 -0.0666
   51loPI   C4B  816   4.312   4.838   8.200  0.2489 -0.3658  0.3296
   52loPI    C1  817   4.875   8.933  10.179 -0.0444  0.0616  0.0139
   52loPI    C2  818   5.243   8.899  10.025  0.0861  0.1617  0.2956
   52loPI    C3  819   5.138   8.679  10.342 -0.1757 -0.0346  0.0780
   52loPI   PO4  820   4.675   8.909  10.059 -0.0653  0.1079  0.2266
   52loPI   GL1  821   4.679   8.781   9.632 -0.2377  0.4210  0.3252
   52loPI   GL2  822   4.434   8.454   9.756 -0.2387 -0.0478  0.0075
   52loPI   C1A  823   4.741   8.885   9.155 -0.1044 -0.0293  0.4623
   52loPI   C2A  824   4.816   8.979   8.790  0.1257  0.0675  0.0785
   52loPI   C3A  825   5.034   9.186   8.434  0.2373  0.2083 -0.0457
   52loPI   C4A  826   5.274   9.365   8.172 -0.2676  0.2138  0.0788
   52loPI   C5A  827   5.648   9.555   8.092  0.1610  0.3775 -0.1086
   52loPI   C6A  828   6.025   9.760   7.887 -0.2362 -0.0166 -0.0764
   52loPI   C1B  829   4.585   8.370   9.295  0.0154 -0.0229 -0.4335
   52loPI   C2B  830   4.635   7.956   9.098 -0.1037  0.2558  0.0691
   52loPI   C3B  831   4.446   7.921   8.816  0.2062 -0.0456  0.1788
   52loPI   C4B  832   4.590   8.036   8.375 -0.0856  0.0962 -0.0342
   53loPI    C1  833   0.417   8.622  10.356  0.2402  0.0316  0.0426
   53loPI    C2  834   0.802   8.580  10.458  0.1644 -0.1926  0.2478
   53loPI    C3  835   0.517   8.547  10.736  0.0067  0.2127  0.1424
   53loPI   PO4  836   0.436   8.707  10.151 -0.0435  0.2662 -0.1355
   53loPI   GL1  837   0.439   8.746   9.798  0.0354  0.1849  0.2055
   53loPI   GL2  838   0.503   8.522   9.655 -0.0016 -0.2823  0.0939
   53loPI   C1A  839   0.136   8.900   9.492 -0.1237  0.0312  0.2355
   53loPI   C2A  840  -0.038   8.737   9.084 -0.0452 -0.1063  0.2790
   53loPI   C3A  841  -0.069   8.693   8.623 -0.0723  0.0843 -0.0600
   53loPI   C4A  842  -0.046   8.633   8.221 -0.0372 -0.1530  0.1674
   53loPI   C5A  843  -0.196   8.459   7.801  0.1254  0.1548 -0.0145
   53loPI   C6A  844  -0.191   8.174   7.365 -0.3598  0.1308  0.0705
   53loPI   C1B  845   0.483   8.514   9.188  0.0546 -0.0119  0.1378
   53loPI   C2B  846   0.561   8.655   8.791  0.1305 -0.0103  0.2515
   53loPI   C3B  847   0.460   8.793   8.321  0.0592 -0.1475 -0.0374
   53loPI   C4B  848   0.478   9.126   7.972 -0.0235 -0.3705  0.1825
   54loPI    C1  849  13.577   1.631  10.235  0.0157 -0.0736  0.2148
   54loPI    C2  850  13.724   1.937  10.447  0.1427 -0.0460  0.0886
   54loPI    C3  851  13.626   1.595  10.630 -0.0276  0.0790  0.2349
   54loPI   PO4  852  13.690   1.660  10.026 -0.0381 -0.2153 -0.3438
   54loPI   GL1  853  13.838   1.707   9.627  0.4962  0.0270  0.2205
   54loPI   GL2  854  13.516   1.610   9.517  0.0083 -0.0901  0.1654
   54loPI   C1A  855  14.176   1.529   9.365 -0.1178 -0.2061  0.1020
   54loPI   C2A  856  14.349   1.221   9.044  0.0466  0.1160 -0.0822
   54loPI   C3A  857  14.352   1.275   8.686  0.4852  0.0462  0.2540
   54loPI   C4A  858  14.236   1.147   8.189 -0.1269 -0.2526 -0.1145
   54loPI   C5A  859  14.392   1.405   7.833  0.3166  0.0419  0.0346
   54loPI   C6A  860  14.165   1.652   7.598  0.2625 -0.1015  0.1339
   54loPI   C1B  861  13.428   1.574   9.119 -0.1525  0.1588  0.1440
   54loPI   C2B  862  13.446   1.449   8.734 -0.0492 -0.2617 -0.0093
   54loPI   C3B  863  13.444   1.475   8.278  0.1289  0.1516  0.0360
   54loPI   C4B  864  13.509   1.356   7.776 -0.1541 -0.2870 -0.2035
   55loPI    C1  865  17.317  10.021  10.354 -0.1826  0.0969 -0.2494
   55loPI    C2  866  16.979  10.050  10.142 -0.1476  0.0790 -0.3075
   55loPI    C3  867  16.967  10.073  10.541 -0.2405 -0.1057 -0.2985
   55loPI   PO4  868  17.418   9.751  10.225  0.1318 -0.0229 -0.2707
   55loPI   GL1  869  17.499   9.579   9.866 -0.1182  0.0500 -0.0307
   55loPI   GL2  870  17.420   9.275  10.150  0.0252 -0.0009 -0.0607
   55loPI   C1A  871  17.465   9.631   9.464 -0.0833  0.0178 -0.0276
   55loPI   C2A  872  17.304   9.791   9.053  0.0844 -0.2047  0.1452
   55loPI   C3A  873  17.197   9.953   8.649  0.0115 -0.3340 -0.1255
   55loPI   C4A  874  17.033  10.050   8.299 -0.0847  0.0470 -0.0651
   55loPI   C5A  875  16.904  10.358   7.976  0.1782  0.4451  0.0786
   55loPI   C6A  876  16.432  10.465   7.847 -0.1857  0.0726  0.2948
   55loPI   C1B  877  17.248   9.182   9.657  0.5784 -0.0788  0.0371
   55loPI   C2B  878  17.089   9.348   9.284 -0.0743  0.1984  0.2030
   55loPI   C3B  879  16.993   9.384   8.830  0.0988  0.0408 -0.1271
   55loPI   C4B  880  16.921   9.535   8.432  0.2162  0.0130 -0.0093
   56loPI    C1  881  10.234  17.704  11.118  0.1229  0.1435 -0.0310
   56loPI    C2  882  10.374  17.343  11.220 -0.1236  0.0116 -0.1526
   56loPI    C3  883   9.998  17.446  11.311 -0.0397  0.2581 -0.0749
   56loPI   PO4  884  10.314  17.686  10.857  0.1600 -0.1345 -0.0033
   56loPI   GL1  885  10.333  17.741  10.353 -0.2392  0.2557  0.0185
   56loPI   GL2  886  10.087  17.980  10.270 -0.0442 -0.2092 -0.1135
   56loPI   C1A  887  10.312  17.480  10.094 -0.0434 -0.0146 -0.1528
   56loPI   C2A  888  10.321  17.501   9.667  0.1544 -0.3057  0.1707
   56loPI   C3A  889  10.364  17.406   9.248 -0.4084  0.1488  0.0249
   56loPI   C4A  890  10.374  17.375   8.868  0.1649  0.1287 -0.0519
   56loPI   C5A  891  10.395  17.289   8.425 -0.0607  0.3573  0.1380
   56loPI   C6A  892  10.032  17.190   8.047 -0.2269 -0.0944  0.1212
   56loPI   C1B  893  10.102  18.013   9.860 -0.0236 -0.1070  0.0393
   56loPI   C2B  894   9.867  17.898   9.573 -0.2731 -0.0295  0.4810
   56loPI   C3B  895   9.743  17.924   9.168 -0.0267 -0.1227  0.0703
   56loPI   C4B  896   9.649  17.885   8.679  0.0436  0.0172  0.0798
   57loPI    C1  897  17.747  12.980  10.093 -0.3315  0.1244 -0.1563
   57loPI    C2  898  17.572  12.809  10.410 -0.2307  0.1484 -0.0870
   57loPI    C3  899  17.903  13.027  10.459 -0.0746 -0.0492 -0.2408
   57loPI   PO4  900  17.855  12.759   9.939 -0.1529 -0.1180 -0.0699
   57loPI   GL1  901  17.866  12.537   9.515 -0.0169  0.0759 -0.1002
   57loPI   GL2  902  18.084  12.344   9.424 -0.0372 -0.3011  0.1602
   57loPI   C1A  903  17.536  12.555   9.125  0.4024 -0.2164  0.3547
   57loPI   C2A  904  17.524  12.497   8.722  0.0229  0.1845  0.3305
   57loPI   C3A  905  17.547  12.370   8.312 -0.1229 -0.0111  0.0401
   57loPI   C4A  906  17.822  12.122   8.034  0.2293  0.1871 -0.2698
   57loPI   C5A  907  18.031  11.884   7.758 -0.2063 -0.0306 -0.1487
   57loPI   C6A  908  18.345  11.535   7.658  0.0294  0.2919 -0.0542
   57loPI   C1B  909  17.904  12.262   9.016 -0.1339  0.0097 -0.2411
   57loPI   C2B  910  18.092  12.189   8.569 -0.3328  0.0659  0.3404
   57loPI   C3B  911  18.268  12.141   8.114 -0.0996 -0.1183 -0.0534
   57loPI   C4B  912  18.453  12.167   7.762 -0.0865  0.2225 -0.0884
   58loPI    C1  913   0.948   3.887  10.124 -0.1046 -0.2391 -0.0061
   58loPI    C2  914   0.795   3.740  10.463 -0.1059 -0.3347 -0.0477
   58loPI    C3  915   1.009   3.504  10.221  0.1794 -0.1819  0.0503
   58loPI   PO4  916   0.703   3.921   9.957  0.0129 -0.2758 -0.1410
   58loPI   GL1  917   0.752   4.168   9.595 -0.3102 -0.0232 -0.0241
   58loPI   GL2  918   1.132   4.267   9.523  0.1693 -0.2776  0.1027
   58loPI   C1A  919   0.581   3.932   9.294 -0.1527 -0.2105 -0.1807
   58loPI   C2A  920   0.661   3.743   8.931 -0.0280 -0.0917 -0.1162
   58loPI   C3A  921   0.798   3.654   8.509  0.1191 -0.0491 -0.2513
   58loPI   C4A  922   0.890   3.500   8.144 -0.0660  0.1403 -0.0928
   58loPI   C5A  923   0.884   3.288   7.698  0.0654 -0.2881  0.0273
   58loPI   C6A  924   0.580   3.111   7.375  0.2011  0.2103  0.0435
   58loPI   C1B  925   1.000   4.191   9.091  0.2238 -0.0329 -0.2485
   58loPI   C2B  926   0.991   4.024   8.705  0.0228 -0.1186  0.1376
   58loPI   C3B  927   0.988   4.048   8.242 -0.0612 -0.1129  0.2305
   58loPI   C4B  928   1.113   4.083   7.818  0.1990  0.0172  0.0489
   59loPI    C1  929  13.243   3.853  10.373  0.0893  0.1851  0.2467
   59loPI    C2  930  13.117   3.521  10.556  0.0411  0.1035  0.0675
   59loPI    C3  931  13.507   3.575  10.485  0.0435  0.0585  0.0459
   59loPI   PO4  932  13.116   3.953  10.226 -0.0005 -0.0788 -0.3588
   59loPI   GL1  933  13.017   3.989   9.849 -0.0639 -0.1395 -0.1911
   59loPI   GL2  934  13.349   4.173   9.852  0.1413  0.3656 -0.0787
   59loPI   C1A  935  12.850   3.846   9.460 -0.0590 -0.0273 -0.0656
   59loPI   C2A  936  12.769   3.702   9.050  0.1322 -0.1922 -0.0734
   59loPI   C3A  937  12.738   3.838   8.684 -0.2470 -0.4979  0.1085
   59loPI   C4A  938  12.534   4.069   8.302 -0.0440  0.2628 -0.0751
   59loPI   C5A  939  12.308   4.207   7.934  0.2111 -0.2448 -0.2810
   59loPI   C6A  940  12.372   4.181   7.531  0.1240  0.0677 -0.2014
   59loPI   C1B  941  13.395   4.317   9.426  0.0504 -0.0373  0.1577
   59loPI   C2B  942  13.658   4.317   9.074 -0.0870  0.1249 -0.0770
   59loPI   C3B  943  13.909   4.577   8.856  0.2094 -0.0420 -0.2085
   59loPI   C4B  944  14.385   4.580   8.908 -0.2816 -0.0611  0.1667
   60loPI    C1  945  12.793  17.623  10.194  0.1518  0.1254  0.0803
   60loPI    C2  946  12.456  17.693   9.991  0.2387  0.0003 -0.1106
   60loPI    C3  947  12.620  17.982  10.213 -0.0451  0.0327  0.0623
   60loPI   PO4  948  12.932  17.537   9.963 -0.0591 -0.0496 -0.3229
   60loPI   GL1  949  13.238  17.431   9.729  0.1231  0.1618  0.4695
   60loPI   GL2  950  13.363  17.730   9.668  0.3922  0.2089 -0.2768
   60loPI   C1A  951  13.096  17.459   9.327  0.1216 -0.0962  0.0801
   60loPI   C2A  952  13.106  17.595   8.892 -0.1809  0.2907  0.1425
   60loPI   C3A  953  13.222  17.569   8.351 -0.2881  0.2573  0.2040
   60loPI   C4A  954  13.271  17.221   7.982 -0.2069  0.1478 -0.1703
   60loPI   C5A  955  13.035  16.990   7.678 -0.1665 -0.2973 -0.0949
   60loPI   C6A  956  13.089  16.981   7.263 -0.0752 -0.0412  0.1799
   60loPI   C1B  957  13.276  17.931   9.251 -0.0009  0.2116  0.1141
   60loPI   C2B  958  13.195  18.231   8.951 -0.0676 -0.0610  0.1072
   60loPI   C3B  959  13.104  18.514   8.620  0.2409  0.0458  0.3233
   60loPI   C4B  960  12.996  18.572   8.138  0.0052 -0.1332 -0.1970
   61loPI    C1  961  15.745   3.429  10.760  0.3642 -0.1635  0.0128
   61loPI    C2  962  15.508   3.601  11.031  0.4295 -0.1981  0.0923
   61loPI    C3  963  15.764   3.824  10.819  0.1489 -0.1231 -0.1752
   61loPI   PO4  964  15.763   3.254  10.468 -0.0974  0.0415 -0.3216
   61loPI   GL1  965  15.780   3.497  10.045  0.1813 -0.3359  0.0248
   61loPI   GL2  966  15.667   3.276   9.872 -0.1472  0.1595 -0.1232
   61loPI   C1A  967  15.593   3.688   9.663 -0.0096  0.0961  0.1185
   61loPI   C2A  968  15.452   3.598   9.301 -0.0250  0.1325 -0.0788
   61loPI   C3A  969  15.358   3.461   8.863  0.1795 -0.1189 -0.0615
   61loPI   C4A  970  15.395   3.500   8.412 -0.0402  0.0947  0.2812
   61loPI   C5A  971  15.458   3.721   8.077 -0.0630 -0.1536  0.0354
   61loPI   C6A  972  15.452   3.950   7.747  0.2538 -0.1785  0.1784
   61loPI   C1B  973  15.606   3.146   9.493  0.1492 -0.3236  0.2302
   61loPI   C2B  974  15.553   2.953   9.037  0.1211 -0.0468 -0.2341
   61loPI   C3B  975  15.472   3.050   8.584 -0.1730 -0.0322 -0.0572
   61loPI   C4B  976  15.343   3.056   8.109 -0.1850 -0.1095 -0.0529
   62loPI    C1  977   5.608   1.886  10.658  0.0021 -0.0302 -0.0790
   62loPI    C2  978   5.785   1.742  10.986  0.1707 -0.0796 -0.1905
   62loPI    C3  979   5.386   1.754  10.964  0.1578 -0.1789 -0.0290
   62loPI   PO4  980   5.857   1.752  10.412 -0.1067 -0.4207 -0.2756
   62loPI   GL1  981   5.824   1.563  10.014 -0.3997 -0.2878 -0.1642
   62loPI   GL2  982   5.908   1.353  10.173 -0.2400  0.0958 -0.2650
   62loPI   C1A  983   5.675   1.399   9.609 -0.1535 -0.2942  0.1958
   62loPI   C2A  984   5.702   1.329   9.202  0.0351 -0.1936  0.1667
   62loPI   C3A  985   5.675   1.362   8.758  0.0862  0.0989 -0.1593
   62loPI   C4A  986   5.957   1.211   8.482 -0.1590  0.0291 -0.2045
   62loPI   C5A  987   6.068   1.137   8.052 -0.0216  0.1087  0.1176
   62loPI   C6A  988   6.480   1.333   7.981 -0.0597  0.0766 -0.1551
   62loPI   C1B  989   6.012   1.058   9.809  0.0841 -0.0615 -0.2185
   62loPI   C2B  990   6.069   1.044   9.420  0.4364  0.2122  0.1313
   62loPI   C3B  991   6.153   0.905   8.964  0.1146 -0.1053  0.1036
   62loPI   C4B  992   6.163   0.717   8.545  0.2838 -0.4673  0.0061
   63loPI    C1  993  11.397  16.496  10.416  0.0210  0.1723 -0.0112
   63loPI    C2  994  11.694  16.655  10.632 -0.0887  0.0381  0.2421
   63loPI    C3  995  11.318  16.666  10.769 -0.2024  0.1995 -0.0731
   63loPI   PO4  996  11.378  16.664  10.200  0.0686  0.2533  0.1515
   63loPI   GL1  997  11.255  16.752   9.739  0.2571 -0.0593 -0.0727
   63loPI   GL2  998  11.570  16.505   9.653  0.2324 -0.4541 -0.0992
   63loPI   C1A  999  11.177  16.766   9.340  0.2527 -0.3427  0.1441
   63loPI   C2A 1000  11.032  16.734   8.875  0.1673  0.1526 -0.0624
   63loPI   C3A 1001  11.060  16.702   8.473 -0.1081  0.2029  0.0108
   63loPI   C4A 1002  11.172  16.594   8.140  0.2657 -0.0402 -0.0248
   63loPI   C5A 1003  11.479  16.286   7.925  0.1392  0.0102  0.0095
   63loPI   C6A 1004  11.554  15.915   7.994 -0.2077 -0.1095  0.1952
   63loPI   C1B 1005  11.473  16.409   9.212 -0.1309  0.0880 -0.0354
   63loPI   C2B 1006  11.198  16.285   8.821 -0.0665  0.2905 -0.1200
   63loPI   C3B 1007  11.282  16.216   8.408 -0.3146  0.2216 -0.1697
   63loPI   C4B 1008  11.015  16.149   8.068  0.0706  0.1480  0.4395
   64loPI    C1 1009   2.480  15.487  10.397 -0.0782  0.2301 -0.2114
   64loPI    C2 1010   2.228  15.679  10.641 -0.1602  0.0598 -0.1601
   64loPI    C3 1011   2.170  15.292  10.559  0.0459  0.0367 -0.2031
   64loPI   PO4 1012   2.428  15.594  10.154  0.0907 -0.2578  0.0364
   64loPI   GL1 1013   2.597  15.734   9.827  0.1558  0.0987 -0.2211
   64loPI   GL2 1014   2.330  15.992   9.668 -0.0250  0.0033 -0.1600
   64loPI   C1A 1015   2.750  15.612   9.442 -0.2460 -0.1704  0.1634
   64loPI   C2A 1016   2.747  15.660   8.993  0.0268  0.2354  0.3214
   64loPI   C3A 1017   2.754  15.656   8.646 -0.2062  0.1363 -0.2931
   64loPI   C4A 1018   3.048  15.723   8.323  0.0681  0.1484 -0.1357
   64loPI   C5A 1019   3.271  15.948   8.009 -0.1000  0.1948 -0.0934
   64loPI   C6A 1020   3.456  16.314   7.815 -0.0275  0.2792  0.2648
   64loPI   C1B 1021   2.420  15.998   9.179  0.0797  0.1060  0.2177
   64loPI   C2B 1022   2.432  16.012   8.793 -0.0629  0.1427  0.0138
   64loPI   C3B 1023   2.478  16.053   8.337 -0.0196  0.2294 -0.2382
   64loPI   C4B 1024   2.410  16.169   7.900  0.1543  0.0122 -0.0816
   65loPI    C1 1025   4.923   9.408  10.173  0.0745  0.0456  0.3326
   65loPI    C2 1026   4.802   9.762  10.032 -0.1390 -0.1402  0.0373
   65loPI    C3 1027   4.703   9.651  10.403  0.0963  0.1887  0.2037
   65loPI   PO4 1028   5.102   9.371  10.020  0.0392 -0.2741  0.3527
   65loPI   GL1 1029   5.165   9.557   9.663  0.0370 -0.1961 -0.0366
   65loPI   GL2 1030   5.461   9.661   9.744 -0.1380  0.1386  0.1456
   65loPI   C1A 1031   5.330   9.416   9.356 -0.1891  0.1919  0.1704
   65loPI   C2A 1032   5.209   9.416   8.878  0.1096  0.1371 -0.0912
   65loPI   C3A 1033   5.312   9.687   8.544  0.1464 -0.3893  0.0573
   65loPI   C4A 1034   5.274   9.969   8.187 -0.2272  0.0044 -0.0379
   65loPI   C5A 1035   5.133  10.149   7.810  0.3396  0.2140  0.1685
   65loPI   C6A 1036   5.157  10.211   7.436  0.0548  0.1015  0.0891
   65loPI   C1B 1037   5.333   9.937   9.348 -0.2190 -0.1187  0.2897
   65loPI   C2B 1038   5.267  10.002   8.962 -0.1600  0.2485  0.2272
   65loPI   C3B 1039   5.332  10.288   8.617 -0.3273  0.2895  0.0534
   65loPI   C4B 1040   5.375  10.452   8.183 -0.1451  0.1009 -0.3761
   66loPI    C1 1041   0.514   5.077  10.004  0.0039 -0.0477 -0.1357
   66loPI    C2 1042   0.270   5.069  10.320  0.0410  0.0441 -0.1045
   66loPI    C3 1043   0.661   5.132  10.372  0.0867 -0.1993 -0.1455
   66loPI   PO4 1044   0.373   4.877   9.851  0.0076  0.3260  0.0749
   66loPI   GL1 1045   0.306   4.669   9.488  0.1897  0.0102  0.0003
   66loPI   GL2 1046   0.347   4.897   9.298  0.2030 -0.0290 -0.1070
   66loPI   C1A 1047   0.550   4.448   9.203  0.2213 -0.0076  0.1854
   66loPI   C2A 1048   0.487   4.225   8.835 -0.1158 -0.1970 -0.1431
   66loPI   C3A 1049   0.551   4.133   8.416  0.1177 -0.1494 -0.1836
   66loPI   C4A 1050   0.501   3.855   8.070  0.1836 -0.0310  0.1881
   66loPI   C5A 1051   0.677   3.842   7.614 -0.1800 -0.0396 -0.3352
   66loPI   C6A 1052   1.076   3.753   7.445  0.0326 -0.3936  0.0090
   66loPI   C1B 1053   0.384   4.901   8.902  0.1883  0.3662 -0.0831
   66loPI   C2B 1054   0.317   5.258   8.644  0.1691  0.1881 -0.0298
   66loPI   C3B 1055   0.473   5.442   8.259 -0.0868 -0.1387  0.2577
   66loPI   C4B 1056   0.397   5.705   7.900 -0.1274  0.1859  0.0095
   67loPI    C1 1057  13.394  14.385  10.482  0.1296 -0.0898 -0.0286
   67loPI    C2 1058  13.364  14.783  10.490  0.2781 -0.0782 -0.0209
   67loPI    C3 1059  13.062  14.557  10.621  0.1453  0.0298 -0.1368
   67loPI   PO4 1060  13.472  14.339  10.177  0.0471 -0.1131 -0.0330
   67loPI   GL1 1061  13.284  14.347   9.702 -0.0119 -0.1898 -0.1701
   67loPI   GL2 1062  13.548  14.330   9.705 -0.3256 -0.0408  0.4007
   67loPI   C1A 1063  13.227  14.207   9.325 -0.1197  0.2801 -0.2493
   67loPI   C2A 1064  13.465  14.209   8.993 -0.0536  0.3521  0.2503
   67loPI   C3A 1065  13.447  14.118   8.552 -0.0328  0.0198 -0.1458
   67loPI   C4A 1066  13.691  14.323   8.235  0.2294  0.1039 -0.0332
   67loPI   C5A 1067  14.089  14.294   8.111 -0.1572  0.1015  0.0578
   67loPI   C6A 1068  14.516  14.405   7.934 -0.2027 -0.3902 -0.1265
   67loPI   C1B 1069  13.675  14.527   9.327 -0.0236  0.0498  0.0685
   67loPI   C2B 1070  13.808  14.566   8.836  0.1422  0.0443  0.1037
   67loPI   C3B 1071  13.563  14.714   8.442 -0.0351 -0.0861  0.2183
   67loPI   C4B 1072  13.407  14.656   7.997 -0.3325 -0.3174 -0.1580
   68loPI    C1 1073   8.400   5.957  10.559  0.1924  0.0966 -0.0406
   68loPI    C2 1074   8.641   5.924  10.877  0.1126 -0.0636  0.0042
   68loPI    C3 1075   8.343   6.191  10.878  0.0639 -0.1177  0.0961
   68loPI   PO4 1076   8.556   6.027  10.346  0.4268 -0.0059 -0.0081
   68loPI   GL1 1077   8.662   5.829   9.979  0.0313  0.1363  0.1300
   68loPI   GL2 1078   8.353   5.721   9.993 -0.1148 -0.0150 -0.2081
   68loPI   C1A 1079   8.922   5.883   9.571 -0.1094 -0.1379  0.0747
   68loPI   C2A 1080   8.996   6.074   9.153 -0.1720  0.3025  0.0156
   68loPI   C3A 1081   9.012   6.052   8.749 -0.0167  0.2028  0.2478
   68loPI   C4A 1082   9.018   6.194   8.348 -0.0077 -0.0455  0.0132
   68loPI   C5A 1083   9.032   6.191   7.895  0.0021 -0.1175 -0.2091
   68loPI   C6A 1084   9.231   6.077   7.440 -0.0377  0.4055  0.1362
   68loPI   C1B 1085   8.325   5.758   9.561  0.3112  0.0505 -0.3519
   68loPI   C2B 1086   8.232   5.761   9.049  0.1128  0.0560 -0.2246
   68loPI   C3B 1087   8.057   5.821   8.547 -0.1601  0.0100 -0.1364
   68loPI   C4B 1088   8.186   5.883   8.035  0.1005 -0.2050  0.0634
   69loPI    C1 1089  12.012  17.503  10.200 -0.1646  0.1938 -0.2218
   69loPI    C2 1090  11.990  17.899  10.144 -0.3594  0.1929 -0.1579
   69loPI    C3 1091  12.216  17.750  10.439 -0.2334  0.2524 -0.2236
   69loPI   PO4 1092  11.709  17.455  10.060  0.0687 -0.0482  0.1560
   69loPI   GL1 1093  11.654  17.349   9.647  0.0185 -0.3618  0.0832
   69loPI   GL2 1094  11.361  17.304   9.622 -0.1153  0.1826 -0.1195
   69loPI   C1A 1095  11.644  16.930   9.472  0.2611  0.0935 -0.1182
   69loPI   C2A 1096  11.602  16.897   8.965  0.0955  0.1896 -0.1142
   69loPI   C3A 1097  11.529  16.647   8.633 -0.2253 -0.1199  0.2647
   69loPI   C4A 1098  11.792  16.386   8.450 -0.0102 -0.2844 -0.0804
   69loPI   C5A 1099  11.921  16.271   8.108 -0.1848  0.2161 -0.0978
   69loPI   C6A 1100  12.109  16.207   7.713  0.0947 -0.0132  0.2119
   69loPI   C1B 1101  11.335  17.246   9.176 -0.1748 -0.3062 -0.0132
   69loPI   C2B 1102  11.384  17.293   8.629  0.2934  0.0741  0.0277
   69loPI   C3B 1103  11.402  17.033   8.290 -0.2074 -0.2350 -0.2135
   69loPI   C4B 1104  11.654  16.739   8.069  0.1201 -0.1114  0.1380
   70loPI    C1 1105  14.969   9.502  10.473 -0.0277  0.0312 -0.1335
   70loPI    C2 1106  14.858   9.752  10.765 -0.0750  0.1564 -0.2576
   70loPI    C3 1107  15.236   9.622  10.746 -0.0506  0.2171 -0.1914
   70loPI   PO4 1108  14.874   9.633  10.252  0.0587 -0.0687  0.0581
   70loPI   GL1 1109  14.721   9.601   9.896  0.1343 -0.0074  0.1216
   70loPI   GL2 1110  14.888   9.272   9.864  0.0794  0.2748 -0.0062
   70loPI   C1A 1111  14.591   9.557   9.508  0.1168  0.3539  0.1645
   70loPI   C2A 1112  14.410   9.532   9.258  0.0925 -0.1401 -0.2218
   70loPI   C3A 1113  14.017   9.496   9.042 -0.2750 -0.1672  0.2182
   70loPI   C4A 1114  13.736   9.587   8.701 -0.0342  0.2612  0.2249
   70loPI   C5A 1115  13.768   9.657   8.371 -0.0521 -0.2412 -0.0404
   70loPI   C6A 1116  14.107   9.522   8.096  0.1333 -0.1872 -0.0000
   70loPI   C1B 1117  14.719   9.078   9.411  0.1394 -0.1577  0.1741
   70loPI   C2B 1118  14.703   9.076   8.969 -0.2323  0.0552  0.0275
   70loPI   C3B 1119  14.470   9.087   8.545  0.0005 -0.0081 -0.0602
   70loPI   C4B 1120  14.302   9.045   8.176 -0.0190 -0.1355  0.1267
   71loPI    C1 1121  15.810   9.354  10.604  0.0984  0.1461 -0.2309
   71loPI    C2 1122  15.918   9.173  10.943  0.0051  0.1811 -0.1821
   71loPI    C3 1123  16.161   9.165  10.626 -0.1093 -0.2547 -0.2657
   71loPI   PO4 1124  15.625   9.297  10.510  0.0420  0.0351 -0.2065
   71loPI   GL1 1125  15.393   9.400  10.070  0.1381  0.1969  0.0131
   71loPI   GL2 1126  15.675   9.504   9.914  0.0903  0.3321  0.0791
   71loPI   C1A 1127  15.291   9.042   9.731 -0.1731  0.2231 -0.2215
   71loPI   C2A 1128  15.254   9.169   9.291 -0.2089  0.1507 -0.1294
   71loPI   C3A 1129  15.200   9.152   8.863  0.0113 -0.0316  0.1520
   71loPI   C4A 1130  14.989   9.291   8.535 -0.0486 -0.2027 -0.0629
   71loPI   C5A 1131  14.650   9.440   8.231  0.0226  0.1893 -0.0746
   71loPI   C6A 1132  14.496   9.725   7.878  0.1076  0.0722 -0.0375
   71loPI   C1B 1133  15.515   9.546   9.490  0.0288 -0.0335  0.2893
   71loPI   C2B 1134  15.430   9.565   9.086 -0.1728  0.2118  0.1048
   71loPI   C3B 1135  15.425   9.585   8.649  0.2658  0.2889  0.1722
   71loPI   C4B 1136  15.463   9.452   8.227 -0.0436 -0.0015 -0.0823
   72loPI    C1 1137   9.696   1.216  10.371  0.2350 -0.1660 -0.0851
   72loPI    C2 1138   9.648   0.992  10.699  0.0687 -0.1522 -0.0990
   72loPI    C3 1139   9.880   1.318  10.711  0.0528 -0.1445  0.0082
   72loPI   PO4 1140   9.635   1.014  10.145 -0.0286  0.0283  0.1337
   72loPI   GL1 1141   9.677   0.949   9.734  0.3326 -0.1038 -0.1295
   72loPI   GL2 1142   9.467   1.063   9.627 -0.0649  0.1212 -0.1233
   72loPI   C1A 1143  10.030   0.804   9.433 -0.1873 -0.2234 -0.2442
   72loPI   C2A 1144  10.011   0.754   9.005 -0.0615 -0.1143  0.0443
   72loPI   C3A 1145  10.003   0.759   8.586  0.1202  0.1855 -0.0624
   72loPI   C4A 1146   9.999   0.651   8.164 -0.0831 -0.0511  0.3343
   72loPI   C5A 1147   9.935   0.464   7.845 -0.2973  0.4574  0.2095
   72loPI   C6A 1148   9.968  -0.017   7.891  0.2021  0.3245  0.0029
   72loPI   C1B 1149   9.240   1.217   9.370 -0.0480 -0.1418 -0.0054
   72loPI   C2B 1150   9.346   1.275   8.950  0.0781 -0.0261 -0.0499
   72loPI   C3B 1151   9.355   1.236   8.466  0.0821  0.0795  0.1553
   72loPI   C4B 1152   9.290   1.192   7.965  0.2019 -0.0358 -0.1965
   73loPI    C1 1153   0.546   9.244  10.165 -0.2452 -0.2648  0.0113
   73loPI    C2 1154   0.471   9.079  10.522 -0.0671 -0.0201  0.1646
   73loPI    C3 1155   0.844   9.084  10.378 -0.0774  0.2079  0.1424
   73loPI   PO4 1156   0.409   9.204  10.016  0.0866  0.1235  0.1345
   73loPI   GL1 1157   0.286   9.355   9.617  0.2190  0.2890 -0.1564
   73loPI   GL2 1158  -0.004   9.368   9.512 -0.1854 -0.4062 -0.2479
   73loPI   C1A 1159   0.501   9.314   9.271 -0.1539 -0.0731  0.1774
   73loPI   C2A 1160   0.487   9.132   8.854  0.0946 -0.1278 -0.1128
   73loPI   C3A 1161   0.610   9.223   8.447  0.1444  0.0147  0.2743
   73loPI   C4A 1162   0.839   9.470   8.157 -0.3030  0.2300 -0.1503
   73loPI   C5A 1163   0.749   9.606   7.772 -0.0389  0.0333 -0.1616
   73loPI   C6A 1164   0.576   9.323   7.391 -0.1138 -0.0657  0.2187
   73loPI   C1B 1165  -0.000   9.427   9.128 -0.2718 -0.0104  0.1197
   73loPI   C2B 1166   0.055   9.304   8.689  0.1990 -0.1263 -0.0397
   73loPI   C3B 1167   0.079   9.104   8.340 -0.0050  0.2606 -0.1684
   73loPI   C4B 1168  -0.002   9.087   7.893 -0.1184  0.1687 -0.0957
   74loPI    C1 1169   1.554   5.834   9.954  0.1372  0.2249  0.2992
   74loPI    C2 1170   1.352   5.605  10.212  0.1840 -0.0421  0.1035
   74loPI    C3 1171   1.155   5.855   9.970  0.0799 -0.3328 -0.1165
   74loPI   PO4 1172   1.707   5.770   9.835 -0.0797 -0.0399  0.1110
   74loPI   GL1 1173   1.858   5.617   9.488 -0.2781  0.1273  0.1273
   74loPI   GL2 1174   2.199   5.786   9.447  0.1472  0.1976 -0.2842
   74loPI   C1A 1175   1.888   5.430   9.102  0.0949  0.3146  0.1467
   74loPI   C2A 1176   1.972   5.508   8.657 -0.0585  0.0354  0.2420
   74loPI   C3A 1177   2.005   5.174   8.275  0.1680  0.0101 -0.4198
   74loPI   C4A 1178   1.926   5.020   7.907  0.0101  0.1869  0.0325
   74loPI   C5A 1179   1.559   4.804   7.862  0.2797  0.1113 -0.0202
   74loPI   C6A 1180   1.145   4.665   7.880  0.0448  0.2734 -0.0401
   74loPI   C1B 1181   2.219   5.798   9.003 -0.1557 -0.0130  0.0204
   74loPI   C2B 1182   2.289   6.071   8.636  0.1410  0.2306  0.2175
   74loPI   C3B 1183   2.036   5.949   8.253  0.1173  0.1134 -0.0969
   74loPI   C4B 1184   1.613   5.892   7.974 -0.2975  0.0668  0.0024
   75loPI    C1 1185   7.297   2.301  10.655  0.1345  0.0582  0.1001
   75loPI    C2 1186   7.030   2.220  10.941 -0.0416  0.0042 -0.0772
   75loPI    C3 1187   7.339   1.974  10.880 -0.2397 -0.2153 -0.2132
   75loPI   PO4 1188   7.223   2.241  10.398  0.0675 -0.2029 -0.1776
   75loPI   GL1 1189   7.134   2.361  10.020 -0.0020  0.0231 -0.0336
   75loPI   GL2 1190   6.868   2.255  10.049  0.2404  0.0162 -0.3428
   75loPI   C1A 1191   7.030   2.490   9.576  0.1642  0.1492 -0.3713
   75loPI   C2A 1192   7.105   2.549   9.216 -0.3018  0.1221 -0.0039
   75loPI   C3A 1193   7.230   2.864   8.950  0.4588 -0.0506  0.4008
   75loPI   C4A 1194   7.120   3.201   8.769  0.0810 -0.0576  0.0685
   75loPI   C5A 1195   7.014   3.428   8.473  0.1150 -0.1737  0.3185
   75loPI   C6A 1196   7.192   3.723   8.221  0.2707  0.0161 -0.1516
   75loPI   C1B 1197   6.568   2.101   9.685  0.1174 -0.0121 -0.0544
   75loPI   C2B 1198   6.393   1.911   9.220 -0.1718 -0.2378  0.0910
   75loPI   C3B 1199   6.313   1.995   8.735  0.1929  0.0388 -0.1241
   75loPI   C4B 1200   6.252   2.081   8.343 -0.0237  0.0730 -0.2226
   76loPI    C1 1201   4.260  13.599  10.409  0.0821 -0.0053  0.0663
   76loPI    C2 1202   4.228  13.263  10.623 -0.0533  0.0615  0.1519
   76loPI    C3 1203   3.946  13.546  10.651 -0.0143  0.1197 -0.0298
   76loPI   PO4 1204   4.278  13.579  10.152  0.1190  0.0397 -0.0113
   76loPI   GL1 1205   3.978  13.654   9.816 -0.4312  0.3174  0.1506
   76loPI   GL2 1206   4.136  13.985   9.789  0.1794  0.2129  0.2352
   76loPI   C1A 1207   3.744  13.339   9.586 -0.0049  0.1165 -0.1989
   76loPI   C2A 1208   3.698  13.153   9.162  0.0356 -0.0840  0.0847
   76loPI   C3A 1209   3.773  13.230   8.627  0.1867  0.0511  0.2091
   76loPI   C4A 1210   3.739  13.123   8.140 -0.2886  0.1562 -0.0660
   76loPI   C5A 1211   3.431  13.284   7.822 -0.2315  0.1828 -0.0784
   76loPI   C6A 1212   3.235  13.436   7.390 -0.0474 -0.0470  0.1083
   76loPI   C1B 1213   4.127  13.888   9.307 -0.1426 -0.1603  0.0867
   76loPI   C2B 1214   4.424  13.894   8.927 -0.1051  0.2912  0.3191
   76loPI   C3B 1215   4.691  14.072   8.599 -0.0428 -0.0019 -0.0800
   76loPI   C4B 1216   5.133  14.008   8.381  0.1193 -0.2280 -0.1907
   77loPI    C1 1217   7.833  15.396  10.791 -0.1247 -0.0914  0.3014
   77loPI    C2 1218   7.860  15.564  11.153  0.0365  0.1146  0.1955
   77loPI    C3 1219   7.505  15.541  10.970  0.0155  0.3657  0.2006
   77loPI   PO4 1220   7.926  15.583  10.548 -0.0916  0.2417  0.0792
   77loPI   GL1 1221   7.645  15.644  10.181 -0.2354 -0.0480 -0.1548
   77loPI   GL2 1222   7.775  15.374   9.987 -0.1009  0.3712  0.4397
   77loPI   C1A 1223   7.479  15.738   9.786 -0.2393 -0.2210 -0.0983
   77loPI   C2A 1224   7.304  15.668   9.348 -0.2251 -0.2111  0.2051
   77loPI   C3A 1225   7.249  15.489   8.964 -0.0646 -0.0589  0.0338
   77loPI   C4A 1226   7.189  15.110   8.666 -0.1706 -0.1651  0.0420
   77loPI   C5A 1227   7.321  14.771   8.618 -0.3338 -0.3155 -0.2120
   77loPI   C6A 1228   7.509  14.393   8.701 -0.0594  0.2456  0.0926
   77loPI   C1B 1229   7.777  15.496   9.469  0.2901 -0.6183  0.0445
   77loPI   C2B 1230   7.772  15.536   9.076 -0.1248 -0.1458  0.0434
   77loPI   C3B 1231   8.017  15.622   8.717  0.0192 -0.0499 -0.1071
   77loPI   C4B 1232   8.267  15.598   8.361  0.0853 -0.2355  0.0143
   78loPI    C1 1233  14.091  18.187  10.112  0.0572 -0.1627  0.0100
   78loPI    C2 1234  13.932  18.041   9.775  0.1558 -0.2537  0.0028
   78loPI    C3 1235  13.693  18.166  10.071  0.0658  0.0087 -0.1770
   78loPI   PO4 1236  14.375  18.162  10.109  0.3189 -0.2589 -0.0350
   78loPI   GL1 1237  14.526  18.495   9.824  0.0382  0.0656 -0.2447
   78loPI   GL2 1238  14.223  18.636   9.828  0.0013  0.3305 -0.3320
   78loPI   C1A 1239  14.504  18.863   9.454  0.0073  0.1377  0.1748
   78loPI   C2A 1240  14.538  19.148   9.147 -0.0378 -0.0090  0.4005
   78loPI   C3A 1241  14.609  19.306   8.693 -0.1432  0.0979 -0.0662
   78loPI   C4A 1242  14.682  19.394   8.169  0.1768 -0.0360  0.1943
   78loPI   C5A 1243  14.670  19.383   7.798  0.3134 -0.3105 -0.0964
   78loPI   C6A 1244  14.502  19.520   7.481 -0.1485  0.1949  0.4502
   78loPI   C1B 1245  14.114  18.448   9.524  0.0503  0.0569 -0.0764
   78loPI   C2B 1246  14.085  18.151   9.119  0.1540  0.1656 -0.0164
   78loPI   C3B 1247  14.085  18.129   8.733  0.0471 -0.0180  0.3388
   78loPI   C4B 1248  13.921  18.008   8.337 -0.3437  0.0726  0.0771
   79loPI    C1 1249  12.317  16.699  10.373  0.2174  0.0905  0.1060
   79loPI    C2 1250  12.043  16.988  10.407  0.1616  0.0491  0.0103
   79loPI    C3 1251  12.300  16.921  10.706 -0.0617 -0.0445  0.1849
   79loPI   PO4 1252  12.314  16.683  10.075 -0.0037  0.1543  0.0138
   79loPI   GL1 1253  12.039  16.633   9.719 -0.0029  0.0837 -0.1088
   79loPI   GL2 1254  12.328  16.829   9.581 -0.0044  0.1591 -0.0791
   79loPI   C1A 1255  11.994  16.684   9.232 -0.0099 -0.2702  0.1358
   79loPI   C2A 1256  12.133  16.617   8.790 -0.1980  0.0865  0.2756
   79loPI   C3A 1257  12.300  16.540   8.417  0.0020 -0.3790 -0.1986
   79loPI   C4A 1258  12.701  16.727   8.235  0.0749 -0.0567 -0.1940
   79loPI   C5A 1259  13.034  16.854   8.183 -0.1201  0.1234  0.0494
   79loPI   C6A 1260  13.435  16.692   8.121 -0.0434  0.2126  0.0845
   79loPI   C1B 1261  12.506  16.938   9.062 -0.3811 -0.0200  0.0397
   79loPI   C2B 1262  12.445  16.956   8.611  0.1052 -0.2078  0.2790
   79loPI   C3B 1263  12.371  17.099   8.312 -0.0596  0.0889  0.4104
   79loPI   C4B 1264  12.081  17.142   7.925  0.1263 -0.0301  0.3146
   80loPI    C1 1265   2.124   2.920  10.359  0.2249  0.1799 -0.0126
   80loPI    C2 1266   1.802   2.911  10.596  0.2564 -0.1550  0.0218
   80loPI    C3 1267   2.146   2.749  10.720  0.4055  0.0899 -0.0654
   80loPI   PO4 1268   2.077   3.116  10.216 -0.0236  0.0537 -0.1252
   80loPI   GL1 1269   1.864   3.386   9.771 -0.1445 -0.1231 -0.0616
   80loPI   GL2 1270   2.174   3.506   9.780  0.1686 -0.1027 -0.2622
   80loPI   C1A 1271   1.950   3.211   9.466  0.2789  0.1575  0.0863
   80loPI   C2A 1272   1.988   3.236   9.000 -0.0907 -0.1732 -0.0063
   80loPI   C3A 1273   1.880   2.849   8.716  0.2759  0.1164  0.1169
   80loPI   C4A 1274   1.689   2.718   8.323  0.2758 -0.1182  0.1486
   80loPI   C5A 1275   1.821   2.512   7.952  0.1103  0.0414  0.2642
   80loPI   C6A 1276   1.718   1.982   7.977 -0.0712 -0.3581 -0.2602
   80loPI   C1B 1277   2.242   3.614   9.298  0.2474  0.0168  0.0866
   80loPI   C2B 1278   2.301   3.680   8.850  0.3082  0.3047 -0.0868
   80loPI   C3B 1279   2.310   3.341   8.577  0.2418 -0.2515  0.1591
   80loPI   C4B 1280   1.924   3.211   8.395 -0.0531 -0.1914  0.0451
   81loPI    C1 1281  17.143   3.860  10.461  0.1943 -0.1660 -0.2078
   81loPI    C2 1282  17.209   3.549  10.704 -0.1795 -0.0421  0.0606
   81loPI    C3 1283  17.095   3.901  10.856  0.0359  0.1706 -0.2588
   81loPI   PO4 1284  17.030   3.852  10.233 -0.0767  0.3849  0.2880
   81loPI   GL1 1285  17.026   3.754   9.782 -0.2183  0.2142  0.2564
   81loPI   GL2 1286  16.864   4.075   9.773 -0.0309  0.1849  0.0021
   81loPI   C1A 1287  16.883   3.460   9.455 -0.3033 -0.2454  0.0106
   81loPI   C2A 1288  16.787   3.561   9.018  0.2702 -0.1059 -0.1129
   81loPI   C3A 1289  16.602   3.509   8.474  0.3483  0.4060  0.0498
   81loPI   C4A 1290  16.374   3.496   8.040  0.0913  0.0782  0.0031
   81loPI   C5A 1291  16.120   3.250   7.905  0.2567 -0.1291 -0.2777
   81loPI   C6A 1292  15.663   3.279   7.831  0.2250 -0.2071  0.2211
   81loPI   C1B 1293  16.837   3.980   9.306 -0.0419 -0.1017 -0.0024
   81loPI   C2B 1294  16.832   3.979   8.798  0.0164 -0.1510 -0.1221
   81loPI   C3B 1295  16.934   3.868   8.251 -0.1566 -0.2984 -0.0029
   81loPI   C4B 1296  16.957   3.636   7.811 -0.1264 -0.1998  0.2460
   82loPI    C1 1297  10.434  11.813  10.787 -0.1335 -0.1329 -0.0248
   82loPI    C2 1298  10.774  11.627  10.687 -0.0654  0.0076 -0.0573
   82loPI    C3 1299  10.593  11.540  11.033  0.1252  0.0943  0.0658
   82loPI   PO4 1300  10.601  12.110  10.619  0.0227 -0.2150 -0.2492
   82loPI   GL1 1301  10.550  12.256  10.287  0.0838  0.1265  0.0617
   82loPI   GL2 1302  10.363  12.497  10.123 -0.0236  0.2204 -0.3392
   82loPI   C1A 1303  10.655  11.976   9.954 -0.3608  0.1231  0.0565
   82loPI   C2A 1304  10.751  11.848   9.586  0.1856  0.3959 -0.1607
   82loPI   C3A 1305  11.045  11.912   9.291 -0.1769 -0.0248  0.5356
   82loPI   C4A 1306  11.097  11.947   8.830 -0.3064 -0.0369 -0.1026
   82loPI   C5A 1307  11.237  12.166   8.497  0.0331 -0.0907  0.1111
   82loPI   C6A 1308  11.523  12.511   8.291  0.2493 -0.2561 -0.3123
   82loPI   C1B 1309  10.651  12.444   9.803 -0.2211 -0.1618  0.1633
   82loPI   C2B 1310  10.744  12.278   9.404 -0.0726 -0.1078 -0.3338
   82loPI   C3B 1311  10.663  12.182   8.987  0.1965 -0.1616 -0.3651
   82loPI   C4B 1312  10.711  12.232   8.602  0.5008  0.0374  0.0738
   83loPI    C1 1313   0.199  15.283  10.640  0.0173  0.0010 -0.0042
   83loPI    C2 1314   0.361  14.972  10.832 -0.1922 -0.0911  0.0258
   83loPI    C3 1315   0.266  15.303  11.034  0.0057 -0.0161 -0.0013
   83loPI   PO4 1316   0.318  15.277  10.416  0.0998 -0.1365  0.0227
   83loPI   GL1 1317   0.390  15.201   9.976  0.0094 -0.3460  0.1768
   83loPI   GL2 1318   0.159  14.944   9.998  0.1737 -0.0449  0.0674
   83loPI   C1A 1319   0.666  15.131   9.688 -0.2669  0.0970  0.3297
   83loPI   C2A 1320   0.621  14.991   9.232 -0.0879  0.0407 -0.0055
   83loPI   C3A 1321   0.478  15.077   8.798  0.1038  0.0986  0.1159
   83loPI   C4A 1322   0.491  15.037   8.393 -0.0160  0.0271  0.2894
   83loPI   C5A 1323   0.477  14.999   7.899  0.2409 -0.2919 -0.0855
   83loPI   C6A 1324   0.127  15.159   7.675 -0.0340  0.0489  0.0894
   83loPI   C1B 1325   0.168  15.031   9.524 -0.1674 -0.1185 -0.3672
   83loPI   C2B 1326   0.073  15.061   9.045  0.1758  0.1181  0.0984
   83loPI   C3B 1327  -0.039  15.104   8.629 -0.0374  0.1721  0.0436
   83loPI   C4B 1328   0.032  15.036   8.158  0.0988  0.0312 -0.0599
   84loPI    C1 1329   2.730  16.348  10.358  0.0513 -0.2414  0.0101
   84loPI    C2 1330   2.485  16.176  10.092 -0.0878 -0.2320  0.1309
   84loPI    C3 1331   2.355  16.255  10.462  0.0626 -0.1214  0.1610
   84loPI   PO4 1332   2.869  16.579  10.149  0.3437 -0.0250  0.1564
   84loPI   GL1 1333   2.786  16.890   9.884  0.0140  0.0568 -0.1203
   84loPI   GL2 1334   2.476  16.997   9.724  0.1929  0.2438  0.2787
   84loPI   C1A 1335   2.878  16.989   9.446 -0.1170  0.0790 -0.0913
   84loPI   C2A 1336   2.855  16.902   9.026 -0.0003  0.2045  0.0077
   84loPI   C3A 1337   2.674  17.044   8.596 -0.0335  0.1271  0.0569
   84loPI   C4A 1338   2.533  17.117   8.117 -0.0746  0.1508  0.1590
   84loPI   C5A 1339   2.554  17.095   7.621 -0.1633 -0.0635  0.0905
   84loPI   C6A 1340   2.775  16.891   7.374 -0.1430 -0.2529  0.0244
   84loPI   C1B 1341   2.405  16.774   9.312  0.2728  0.0765 -0.2055
   84loPI   C2B 1342   2.369  16.799   8.869  0.2831  0.3663  0.0452
   84loPI   C3B 1343   2.390  16.692   8.425 -0.2415  0.4150 -0.0756
   84loPI   C4B 1344   2.176  16.631   8.001 -0.0190 -0.0421 -0.0304
   85loPI    C1 1345   0.136   6.597   9.995 -0.1998 -0.2330 -0.1978
   85loPI    C2 1346   0.207   6.262  10.202  0.0161 -0.1842 -0.1906
   85loPI    C3 1347   0.136   6.606  10.395 -0.0692 -0.1976 -0.1980
   85loPI   PO4 1348  -0.066   6.557   9.825  0.3913  0.3643 -0.2226
   85loPI   GL1 1349  -0.135   6.878   9.613 -0.1493  0.2436 -0.2314
   85loPI   GL2 1350   0.056   7.079   9.657 -0.0818 -0.0368 -0.0918
   85loPI   C1A 1351  -0.508   6.921   9.512 -0.1570  0.0888  0.5328
   85loPI   C2A 1352  -0.742   7.058   9.115 -0.0555  0.0451 -0.4077
   85loPI   C3A 1353  -0.748   7.132   8.622 -0.2142 -0.2386  0.0777
   85loPI   C4A 1354  -0.975   6.894   8.324 -0.0171  0.0594 -0.0111
   85loPI   C5A 1355  -0.983   6.962   7.802  0.0427  0.1116  0.0227
   85loPI   C6A 1356  -1.032   6.676   7.403 -0.2588  0.4112 -0.0922
   85loPI   C1B 1357  -0.073   7.274   9.230  0.4487 -0.3137 -0.1004
   85loPI   C2B 1358  -0.288   7.316   8.912  0.0237 -0.0192  0.0015
   85loPI   C3B 1359  -0.238   7.421   8.529  0.0776 -0.0950  0.1093
   85loPI   C4B 1360  -0.134   7.463   8.141 -0.1818 -0.3043 -0.0748
   86loPI    C1 1361  16.995  14.243  10.440 -0.0862  0.0235 -0.1379
   86loPI    C2 1362  16.846  13.878  10.366 -0.1996  0.0606 -0.0946
   86loPI    C3 1363  16.718  14.087  10.683  0.0348  0.0430  0.0139
   86loPI   PO4 1364  17.029  14.332  10.181 -0.2282 -0.0630  0.3079
   86loPI   GL1 1365  16.861  14.588   9.917 -0.3690  0.1566  0.1253
   86loPI   GL2 1366  16.936  14.877   9.733  0.1274 -0.0921 -0.0918
   86loPI   C1A 1367  16.654  14.311   9.669 -0.0105  0.1351 -0.0583
   86loPI   C2A 1368  16.722  14.253   9.171 -0.0351 -0.0561  0.0988
   86loPI   C3A 1369  16.617  14.193   8.752  0.2742  0.0286 -0.1247
   86loPI   C4A 1370  16.462  14.177   8.309 -0.1853  0.1447  0.2058
   86loPI   C5A 1371  16.668  14.008   7.963  0.3721  0.1258  0.4554
   86loPI   C6A 1372  16.535  13.901   7.607  0.1994  0.0872 -0.1101
   86loPI   C1B 1373  16.783  14.754   9.400  0.1424  0.1948  0.0246
   86loPI   C2B 1374  16.840  14.662   8.971 -0.1380 -0.0156  0.1167
   86loPI   C3B 1375  16.792  14.583   8.434 -0.0534  0.0998 -0.1192
   86loPI   C4B 1376  16.747  14.505   7.972 -0.0064  0.1605 -0.0885
   87loPI    C1 1377   3.994   1.423  10.531 -0.2308  0.1642 -0.0080
   87loPI    C2 1378   4.189   1.670  10.777  0.3114 -0.1213 -0.1359
   87loPI    C3 1379   4.146   1.284  10.874 -0.0498 -0.0980 -0.1901
   87loPI   PO4 1380   4.011   1.449  10.279  0.1336 -0.0269 -0.0019
   87loPI   GL1 1381   4.069   1.778   9.896  0.0644  0.1281  0.2528
   87loPI   GL2 1382   4.071   2.041   9.804 -0.0227  0.1322 -0.2519
   87loPI   C1A 1383   4.211   1.645   9.444 -0.1602 -0.0165 -0.1846
   87loPI   C2A 1384   4.296   1.745   9.000 -0.3542 -0.1945 -0.0805
   87loPI   C3A 1385   4.351   1.631   8.558  0.0626  0.0562 -0.0047
   87loPI   C4A 1386   4.628   1.740   8.330 -0.2367  0.0090  0.0490
   87loPI   C5A 1387   5.002   1.749   8.063 -0.2146 -0.2116  0.0302
   87loPI   C6A 1388   5.383   1.809   7.810 -0.1547 -0.1434 -0.1677
   87loPI   C1B 1389   4.097   2.164   9.363 -0.0221  0.0121 -0.2289
   87loPI   C2B 1390   4.293   2.237   8.955 -0.0932  0.1816 -0.0911
   87loPI   C3B 1391   4.519   2.205   8.628 -0.0991  0.0888  0.0083
   87loPI   C4B 1392   4.487   2.369   8.259 -0.0226 -0.1247  0.3558
   88loPI    C1 1393   8.008  13.279  10.865  0.5137  0.3106  0.4682
   88loPI    C2 1394   7.878  13.638  10.984 -0.3303  0.1702  0.0514
   88loPI    C3 1395   7.729  13.307  11.151 -0.0459  0.0007 -0.0241
   88loPI   PO4 1396   7.883  13.250  10.572 -0.1931 -0.3242  0.0009
   88loPI   GL1 1397   7.865  13.230  10.158  0.2427  0.1915 -0.0488
   88loPI   GL2 1398   7.532  13.043  10.117  0.0608  0.2744 -0.2142
   88loPI   C1A 1399   7.952  12.765   9.924 -0.1471  0.0613 -0.0112
   88loPI   C2A 1400   8.267  12.482   9.781 -0.1676  0.0119  0.3474
   88loPI   C3A 1401   8.479  12.427   9.340 -0.1293  0.3142  0.1337
   88loPI   C4A 1402   8.310  12.417   8.920  0.0796 -0.0704  0.0402
   88loPI   C5A 1403   8.140  12.357   8.504  0.1651  0.0536 -0.2513
   88loPI   C6A 1404   8.182  11.885   8.368  0.1648  0.1023 -0.0617
   88loPI   C1B 1405   7.637  13.176   9.680 -0.2868  0.1042  0.0848
   88loPI   C2B 1406   7.782  13.100   9.268 -0.2781  0.1209 -0.0632
   88loPI   C3B 1407   7.835  13.249   8.866  0.2662 -0.1075  0.3318
   88loPI   C4B 1408   7.966  13.378   8.449  0.3776  0.0773 -0.0951
   89loPI    C1 1409  15.799  10.704  10.631 -0.0410  0.1564  0.1098
   89loPI    C2 1410  15.491  10.839  10.846 -0.1193 -0.0105  0.1034
   89loPI    C3 1411  15.635  10.472  10.912  0.1610  0.1131  0.1938
   89loPI   PO4 1412  15.857  10.898  10.446 -0.1164 -0.1041 -0.2695
   89loPI   GL1 1413  15.570  11.079  10.109 -0.2451 -0.2008 -0.2117
   89loPI   GL2 1414  15.518  11.380   9.911 -0.2409 -0.0382  0.1509
   89loPI   C1A 1415  15.779  10.986   9.797 -0.2190 -0.0401  0.0796
   89loPI   C2A 1416  15.819  10.903   9.303  0.0109  0.0218  0.0929
   89loPI   C3A 1417  15.720  10.934   8.885  0.1356  0.3042 -0.1577
   89loPI   C4A 1418  15.599  10.927   8.406 -0.2212  0.0335 -0.1483
   89loPI   C5A 1419  15.728  11.102   8.026  0.0676  0.0278 -0.0654
   89loPI   C6A 1420  16.179  11.434   7.947  0.0575  0.3514 -0.1186
   89loPI   C1B 1421  15.415  11.418   9.493 -0.0656 -0.0298  0.0055
   89loPI   C2B 1422  15.434  11.271   9.067 -0.0021  0.2821 -0.0921
   89loPI   C3B 1423  15.357  11.402   8.706  0.0116  0.0355 -0.0243
   89loPI   C4B 1424  15.318  11.449   8.250 -0.2031 -0.0458 -0.0984
   90loPI    C1 1425   9.547   6.456  10.217 -0.1792  0.1503 -0.0559
   90loPI    C2 1426   9.774   6.299  10.506 -0.1312 -0.0715 -0.2112
   90loPI    C3 1427   9.380   6.338  10.560 -0.1241 -0.1221 -0.1203
   90loPI   PO4 1428   9.622   6.670  10.090  0.0059 -0.1093 -0.0649
   90loPI   GL1 1429   9.700   6.794   9.723  0.1737 -0.1385  0.0360
   90loPI   GL2 1430   9.448   6.472   9.591  0.0036 -0.2753 -0.0702
   90loPI   C1A 1431   9.689   6.805   9.282  0.1229  0.2634 -0.1091
   90loPI   C2A 1432   9.710   6.900   8.858  0.1474 -0.0058  0.3112
   90loPI   C3A 1433   9.715   6.874   8.401  0.0283  0.2490 -0.3581
   90loPI   C4A 1434   9.897   6.711   8.061  0.2801 -0.1924  0.0530
   90loPI   C5A 1435  10.156   6.410   7.814  0.1122  0.2638  0.0558
   90loPI   C6A 1436  10.234   5.958   7.846 -0.1179  0.2200  0.0582
   90loPI   C1B 1437   9.380   6.382   9.199 -0.2420 -0.0909 -0.0519
   90loPI   C2B 1438   9.327   6.515   8.707 -0.1840  0.0157 -0.0095
   90loPI   C3B 1439   9.269   6.604   8.306  0.2164  0.3012 -0.2065
   90loPI   C4B 1440   9.418   6.548   7.894 -0.1130  0.1057 -0.0346
   91loPI    C1 1441   6.124  10.821  10.618  0.0637 -0.0766 -0.1435
   91loPI    C2 1442   5.899  11.021  10.881  0.2489 -0.0068 -0.0359
   91loPI    C3 1443   6.090  10.688  10.993  0.3961  0.0696 -0.0582
   91loPI   PO4 1444   6.011  10.732  10.414  0.1438  0.1921 -0.2124
   91loPI   GL1 1445   6.088  10.552   9.990  0.3470 -0.2195  0.1595
   91loPI   GL2 1446   5.761  10.697  10.030 -0.1457 -0.1894  0.2813
   91loPI   C1A 1447   6.272  10.981   9.767  0.1208 -0.3430 -0.0170
   91loPI   C2A 1448   6.408  10.923   9.321  0.0038 -0.0215 -0.1627
   91loPI   C3A 1449   6.514  10.925   8.914  0.3002  0.1543  0.0343
   91loPI   C4A 1450   6.768  10.757   8.635  0.2962 -0.3326 -0.2187
   91loPI   C5A 1451   6.709  10.592   8.255  0.0817 -0.3271  0.2560
   91loPI   C6A 1452   6.524  10.537   7.801  0.1643 -0.0683 -0.1996
   91loPI   C1B 1453   5.792  10.633   9.584  0.1875 -0.3151  0.0697
   91loPI   C2B 1454   5.711  10.465   9.244 -0.1440  0.0630  0.3724
   91loPI   C3B 1455   5.788  10.157   8.897 -0.1395 -0.1850 -0.3183
   91loPI   C4B 1456   5.754   9.759   9.022 -0.0707 -0.0217 -0.0099
   92loPI    C1 1457   7.781  11.724  10.917 -0.1173 -0.2538  0.2125
   92loPI    C2 1458   7.383  11.755  10.909 -0.1081 -0.1107  0.2923
   92loPI    C3 1459   7.577  11.761  11.259 -0.0195  0.0425  0.2417
   92loPI   PO4 1460   7.777  11.761  10.583  0.1798 -0.0804 -0.0054
   92loPI   GL1 1461   7.747  11.860  10.138 -0.0911  0.1509  0.1884
   92loPI   GL2 1462   7.584  12.156  10.289 -0.2732 -0.5323 -0.0472
   92loPI   C1A 1463   7.978  11.751   9.766 -0.1211 -0.1902 -0.0079
   92loPI   C2A 1464   7.968  11.874   9.319 -0.1512 -0.1287 -0.0532
   92loPI   C3A 1465   8.057  11.841   8.881  0.1752 -0.2175 -0.0904
   92loPI   C4A 1466   7.783  11.700   8.584  0.2162  0.4987 -0.0997
   92loPI   C5A 1467   7.640  11.281   8.349  0.1434  0.1787 -0.0124
   92loPI   C6A 1468   7.871  11.017   8.122 -0.0073  0.0484  0.2464
   92loPI   C1B 1469   7.760  12.324   9.819  0.1677  0.3383 -0.0772
   92loPI   C2B 1470   7.946  12.530   9.349 -0.0456  0.2376  0.0096
   92loPI   C3B 1471   7.784  12.568   8.946  0.0765 -0.2017 -0.1093
   92loPI   C4B 1472   7.654  12.464   8.493 -0.0526  0.1226  0.0311
   93loPI    C1 1473  18.330  13.787  10.033 -0.0982 -0.3324  0.0134
   93loPI    C2 1474  18.663  13.597   9.921  0.1002  0.1868 -0.3096
   93loPI    C3 1475  18.652  13.792  10.270 -0.1549 -0.5191  0.0964
   93loPI   PO4 1476  18.293  13.958   9.877 -0.2375 -0.2138 -0.0282
   93loPI   GL1 1477  18.562  13.951   9.576  0.3279  0.1807  0.1074
   93loPI   GL2 1478  18.476  13.713   9.411  0.3439  0.3261 -0.2087
   93loPI   C1A 1479  18.379  14.244   9.161  0.1084  0.1148 -0.2815
   93loPI   C2A 1480  18.362  14.591   8.961 -0.0139 -0.1365 -0.2474
   93loPI   C3A 1481  18.676  14.679   8.519  0.2350 -0.1602 -0.1622
   93loPI   C4A 1482  18.875  14.543   8.229 -0.1037 -0.0764  0.1288
   93loPI   C5A 1483  18.919  14.217   7.913  0.1516 -0.0427  0.1368
   93loPI   C6A 1484  19.271  13.984   7.710  0.0071 -0.1160  0.0045
   93loPI   C1B 1485  18.525  13.638   9.051  0.0599 -0.0603  0.0101
   93loPI   C2B 1486  18.395  13.736   8.578  0.0591 -0.1839  0.1049
   93loPI   C3B 1487  18.315  13.638   8.233 -0.1084  0.1404 -0.2689
   93loPI   C4B 1488  18.361  13.714   7.750 -0.1166 -0.1043  0.2744
   94loPI    C1 1489  11.663  11.704  11.291  0.1641 -0.2189  0.1980
   94loPI    C2 1490  11.397  11.424  11.394 -0.1887  0.1023  0.1798
   94loPI    C3 1491  11.382  11.786  11.563  0.2683  0.1132  0.2095
   94loPI   PO4 1492  11.634  11.711  10.962  0.0208  0.0642 -0.4768
   94loPI   GL1 1493  11.374  11.950  10.632  0.2146 -0.2346  0.0718
   94loPI   GL2 1494  11.091  12.024  10.649  0.0161 -0.2409 -0.3324
   94loPI   C1A 1495  11.482  11.784  10.233  0.1998  0.0209 -0.0482
   94loPI   C2A 1496  11.681  11.894   9.757  0.0169  0.1499  0.1882
   94loPI   C3A 1497  11.649  11.993   9.312 -0.0099 -0.0632  0.0672
   94loPI   C4A 1498  11.695  11.986   8.801 -0.3211  0.0937  0.0715
   94loPI   C5A 1499  11.667  11.852   8.349  0.0341 -0.1665 -0.0219
   94loPI   C6A 1500  11.449  11.554   8.175 -0.1054 -0.3152 -0.2406
   94loPI   C1B 1501  11.113  12.069  10.192 -0.0287 -0.3139 -0.2150
   94loPI   C2B 1502  11.162  12.204   9.794 -0.1170 -0.0911  0.0738
   94loPI   C3B 1503  11.335  12.323   9.450 -0.0736 -0.0365 -0.0852
   94loPI   C4B 1504  11.406  12.365   9.051  0.0526  0.0893 -0.2464
   95loPI    C1 1505   8.660  15.275  10.613  0.0070 -0.2293  0.0455
   95loPI    C2 1506   8.291  15.300  10.462 -0.0341 -0.0549  0.1712
   95loPI    C3 1507   8.356  15.388  10.847  0.1774  0.1547  0.0900
   95loPI   PO4 1508   8.796  15.464  10.376  0.1251  0.4316  0.0830
   95loPI   GL1 1509   8.986  15.483  10.043  0.0075  0.0452 -0.3668
   95loPI   GL2 1510   9.111  15.306   9.874  0.1210  0.0604 -0.1040
   95loPI   C1A 1511   9.059  15.739   9.624 -0.1837  0.1078 -0.0571
   95loPI   C2A 1512   9.006  15.685   9.139 -0.0996 -0.1540  0.0569
   95loPI   C3A 1513   9.124  15.593   8.695  0.1316  0.1797 -0.0630
   95loPI   C4A 1514   9.250  15.441   8.309 -0.1556 -0.1899 -0.0756
   95loPI   C5A 1515   9.442  15.409   7.873  0.2204 -0.2101  0.1475
   95loPI   C6A 1516   9.702  15.630   7.594  0.1980  0.0546 -0.0455
   95loPI   C1B 1517   9.176  15.297   9.436  0.0414 -0.0557 -0.1449
   95loPI   C2B 1518   9.197  15.199   9.042  0.2367 -0.0504  0.0163
   95loPI   C3B 1519   9.169  14.843   8.908  0.1306 -0.2180  0.3465
   95loPI   C4B 1520   9.115  14.520   8.906  0.0220  0.1513 -0.1456
   96loPI    C1 1521  14.070   4.767  10.151 -0.0434 -0.0631 -0.1527
   96loPI    C2 1522  14.038   4.828  10.545  0.0428  0.1725 -0.1805
   96loPI    C3 1523  13.711   4.753  10.327  0.0043 -0.0394 -0.0529
   96loPI   PO4 1524  14.360   4.769  10.110 -0.0169  0.1318 -0.2092
   96loPI   GL1 1525  14.655   4.772   9.810 -0.0647  0.0132 -0.0543
   96loPI   GL2 1526  14.489   5.140   9.726 -0.1518  0.0827 -0.0822
   96loPI   C1A 1527  14.828   4.619   9.452  0.1011 -0.2784  0.0450
   96loPI   C2A 1528  14.882   4.556   8.919  0.0460 -0.1517 -0.1390
   96loPI   C3A 1529  15.023   4.576   8.449 -0.1993  0.0181  0.0361
   96loPI   C4A 1530  15.257   4.545   7.940  0.0549 -0.1483 -0.2037
   96loPI   C5A 1531  15.624   4.706   7.841  0.1660 -0.1240 -0.1062
   96loPI   C6A 1532  16.086   4.682   7.997 -0.2921 -0.1183  0.1336
   96loPI   C1B 1533  14.373   4.967   9.286 -0.0254  0.2178  0.2839
   96loPI   C2B 1534  14.096   4.984   9.043 -0.1301  0.1432  0.1436
   96loPI   C3B 1535  14.218   5.182   8.727 -0.5104 -0.1924 -0.0112
   96loPI   C4B 1536  14.276   5.328   8.363 -0.0034  0.2090  0.0481
   97loPI    C1 1537  18.381  10.016   9.826  0.2360  0.0557 -0.0860
   97loPI    C2 1538  18.401   9.636   9.950 -0.0632  0.0992  0.1048
   97loPI    C3 1539  18.491   9.933  10.202  0.2075  0.1565 -0.0553
   97loPI   PO4 1540  18.149  10.113   9.760 -0.1703 -0.2281 -0.3147
   97loPI   GL1 1541  17.963   9.842   9.581 -0.1514 -0.1325 -0.2441
   97loPI   GL2 1542  18.057   9.511   9.631  0.0516 -0.1080  0.5080
   97loPI   C1A 1543  17.728   9.980   9.197  0.0461 -0.3161 -0.1651
   97loPI   C2A 1544  17.726   9.849   8.772  0.0146 -0.1134  0.1290
   97loPI   C3A 1545  17.873   9.808   8.376  0.0236 -0.1391 -0.1035
   97loPI   C4A 1546  17.795   9.836   7.948 -0.3355  0.0154  0.1488
   97loPI   C5A 1547  17.470  10.090   7.783  0.0510  0.1961  0.0211
   97loPI   C6A 1548  17.081   9.993   7.657  0.0396  0.2789 -0.3417
   97loPI   C1B 1549  17.963   9.572   9.203  0.2617  0.0587  0.1568
   97loPI   C2B 1550  18.052   9.446   8.757 -0.1595  0.1232  0.1752
   97loPI   C3B 1551  18.024   9.273   8.347 -0.3325 -0.1562  0.1941
   97loPI   C4B 1552  17.667   9.269   8.103 -0.1182  0.1496 -0.0026
   98loPI    C1 1553  15.244   8.785  10.520  0.1468  0.0935 -0.0052
   98loPI    C2 1554  15.081   9.038  10.257 -0.1020 -0.0726 -0.0139
   98loPI    C3 1555  14.974   9.053  10.642  0.1502  0.0705  0.0530
   98loPI   PO4 1556  15.316   8.548  10.344 -0.0463  0.0481  0.3986
   98loPI   GL1 1557  15.163   8.504   9.939 -0.3359  0.2841  0.0303
   98loPI   GL2 1558  14.913   8.723   9.847 -0.0215  0.2486 -0.2066
   98loPI   C1A 1559  15.159   8.195   9.568  0.1575 -0.1783 -0.0412
   98loPI   C2A 1560  15.193   8.132   9.189  0.0829 -0.1956 -0.0694
   98loPI   C3A 1561  15.224   8.248   8.724  0.1508  0.0818  0.1732
   98loPI   C4A 1562  15.139   8.419   8.279 -0.1854 -0.2428  0.1626
   98loPI   C5A 1563  15.221   8.808   8.080  0.1232 -0.2980  0.4428
   98loPI   C6A 1564  15.336   9.038   7.755 -0.0630  0.0353 -0.1262
   98loPI   C1B 1565  14.907   8.595   9.462  0.1023  0.0900 -0.1559
   98loPI   C2B 1566  14.957   8.599   9.024  0.0644  0.0211  0.2392
   98loPI   C3B 1567  14.853   8.746   8.582 -0.2023  0.1027  0.1222
   98loPI   C4B 1568  14.815   8.980   8.093  0.0132 -0.1737 -0.1706
   99loPI    C1 1569  14.540   2.931  10.133 -0.0221  0.0590 -0.0394
   99loPI    C2 1570  14.527   2.809  10.514 -0.1155  0.1784 -0.0035
   99loPI    C3 1571  14.856   2.986  10.372 -0.0495  0.0575 -0.0026
   99loPI   PO4 1572  14.311   3.069  10.052 -0.2253 -0.3450  0.0137
   99loPI   GL1 1573  13.990   2.875   9.850  0.2207 -0.4349  0.0357
   99loPI   GL2 1574  13.889   2.604   9.825 -0.0190 -0.0562 -0.2386
   99loPI   C1A 1575  13.947   2.950   9.446  0.2537  0.0693  0.0296
   99loPI   C2A 1576  14.119   2.884   8.996  0.2152 -0.0072 -0.1137
   99loPI   C3A 1577  14.013   2.859   8.509  0.0718  0.0570 -0.0980
   99loPI   C4A 1578  14.326   2.753   8.223 -0.2144  0.1562  0.0432
   99loPI   C5A 1579  14.547   2.479   7.894  0.2699  0.0986  0.0006
   99loPI   C6A 1580  14.909   2.205   7.977 -0.1455  0.2099 -0.0905
   99loPI   C1B 1581  14.024   2.413   9.422 -0.2979  0.0045 -0.2245
   99loPI   C2B 1582  13.930   2.335   8.927  0.0017 -0.2789  0.1279
   99loPI   C3B 1583  13.857   2.349   8.460  0.0302 -0.0490  0.0033
   99loPI   C4B 1584  13.943   2.090   8.143 -0.4726  0.0908 -0.0322
  100loPI    C1 1585  15.816   7.212  10.274 -0.1081 -0.1274 -0.1431
  100loPI    C2 1586  16.034   6.878  10.302 -0.0629 -0.0791  0.1022
  100loPI    C3 1587  16.204   7.234  10.368 -0.1582 -0.0225  0.0434
  100loPI   PO4 1588  15.732   7.241  10.004 -0.3415  0.1281 -0.0087
  100loPI   GL1 1589  15.538   7.577   9.838  0.0208 -0.1004  0.1457
  100loPI   GL2 1590  15.250   7.622   9.841 -0.2900  0.0327  0.4193
  100loPI   C1A 1591  15.485   7.734   9.356  0.0294 -0.1916 -0.0134
  100loPI   C2A 1592  15.498   7.754   8.899 -0.0884  0.0399  0.0365
  100loPI   C3A 1593  15.526   7.860   8.368 -0.1214 -0.2944 -0.3401
  100loPI   C4A 1594  15.879   7.865   8.048 -0.0292 -0.3004 -0.0270
  100loPI   C5A 1595  15.919   7.530   7.731  0.2076 -0.0672 -0.1129
  100loPI   C6A 1596  16.210   7.131   7.866  0.1061  0.0606 -0.1917
  100loPI   C1B 1597  15.004   7.602   9.433  0.0022 -0.3136 -0.0737
  100loPI   C2B 1598  14.988   7.709   9.012 -0.2667 -0.0364  0.1668
  100loPI   C3B 1599  15.083   7.700   8.585 -0.2514  0.0006  0.2503
  100loPI   C4B 1600  14.953   7.858   8.182 -0.0717  0.2206  0.0750
  101loPI    C1 1601  12.731   6.370  10.634 -0.0971  0.0508 -0.1501
  101loPI    C2 1602  12.485   6.685  10.652 -0.0491  0.0790  0.0338
  101loPI    C3 1603  12.544   6.459  10.976 -0.1708 -0.1872 -0.1263
  101loPI   PO4 1604  12.862   6.515  10.347  0.1900  0.0185 -0.0535
  101loPI   GL1 1605  12.798   6.698   9.943  0.0412  0.2068 -0.1346
  101loPI   GL2 1606  13.014   6.892   9.973 -0.0975 -0.2268  0.2245
  101loPI   C1A 1607  12.467   6.635   9.587 -0.2824  0.4666  0.4581
  101loPI   C2A 1608  12.209   6.728   9.355  0.0916 -0.2445 -0.1907
  101loPI   C3A 1609  12.152   6.767   8.927  0.0473 -0.1935  0.1175
  101loPI   C4A 1610  12.029   6.901   8.553 -0.2368  0.1563  0.2587
  101loPI   C5A 1611  12.046   7.143   8.293  0.1625  0.2993  0.0197
  101loPI   C6A 1612  12.071   7.571   7.980 -0.1935 -0.0655  0.0233
  101loPI   C1B 1613  13.027   6.812   9.549 -0.1006  0.0011 -0.2289
  101loPI   C2B 1614  12.930   6.734   9.143  0.0420 -0.0610 -0.0638
  101loPI   C3B 1615  12.908   6.713   8.634 -0.3143  0.1762  0.1193
  101loPI   C4B 1616  13.018   7.043   8.354 -0.0976 -0.2516  0.0764
  102loPI    C1 1617   1.886   3.547  10.382 -0.1937 -0.1165 -0.0669
  102loPI    C2 1618   2.029   3.378  10.715  0.0105  0.0703 -0.0574
  102loPI    C3 1619   1.639   3.350  10.628  0.0159 -0.2818  0.0146
  102loPI   PO4 1620   2.001   3.736  10.331 -0.1217  0.3434 -0.3308
  102loPI   GL1 1621   1.881   3.913   9.976  0.3110  0.0469 -0.2379
  102loPI   GL2 1622   1.671   4.146  10.005 -0.0930  0.0547  0.0231
  102loPI   C1A 1623   2.021   3.980   9.540  0.1242 -0.0870 -0.0044
  102loPI   C2A 1624   2.082   4.079   9.126 -0.0355 -0.1115  0.0144
  102loPI   C3A 1625   2.146   4.194   8.693 -0.1592 -0.0784 -0.0691
  102loPI   C4A 1626   2.260   4.010   8.279  0.1608  0.0703  0.0251
  102loPI   C5A 1627   2.166   3.537   8.138 -0.0455 -0.0891 -0.1891
  102loPI   C6A 1628   1.952   3.410   7.826  0.2672 -0.3574 -0.1704
  102loPI   C1B 1629   1.587   4.220   9.579 -0.2194 -0.2879  0.1830
  102loPI   C2B 1630   1.617   4.237   9.187  0.0785  0.1164  0.2292
  102loPI   C3B 1631   1.907   4.516   9.040  0.0243  0.1534  0.1373
  102loPI   C4B 1632   1.779   4.672   8.661  0.0281  0.1339 -0.3095
  103loPI    C1 1633   6.996   2.684  10.531  0.0623  0.1743 -0.0059
  103loPI    C2 1634   6.732   2.385  10.547  0.1007  0.1206 -0.3265
  103loPI    C3 1635   6.729   2.668  10.829  0.0785 -0.1907 -0.0066
  103loPI   PO4 1636   6.983   2.820  10.344  0.1512 -0.2957  0.0301
  103loPI   GL1 1637   6.775   2.736  10.007 -0.1650  0.1625  0.0688
  103loPI   GL2 1638   6.481   2.507  10.173  0.2197 -0.1644  0.2359
  103loPI   C1A 1639   6.790   2.918   9.540  0.0519 -0.4439 -0.0672
  103loPI   C2A 1640   6.738   2.922   9.057 -0.0074  0.1485  0.1659
  103loPI   C3A 1641   6.829   2.827   8.592 -0.4144  0.1546  0.0119
  103loPI   C4A 1642   6.935   2.712   8.095  0.0393 -0.0694  0.0540
  103loPI   C5A 1643   6.565   2.625   7.871  0.1283  0.2256 -0.1401
  103loPI   C6A 1644   6.155   2.712   7.716  0.1716 -0.0841 -0.1770
  103loPI   C1B 1645   6.424   2.551   9.735 -0.0507  0.0927  0.2797
  103loPI   C2B 1646   6.548   2.543   9.350 -0.1367  0.4326 -0.0527
  103loPI   C3B 1647   6.628   2.315   8.990 -0.2157 -0.5332  0.2279
  103loPI   C4B 1648   6.625   2.378   8.624  0.1451  0.1317  0.1948
  104loPI    C1 1649  11.954  18.270   9.790  0.0259 -0.3729  0.1538
  104loPI    C2 1650  11.874  18.406  10.157 -0.1481 -0.0890  0.0140
  104loPI    C3 1651  11.632  18.498   9.853  0.1961 -0.0113 -0.2416
  104loPI   PO4 1652  12.339  18.223   9.850 -0.1964 -0.0326 -0.0697
  104loPI   GL1 1653  12.784  18.018   9.772  0.0621  0.1766  0.0831
  104loPI   GL2 1654  12.685  17.808   9.582  0.1850 -0.0370 -0.0856
  104loPI   C1A 1655  12.940  18.338   9.450  0.2151  0.0716 -0.0164
  104loPI   C2A 1656  12.738  18.463   9.048  0.3920 -0.0834  0.1458
  104loPI   C3A 1657  12.564  18.783   8.768  0.0993  0.0804  0.1139
  104loPI   C4A 1658  12.567  19.056   8.346 -0.1743  0.1521  0.4429
  104loPI   C5A 1659  12.362  19.307   8.096 -0.3305 -0.0297 -0.4024
  104loPI   C6A 1660  12.081  19.419   7.673 -0.2998  0.0795 -0.1548
  104loPI   C1B 1661  12.791  17.932   9.165 -0.1307  0.1119 -0.0337
  104loPI   C2B 1662  12.822  17.999   8.727 -0.2343 -0.1195 -0.0212
  104loPI   C3B 1663  12.643  18.305   8.386  0.1291  0.1672 -0.0067
  104loPI   C4B 1664  12.313  18.600   8.367  0.7417 -0.0574 -0.0366
  105loPI    C1 1665  17.697   5.577   9.935 -0.0476 -0.1311  0.1577
  105loPI    C2 1666  17.963   5.281   9.967  0.1998  0.0374 -0.2617
  105loPI    C3 1667  17.911   5.537  10.270  0.2877 -0.1816 -0.0585
  105loPI   PO4 1668  17.803   5.680   9.640  0.1959  0.1415 -0.0832
  105loPI   GL1 1669  18.177   5.725   9.366 -0.0546 -0.1497  0.0158
  105loPI   GL2 1670  18.092   5.295   9.483 -0.3275 -0.1650 -0.1040
  105loPI   C1A 1671  18.109   6.024   9.087 -0.0750 -0.0914  0.0897
  105loPI   C2A 1672  18.138   6.009   8.705 -0.1047 -0.1365 -0.0373
  105loPI   C3A 1673  18.147   6.053   8.241 -0.0218  0.3536  0.0755
  105loPI   C4A 1674  18.185   5.848   7.777 -0.0372  0.0010  0.0073
  105loPI   C5A 1675  18.172   5.848   7.344 -0.1665 -0.4120  0.1195
  105loPI   C6A 1676  18.064   5.898   6.948 -0.2133 -0.1125 -0.2787
  105loPI   C1B 1677  17.889   5.193   9.023 -0.1357 -0.2128 -0.3378
  105loPI   C2B 1678  17.736   5.344   8.748 -0.5165 -0.2181  0.0339
  105loPI   C3B 1679  17.727   5.630   8.443  0.2486 -0.4397 -0.0258
  105loPI   C4B 1680  17.670   5.852   8.082  0.2110  0.2027 -0.2372
  106loPI    C1 1681   7.153   6.616  10.344 -0.0461 -0.0355  0.0243
  106loPI    C2 1682   7.132   6.256  10.516 -0.0642 -0.1773 -0.2689
  106loPI    C3 1683   7.237   6.575  10.733 -0.1273 -0.3436  0.0119
  106loPI   PO4 1684   7.324   6.564  10.172  0.0611  0.1032 -0.0926
  106loPI   GL1 1685   7.241   6.445   9.761 -0.2031  0.1996  0.1409
  106loPI   GL2 1686   7.199   6.288   9.476 -0.3131  0.1451 -0.0823
  106loPI   C1A 1687   7.072   6.773   9.375 -0.1003 -0.1965 -0.3936
  106loPI   C2A 1688   7.058   6.866   9.002  0.1703 -0.1352 -0.0881
  106loPI   C3A 1689   6.980   6.891   8.523  0.2361 -0.1576 -0.1482
  106loPI   C4A 1690   6.835   7.027   8.141  0.1231  0.1055 -0.2452
  106loPI   C5A 1691   6.567   7.368   8.137  0.1430  0.0023  0.1891
  106loPI   C6A 1692   6.163   7.540   8.180  0.0059 -0.2035  0.0435
  106loPI   C1B 1693   7.223   6.414   9.034  0.0834  0.1856 -0.3641
  106loPI   C2B 1694   7.342   6.564   8.608  0.2163 -0.4094  0.1688
  106loPI   C3B 1695   7.539   6.456   8.180  0.1232  0.3142 -0.3071
  106loPI   C4B 1696   7.611   6.433   7.764  0.1059 -0.1119 -0.0579
  107loPI    C1 1697  11.144  10.280  10.576 -0.0035 -0.1338  0.1479
  107loPI    C2 1698  11.331  10.107  10.885 -0.0173 -0.1609  0.1412
  107loPI    C3 1699  11.258   9.897  10.553  0.0232 -0.1236  0.1085
  107loPI   PO4 1700  11.241  10.461  10.522  0.1245 -0.1098  0.2402
  107loPI   GL1 1701  11.195  10.712  10.197 -0.0969  0.0170 -0.2218
  107loPI   GL2 1702  10.928  10.612  10.210  0.0082  0.1568  0.1980
  107loPI   C1A 1703  11.463  10.617   9.847  0.1832 -0.1579  0.1678
  107loPI   C2A 1704  11.711  10.559   9.520 -0.1211  0.0138 -0.0932
  107loPI   C3A 1705  11.686  10.666   9.117  0.2607 -0.0043  0.0497
  107loPI   C4A 1706  11.825  10.660   8.773 -0.3419 -0.1598 -0.1645
  107loPI   C5A 1707  11.735  10.510   8.329 -0.1801 -0.0483 -0.0895
  107loPI   C6A 1708  11.675  10.593   7.990  0.4777 -0.2746  0.2971
  107loPI   C1B 1709  10.948  10.568   9.761  0.0209 -0.0593  0.0937
  107loPI   C2B 1710  11.134  10.523   9.484 -0.1746 -0.1603 -0.0131
  107loPI   C3B 1711  11.150  10.557   9.042 -0.1085  0.0065  0.2191
  107loPI   C4B 1712  11.381  10.769   8.714 -0.2329 -0.2682 -0.0550
  108loPI    C1 1713   8.559   8.192  10.769  0.0775  0.2054  0.0609
  108loPI    C2 1714   8.305   8.350  11.034  0.0512  0.0345  0.1389
  108loPI    C3 1715   8.694   8.321  11.122  0.0758  0.1659  0.0761
  108loPI   PO4 1716   8.521   8.267  10.483  0.1649 -0.0034  0.1545
  108loPI   GL1 1717   8.601   8.260  10.067 -0.0176 -0.0023 -0.1097
  108loPI   GL2 1718   8.831   8.060   9.899 -0.2157  0.2283  0.2355
  108loPI   C1A 1719   8.454   8.212   9.591 -0.1785 -0.1515  0.0648
  108loPI   C2A 1720   8.607   8.308   9.196 -0.3493 -0.2049  0.1961
  108loPI   C3A 1721   8.586   8.450   8.825 -0.2355  0.1844 -0.0312
  108loPI   C4A 1722   8.600   8.357   8.460 -0.2964  0.1420  0.0519
  108loPI   C5A 1723   8.719   8.148   8.063 -0.0257  0.4302  0.0910
  108loPI   C6A 1724   8.812   7.802   7.717 -0.2111  0.0796  0.0125
  108loPI   C1B 1725   9.081   8.223   9.513  0.2004  0.0935  0.0939
  108loPI   C2B 1726   9.158   8.240   9.103 -0.2591  0.2381  0.0667
  108loPI   C3B 1727   9.128   8.402   8.651  0.0478  0.0225 -0.0261
  108loPI   C4B 1728   9.134   8.670   8.367 -0.1911 -0.4180  0.5089
  109loPI    C1 1729  14.074   9.660  10.673  0.4258  0.0894  0.2206
  109loPI    C2 1730  13.788   9.789  10.921  0.2034  0.0235  0.0026
  109loPI    C3 1731  14.089  10.032  10.819 -0.0788  0.2924 -0.2115
  109loPI   PO4 1732  13.877   9.468  10.533 -0.0799  0.1498 -0.1311
  109loPI   GL1 1733  14.091   9.627  10.127 -0.2249  0.1337 -0.0925
  109loPI   GL2 1734  14.148   9.839   9.995 -0.0197 -0.1867  0.1620
  109loPI   C1A 1735  13.949   9.419   9.783  0.2544  0.2371 -0.2031
  109loPI   C2A 1736  13.742   9.271   9.432  0.0437 -0.0160  0.2140
  109loPI   C3A 1737  13.610   9.104   8.926 -0.2996  0.2878  0.1400
  109loPI   C4A 1738  13.492   9.213   8.506 -0.2282  0.0697  0.0670
  109loPI   C5A 1739  13.477   9.327   8.135 -0.0066 -0.3268  0.0854
  109loPI   C6A 1740  13.728   9.370   7.760  0.0578  0.0393  0.2405
  109loPI   C1B 1741  14.196   9.986   9.626  0.6140 -0.1111 -0.1254
  109loPI   C2B 1742  14.159   9.998   9.233  0.1998 -0.3510 -0.2561
  109loPI   C3B 1743  14.094  10.021   8.771  0.1068  0.0374  0.0444
  109loPI   C4B 1744  14.101   9.997   8.276  0.0461 -0.1429  0.1607
  110loPI    C1 1745  12.286  15.809  10.526  0.0406 -0.1630 -0.0447
  110loPI    C2 1746  12.112  15.766  10.883 -0.0798  0.0249 -0.0794
  110loPI    C3 1747  12.484  15.911  10.858 -0.0031 -0.1591 -0.0199
  110loPI   PO4 1748  12.184  15.656  10.393 -0.0254 -0.2566 -0.0012
  110loPI   GL1 1749  12.279  15.469  10.038  0.1538 -0.1090  0.0370
  110loPI   GL2 1750  12.096  15.226   9.822  0.1426 -0.0988  0.0072
  110loPI   C1A 1751  12.342  15.761   9.686  0.1496  0.3939  0.0406
  110loPI   C2A 1752  12.260  15.755   9.248  0.2455  0.3046 -0.0676
  110loPI   C3A 1753  12.175  15.552   8.997 -0.4502  0.0307 -0.0431
  110loPI   C4A 1754  12.119  15.365   8.685 -0.3124 -0.2397 -0.2515
  110loPI   C5A 1755  12.171  15.201   8.411 -0.1427  0.4643  0.1178
  110loPI   C6A 1756  12.258  14.867   8.121 -0.2563 -0.0248 -0.1962
  110loPI   C1B 1757  12.222  14.862   9.506  0.1994 -0.1927  0.2010
  110loPI   C2B 1758  12.547  14.692   9.204 -0.2011 -0.1021  0.1788
  110loPI   C3B 1759  12.580  14.349   8.915  0.0749 -0.5324 -0.0663
  110loPI   C4B 1760  12.564  14.207   8.549 -0.1880  0.0392 -0.1823
  111loPI    C1 1761  17.051   4.871  10.406 -0.0405  0.3345 -0.0779
  111loPI    C2 1762  16.719   4.705  10.553  0.1593  0.0054  0.0112
  111loPI    C3 1763  16.992   4.857  10.802  0.1386  0.1548 -0.0564
  111loPI   PO4 1764  17.008   4.937  10.136  0.0528  0.0131 -0.0067
  111loPI   GL1 1765  17.300   4.832   9.782 -0.1161  0.3352 -0.0911
  111loPI   GL2 1766  17.385   4.397   9.807 -0.2562 -0.2072  0.0712
  111loPI   C1A 1767  17.098   5.017   9.459 -0.2288 -0.0248 -0.1276
  111loPI   C2A 1768  17.013   4.956   9.022 -0.2202 -0.0520  0.4419
  111loPI   C3A 1769  16.990   4.795   8.568  0.0874  0.0806 -0.0096
  111loPI   C4A 1770  17.246   4.783   8.190  0.0604  0.0005  0.0347
  111loPI   C5A 1771  17.369   5.029   7.783  0.1045 -0.0624 -0.2193
  111loPI   C6A 1772  17.270   4.963   7.369 -0.0115  0.0566 -0.2414
  111loPI   C1B 1773  17.504   4.515   9.431  0.1398  0.1108  0.1124
  111loPI   C2B 1774  17.386   4.514   8.928 -0.3264 -0.1726  0.0684
  111loPI   C3B 1775  17.274   4.332   8.492 -0.0112 -0.2882  0.0061
  111loPI   C4B 1776  17.383   4.220   8.021  0.0774  0.0058 -0.1331
  112loPI    C1 1777  12.477  17.153  10.086 -0.1760  0.3101 -0.1816
  112loPI    C2 1778  12.440  17.338  10.439 -0.1757  0.1566 -0.1003
  112loPI    C3 1779  12.745  17.087  10.376 -0.1409  0.2311 -0.2319
  112loPI   PO4 1780  12.249  17.162   9.949  0.2621  0.1588  0.0474
  112loPI   GL1 1781  12.105  17.490   9.669 -0.0537  0.3078 -0.1480
  112loPI   GL2 1782  12.178  17.776   9.640  0.2221 -0.1500 -0.0987
  112loPI   C1A 1783  11.998  17.304   9.323  0.1240 -0.3576 -0.1803
  112loPI   C2A 1784  12.017  17.142   8.850  0.0721 -0.0909 -0.1398
  112loPI   C3A 1785  11.900  16.941   8.444  0.0305 -0.0504  0.0194
  112loPI   C4A 1786  12.122  16.697   8.006 -0.3309 -0.0013 -0.1579
  112loPI   C5A 1787  12.546  16.441   7.835 -0.0669 -0.2041 -0.2459
  112loPI   C6A 1788  13.031  16.456   7.930 -0.2504 -0.0130 -0.0818
  112loPI   C1B 1789  11.848  17.796   9.243  0.0847  0.2804 -0.1153
  112loPI   C2B 1790  11.809  17.737   8.858 -0.2173  0.1117 -0.2762
  112loPI   C3B 1791  12.048  17.523   8.574  0.1073 -0.4039  0.0450
  112loPI   C4B 1792  12.093  17.600   8.224  0.1981 -0.0943  0.0164
  113loPI    C1 1793   6.892  14.327  10.560 -0.0470 -0.1033 -0.0107
  113loPI    C2 1794   7.272  14.363  10.677 -0.0578  0.0455 -0.0195
  113loPI    C3 1795   7.000  14.208  10.926  0.0160 -0.0987 -0.0278
  113loPI   PO4 1796   6.912  14.240  10.337 -0.0818 -0.0555 -0.0831
  113loPI   GL1 1797   6.974  14.446   9.951  0.3210  0.1109 -0.1160
  113loPI   GL2 1798   6.699  14.577   9.818 -0.0618 -0.1567  0.1735
  113loPI   C1A 1799   7.080  14.101   9.567 -0.0588 -0.2357  0.0579
  113loPI   C2A 1800   7.231  13.898   9.109  0.0312  0.0400 -0.2224
  113loPI   C3A 1801   7.248  13.954   8.674  0.1186 -0.2254  0.2360
  113loPI   C4A 1802   7.488  14.027   8.340  0.1077  0.2326  0.2866
  113loPI   C5A 1803   7.686  14.469   8.262 -0.3788  0.2343  0.1367
  113loPI   C6A 1804   7.782  14.834   8.546  0.3923  0.1642  0.2517
  113loPI   C1B 1805   6.726  14.538   9.463  0.1119 -0.0816 -0.0035
  113loPI   C2B 1806   6.561  14.439   9.006 -0.0594  0.0990  0.0896
  113loPI   C3B 1807   6.494  14.390   8.621  0.0102 -0.2378  0.0021
  113loPI   C4B 1808   6.567  14.399   8.192 -0.1077 -0.1509  0.0041
  114loPI    C1 1809   4.170  14.445  10.295  0.0572  0.4051  0.2064
  114loPI    C2 1810   4.475  14.413  10.039 -0.2440  0.0720 -0.1227
  114loPI    C3 1811   4.414  14.756  10.235  0.1983  0.2180 -0.2285
  114loPI   PO4 1812   4.012  14.278  10.148  0.1736  0.0648  0.3658
  114loPI   GL1 1813   3.786  14.438   9.759 -0.1270 -0.3809  0.0530
  114loPI   GL2 1814   4.102  14.504   9.677 -0.1447  0.1216  0.0013
  114loPI   C1A 1815   3.756  14.276   9.286  0.0871  0.0842  0.0976
  114loPI   C2A 1816   3.909  14.283   8.854 -0.0190 -0.0251 -0.6069
  114loPI   C3A 1817   4.224  14.056   8.441  0.0386  0.0484 -0.0984
  114loPI   C4A 1818   4.388  13.880   8.129  0.2654 -0.1347 -0.2381
  114loPI   C5A 1819   4.712  14.113   8.116 -0.0916  0.0190 -0.1246
  114loPI   C6A 1820   4.952  14.471   8.250  0.0991 -0.2200 -0.1354
  114loPI   C1B 1821   4.277  14.385   9.196  0.0494  0.3104 -0.1895
  114loPI   C2B 1822   4.375  14.484   8.726 -0.1867  0.0184 -0.2107
  114loPI   C3B 1823   4.410  14.561   8.251  0.0685  0.0607  0.1085
  114loPI   C4B 1824   4.314  14.404   8.008 -0.0269  0.1218 -0.2526
  115loPI    C1 1825   6.774  16.479  10.692  0.0327 -0.2463  0.2302
  115loPI    C2 1826   6.452  16.578  10.909 -0.0013 -0.1045  0.1169
  115loPI    C3 1827   6.819  16.629  11.061 -0.0299 -0.2091  0.2229
  115loPI   PO4 1828   6.725  16.648  10.478  0.0350 -0.1666  0.0209
  115loPI   GL1 1829   6.511  16.569  10.082  0.0846 -0.1599  0.2728
  115loPI   GL2 1830   6.263  16.800  10.011  0.2367 -0.3061  0.2346
  115loPI   C1A 1831   6.416  16.308   9.725 -0.3662 -0.1021  0.0674
  115loPI   C2A 1832   6.438  16.420   9.286  0.1767 -0.3429 -0.3761
  115loPI   C3A 1833   6.576  16.345   8.920 -0.1134 -0.1654 -0.1107
  115loPI   C4A 1834   6.745  16.348   8.450 -0.0179 -0.2536  0.1650
  115loPI   C5A 1835   6.931  16.560   8.072 -0.0056  0.1214  0.1131
  115loPI   C6A 1836   7.135  16.881   7.822 -0.0600 -0.4409 -0.0952
  115loPI   C1B 1837   5.981  16.946   9.704  0.1473  0.3983 -0.1614
  115loPI   C2B 1838   5.890  16.819   9.313  0.0698  0.0368 -0.1477
  115loPI   C3B 1839   5.826  17.042   8.978  0.2655  0.1505 -0.0582
  115loPI   C4B 1840   5.569  17.062   8.670  0.2400 -0.0275 -0.0810
  116loPI    C1 1841  16.887   7.618  10.423  0.1925  0.0903  0.2193
  116loPI    C2 1842  17.098   7.336  10.232  0.0465 -0.0646  0.2852
  116loPI    C3 1843  17.143   7.721  10.133 -0.2730 -0.1663 -0.3023
  116loPI   PO4 1844  16.636   7.492  10.395 -0.1321  0.0450 -0.0748
  116loPI   GL1 1845  16.616   7.293  10.112 -0.1052 -0.1076 -0.2663
  116loPI   GL2 1846  16.692   7.070   9.869 -0.0548 -0.1319 -0.1034
  116loPI   C1A 1847  17.007   7.473   9.760  0.1521 -0.1099 -0.4098
  116loPI   C2A 1848  17.133   7.708   9.490 -0.5335  0.0876 -0.0675
  116loPI   C3A 1849  17.130   7.886   9.089 -0.0586 -0.2391 -0.2293
  116loPI   C4A 1850  17.174   7.967   8.731  0.0075  0.0842  0.1783
  116loPI   C5A 1851  17.308   8.054   8.316 -0.0480  0.0070 -0.2108
  116loPI   C6A 1852  17.285   7.833   7.884  0.1044 -0.3964 -0.0783
  116loPI   C1B 1853  16.746   7.171   9.428 -0.1424  0.1290 -0.1933
  116loPI   C2B 1854  16.859   7.386   9.213  0.2322  0.1513  0.3104
  116loPI   C3B 1855  16.878   7.526   8.773  0.2051  0.3159  0.3680
  116loPI   C4B 1856  16.925   7.701   8.372  0.1101 -0.1454 -0.2536
  117loPI    C1 1857  10.809  14.913  10.585  0.0327 -0.0029 -0.0599
  117loPI    C2 1858  10.977  15.037  10.926 -0.0547  0.2095 -0.0924
  117loPI    C3 1859  10.669  14.782  10.936  0.1039  0.0181 -0.0235
  117loPI   PO4 1860  10.737  15.086  10.479  0.2200  0.1565  0.2184
  117loPI   GL1 1861  10.684  15.303  10.081 -0.0482 -0.1111  0.0632
  117loPI   GL2 1862  10.758  15.577  10.198 -0.0712 -0.2039  0.3273
  117loPI   C1A 1863  10.547  15.267   9.665  0.2487  0.3531  0.1350
  117loPI   C2A 1864  10.554  15.409   9.183  0.1883  0.4037  0.1221
  117loPI   C3A 1865  10.697  15.460   8.721 -0.0515  0.4405  0.1875
  117loPI   C4A 1866  10.783  15.372   8.374  0.3924 -0.2382 -0.0374
  117loPI   C5A 1867  10.400  15.113   8.117 -0.0675 -0.1469 -0.2859
  117loPI   C6A 1868  10.141  14.949   7.773 -0.1371 -0.0301 -0.0549
  117loPI   C1B 1869  10.874  15.654   9.783  0.3342 -0.1818  0.1154
  117loPI   C2B 1870  11.079  15.772   9.383  0.5319  0.1839  0.1326
  117loPI   C3B 1871  11.013  15.840   8.949 -0.2397 -0.2601 -0.0297
  117loPI   C4B 1872  10.887  15.864   8.423 -0.2469 -0.1240  0.0188
  118loPI    C1 1873   7.223   1.216  10.742 -0.2013  0.0366 -0.0678
  118loPI    C2 1874   7.198   1.028  11.094 -0.1296  0.1916  0.0213
  118loPI    C3 1875   7.103   1.416  11.067  0.0165  0.2203 -0.0970
  118loPI   PO4 1876   7.157   1.106  10.503  0.1380  0.0837 -0.1601
  118loPI   GL1 1877   7.097   1.310  10.056  0.1822 -0.0581  0.1154
  118loPI   GL2 1878   7.312   1.392   9.789  0.0534 -0.0586 -0.0423
  118loPI   C1A 1879   6.966   1.127   9.658 -0.0128  0.1990  0.2096
  118loPI   C2A 1880   7.028   0.967   9.254  0.2773 -0.1038  0.2375
  118loPI   C3A 1881   6.898   0.994   8.854 -0.0048 -0.0967 -0.1757
  118loPI   C4A 1882   6.888   1.039   8.370 -0.1704 -0.2564 -0.4067
  118loPI   C5A 1883   7.095   1.210   8.030  0.0849  0.2806  0.0919
  118loPI   C6A 1884   6.894   1.487   7.821 -0.0416  0.0078  0.0256
  118loPI   C1B 1885   7.199   1.523   9.470 -0.0223 -0.2636 -0.2029
  118loPI   C2B 1886   7.203   1.650   9.075  0.2063  0.0253  0.1952
  118loPI   C3B 1887   7.144   1.582   8.603  0.0619  0.0045 -0.0840
  118loPI   C4B 1888   6.859   1.523   8.311 -0.2493 -0.0541 -0.2197
  119loPI    C1 1889   4.431  16.717  10.674  0.0008  0.0578  0.1196
  119loPI    C2 1890   4.802  16.853  10.738  0.0967 -0.1115 -0.0655
  119loPI    C3 1891   4.722  16.463  10.779 -0.0614 -0.0758 -0.0267
  119loPI   PO4 1892   4.408  16.873  10.414 -0.1196 -0.0486 -0.0984
  119loPI   GL1 1893   4.589  16.797  10.005  0.0826  0.2065 -0.2370
  119loPI   GL2 1894   4.698  16.592   9.831  0.1695  0.0912 -0.1517
  119loPI   C1A 1895   4.793  17.197   9.845  0.0174 -0.3946 -0.1067
  119loPI   C2A 1896   5.099  17.369   9.551  0.1669  0.1281 -0.0204
  119loPI   C3A 1897   4.993  17.698   9.263  0.3930 -0.0711  0.1723
  119loPI   C4A 1898   5.100  17.907   8.918  0.0878  0.0351 -0.0862
  119loPI   C5A 1899   5.129  18.086   8.576  0.1260 -0.3068 -0.0948
  119loPI   C6A 1900   5.085  18.510   8.452 -0.1475 -0.0224  0.4772
  119loPI   C1B 1901   4.684  16.899   9.423  0.0352  0.1192 -0.0509
  119loPI   C2B 1902   4.778  17.287   9.132  0.1796 -0.2526 -0.1036
  119loPI   C3B 1903   5.060  17.427   8.750  0.0290  0.1487  0.0507
  119loPI   C4B 1904   5.270  17.566   8.542 -0.2477 -0.0035 -0.0181
  120loPI    C1 1905   6.846   0.209  10.493 -0.1604 -0.0125 -0.2167
  120loPI    C2 1906   6.608   0.470  10.681  0.1954  0.3090 -0.2030
  120loPI    C3 1907   6.830   0.214  10.893 -0.1276  0.0125 -0.2157
  120loPI   PO4 1908   7.040   0.334  10.370  0.0674 -0.1246 -0.1273
  120loPI   GL1 1909   6.946   0.309   9.887 -0.1061  0.2150 -0.1170
  120loPI   GL2 1910   7.160   0.592   9.869  0.0647 -0.0437 -0.2744
  120loPI   C1A 1911   6.984   0.395   9.429  0.2462 -0.4634  0.0223
  120loPI   C2A 1912   7.094   0.529   9.084 -0.1328  0.1864  0.3429
  120loPI   C3A 1913   7.144   0.603   8.639 -0.2944 -0.1282 -0.2193
  120loPI   C4A 1914   7.291   0.517   8.316 -0.1054  0.1135  0.2433
  120loPI   C5A 1915   7.264   0.755   7.896  0.4628 -0.0087  0.1463
  120loPI   C6A 1916   7.171   1.005   7.534  0.1714 -0.2289 -0.0820
  120loPI   C1B 1917   7.454   0.549   9.503 -0.2202  0.1005 -0.0745
  120loPI   C2B 1918   7.642   0.558   9.160 -0.0052  0.1075  0.2106
  120loPI   C3B 1919   7.658   0.571   8.665 -0.0163  0.0092  0.0700
  120loPI   C4B 1920   7.709   0.598   8.214 -0.4107 -0.2806 -0.0932
  121loPI    C1 1921  16.840  16.179  10.761 -0.2975  0.0695  0.2295
  121loPI    C2 1922  16.954  16.561  10.793 -0.1326  0.0354  0.0614
  121loPI    C3 1923  17.167  16.273  10.971 -0.2490  0.0197  0.1766
  121loPI   PO4 1924  16.678  16.065  10.511  0.1654  0.0351  0.2457
  121loPI   GL1 1925  16.437  16.003  10.057  0.1527 -0.0269 -0.1771
  121loPI   GL2 1926  16.269  15.779  10.113 -0.2116  0.3369 -0.1792
  121loPI   C1A 1927  16.447  16.115   9.659  0.0288  0.5166 -0.0772
  121loPI   C2A 1928  16.484  16.041   9.258  0.0404  0.0088  0.1414
  121loPI   C3A 1929  16.502  16.038   8.859  0.1249  0.0523 -0.0435
  121loPI   C4A 1930  16.472  15.965   8.446  0.1866  0.3224  0.0538
  121loPI   C5A 1931  16.677  16.230   8.097  0.2032 -0.1329  0.3576
  121loPI   C6A 1932  16.890  16.248   7.707 -0.1508  0.0256 -0.0066
  121loPI   C1B 1933  16.201  15.690   9.620  0.0001  0.0033  0.0277
  121loPI   C2B 1934  16.288  15.547   9.209  0.0508  0.1083  0.2381
  121loPI   C3B 1935  16.222  15.429   8.809 -0.0483  0.1627  0.1734
  121loPI   C4B 1936  16.282  15.477   8.453  0.0273 -0.0992 -0.0639
  122loPI    C1 1937   1.744  16.137  10.191 -0.2214 -0.0668  0.3098
  122loPI    C2 1938   2.073  15.914  10.228 -0.1879 -0.0429  0.1636
  122loPI    C3 1939   1.855  16.004  10.551 -0.0053  0.0113  0.2732
  122loPI   PO4 1940   1.625  15.982  10.033 -0.1021 -0.2018  0.3416
  122loPI   GL1 1941   1.834  16.074   9.685  0.0612 -0.0511  0.0549
  122loPI   GL2 1942   1.982  16.378   9.826 -0.0432  0.0979  0.1338
  122loPI   C1A 1943   1.932  15.949   9.282 -0.2179  0.2309 -0.1457
  122loPI   C2A 1944   1.918  15.821   8.910  0.1149  0.2659  0.2950
  122loPI   C3A 1945   1.788  15.833   8.588 -0.1947  0.1693 -0.1823
  122loPI   C4A 1946   1.660  16.104   8.223 -0.0087 -0.0022  0.3069
  122loPI   C5A 1947   1.623  16.177   7.778  0.1158  0.3546 -0.3026
  122loPI   C6A 1948   1.219  16.121   7.596  0.1562  0.1456 -0.0632
  122loPI   C1B 1949   2.095  16.366   9.423  0.1000 -0.0015 -0.4158
  122loPI   C2B 1950   2.165  16.406   8.981  0.2666  0.4863  0.1902
  122loPI   C3B 1951   2.046  16.219   8.485 -0.1267 -0.1374  0.2771
  122loPI   C4B 1952   2.064  15.890   8.085 -0.3068  0.1127 -0.1622
  123loPI    C1 1953   1.891  17.421  10.225  0.0749  0.2616  0.1832
  123loPI    C2 1954   1.779  17.126  10.471  0.0174  0.0901 -0.0450
  123loPI    C3 1955   2.134  17.109  10.288 -0.0119  0.1323 -0.1060
  123loPI   PO4 1956   1.679  17.453  10.039  0.1385 -0.1588 -0.2280
  123loPI   GL1 1957   1.582  17.298   9.640  0.0857  0.1320 -0.0115
  123loPI   GL2 1958   1.335  17.160   9.748 -0.0561 -0.0916  0.2709
  123loPI   C1A 1959   1.634  17.163   9.261  0.0726  0.1793  0.1607
  123loPI   C2A 1960   1.615  17.121   8.859  0.1002  0.1770  0.0875
  123loPI   C3A 1961   1.508  17.107   8.425  0.1775  0.0036  0.1015
  123loPI   C4A 1962   1.633  17.269   8.072 -0.0111  0.2385  0.1582
  123loPI   C5A 1963   1.737  17.429   7.619  0.2614 -0.0684  0.0665
  123loPI   C6A 1964   2.224  17.459   7.616 -0.2514 -0.0627  0.0474
  123loPI   C1B 1965   1.063  17.074   9.427  0.0183 -0.3725 -0.1797
  123loPI   C2B 1966   1.005  17.120   9.072 -0.0992 -0.0565 -0.3546
  123loPI   C3B 1967   0.988  17.218   8.539  0.0037 -0.1679  0.2968
  123loPI   C4B 1968   1.074  17.308   8.157 -0.0210 -0.1884  0.1380
  124loPI    C1 1969   1.003  17.943  10.392  0.1406  0.0842  0.3622
  124loPI    C2 1970   0.684  17.892  10.627 -0.0090 -0.0544  0.1329
  124loPI    C3 1971   0.932  17.587  10.558  0.1155  0.0251  0.2253
  124loPI   PO4 1972   0.945  18.008  10.162  0.0945 -0.3280  0.1302
  124loPI   GL1 1973   0.993  17.895   9.811  0.1312 -0.1603 -0.0630
  124loPI   GL2 1974   1.231  17.655   9.693 -0.1305  0.1376  0.0408
  124loPI   C1A 1975   0.728  17.717   9.580 -0.2587  0.0359  0.0709
  124loPI   C2A 1976   0.814  17.631   9.112 -0.0117 -0.1221  0.2756
  124loPI   C3A 1977   0.689  17.633   8.692 -0.2539 -0.1982 -0.2349
  124loPI   C4A 1978   0.941  17.828   8.338 -0.1074 -0.1119 -0.0737
  124loPI   C5A 1979   1.057  18.220   8.217 -0.1720  0.1719 -0.0068
  124loPI   C6A 1980   0.966  18.488   7.841  0.2013 -0.0644 -0.0634
  124loPI   C1B 1981   1.313  17.555   9.286 -0.1139  0.0466  0.0183
  124loPI   C2B 1982   1.266  17.604   8.795  0.0807 -0.0428  0.0235
  124loPI   C3B 1983   1.454  17.655   8.395  0.0006  0.0675 -0.0261
  124loPI   C4B 1984   1.279  17.722   7.934 -0.0528 -0.1440  0.2260
  125loPI    C1 1985   8.658   9.235  10.851 -0.0498  0.1772 -0.0274
  125loPI    C2 1986   8.532   9.030  11.170  0.1225 -0.0561 -0.1065
  125loPI    C3 1987   8.627   9.417  11.206 -0.4304  0.0795 -0.0065
  125loPI   PO4 1988   8.440   9.154  10.661  0.1819  0.0686 -0.0900
  125loPI   GL1 1989   8.545   9.037  10.212 -0.1253  0.3131  0.1469
  125loPI   GL2 1990   8.404   8.789  10.310 -0.3696  0.1345 -0.2045
  125loPI   C1A 1991   8.641   9.309   9.872  0.0819 -0.0689  0.4074
  125loPI   C2A 1992   8.688   9.209   9.452  0.0296  0.1417  0.0210
  125loPI   C3A 1993   8.758   9.333   9.043  0.0830  0.4764  0.0566
  125loPI   C4A 1994   8.950   9.637   8.764  0.0110  0.0475  0.2882
  125loPI   C5A 1995   8.985  10.074   8.544 -0.1264  0.1678 -0.0413
  125loPI   C6A 1996   9.032  10.166   8.230  0.1254 -0.0503  0.0984
  125loPI   C1B 1997   8.365   8.734   9.881 -0.1758  0.0879 -0.1617
  125loPI   C2B 1998   8.474   8.714   9.382  0.1445 -0.2591 -0.1997
  125loPI   C3B 1999   8.432   9.000   9.004  0.1811 -0.0441 -0.0330
  125loPI   C4B 2000   8.092   9.107   8.712 -0.2573 -0.0354 -0.1497
  126loPI    C1 2001  15.483  16.994  10.613 -0.1465 -0.2425  0.0471
  126loPI    C2 2002  15.723  17.129  10.903 -0.0362  0.2340 -0.2549
  126loPI    C3 2003  15.326  17.135  10.953 -0.0100  0.0329 -0.0015
  126loPI   PO4 2004  15.489  16.752  10.499 -0.0368  0.0911  0.0286
  126loPI   GL1 2005  15.289  16.736  10.087  0.2539  0.1490 -0.0725
  126loPI   GL2 2006  15.094  16.508  10.000 -0.2181  0.0354 -0.0814
  126loPI   C1A 2007  15.431  16.914   9.764  0.0403  0.0787 -0.0194
  126loPI   C2A 2008  15.394  16.870   9.348  0.0934  0.1901 -0.0502
  126loPI   C3A 2009  15.337  16.785   8.954 -0.1485  0.2394  0.0190
  126loPI   C4A 2010  15.317  16.681   8.498  0.0960  0.2765  0.0699
  126loPI   C5A 2011  15.431  16.889   8.196 -0.2641  0.2065  0.2354
  126loPI   C6A 2012  15.428  16.762   7.749  0.2522 -0.0343  0.2023
  126loPI   C1B 2013  15.150  16.479   9.588 -0.4868  0.0576 -0.0367
  126loPI   C2B 2014  15.203  16.375   9.119 -0.2574  0.2644 -0.1900
  126loPI   C3B 2015  15.069  16.328   8.777 -0.3306  0.2256  0.0195
  126loPI   C4B 2016  15.076  16.245   8.388 -0.1349 -0.2086 -0.2080
  127loPI    C1 2017   2.039  11.311  10.234 -0.0514  0.3598 -0.2259
  127loPI    C2 2018   1.647  11.324  10.153 -0.0944 -0.0984 -0.1168
  127loPI    C3 2019   1.839  10.973  10.158  0.3100  0.1172 -0.1204
  127loPI   PO4 2020   2.148  11.604  10.118  0.0722 -0.3386 -0.0120
  127loPI   GL1 2021   2.325  11.677   9.854 -0.0232  0.1223  0.0933
  127loPI   GL2 2022   2.081  11.867   9.637  0.1689 -0.0661  0.3020
  127loPI   C1A 2023   2.576  11.600   9.433  0.1814  0.0191  0.2617
  127loPI   C2A 2024   2.746  11.688   8.963  0.1355  0.1181  0.1263
  127loPI   C3A 2025   2.626  11.736   8.527 -0.0913  0.3466  0.0642
  127loPI   C4A 2026   2.647  11.953   8.206 -0.0686  0.0413  0.0039
  127loPI   C5A 2027   3.012  12.051   7.921 -0.1318  0.2441 -0.2603
  127loPI   C6A 2028   3.372  12.226   8.037  0.2016  0.0037 -0.2729
  127loPI   C1B 2029   2.195  11.925   9.146 -0.3846 -0.2062 -0.0293
  127loPI   C2B 2030   2.241  11.974   8.701 -0.1135  0.3655 -0.3588
  127loPI   C3B 2031   2.193  12.212   8.231 -0.1689 -0.0357  0.0763
  127loPI   C4B 2032   2.056  12.189   7.789 -0.2756 -0.1638 -0.0236
  128loPI    C1 2033   3.222   8.382  10.065 -0.1708  0.0542 -0.0205
  128loPI    C2 2034   3.438   8.434  10.397  0.1887 -0.3173 -0.1874
  128loPI    C3 2035   3.087   8.242  10.415  0.0660 -0.0796  0.0196
  128loPI   PO4 2036   3.343   8.251   9.876  0.1291  0.1385  0.2278
  128loPI   GL1 2037   3.525   8.518   9.521 -0.3994 -0.1342  0.0687
  128loPI   GL2 2038   3.203   8.588   9.459  0.2658  0.1623 -0.1031
  128loPI   C1A 2039   3.667   8.423   9.171  0.3315 -0.0648  0.0730
  128loPI   C2A 2040   3.601   8.520   8.639  0.0877 -0.0532 -0.2244
  128loPI   C3A 2041   3.489   8.772   8.216  0.2893  0.2232 -0.1086
  128loPI   C4A 2042   3.671   9.009   7.934 -0.0306  0.0602  0.0792
  128loPI   C5A 2043   3.659   9.163   7.451  0.4579 -0.0046  0.2509
  128loPI   C6A 2044   3.550   9.203   6.995  0.1005  0.0870 -0.1087
  128loPI   C1B 2045   3.344   8.779   9.060 -0.0250 -0.1312 -0.2508
  128loPI   C2B 2046   3.161   8.852   8.654  0.1231  0.0524  0.1342
  128loPI   C3B 2047   2.977   8.801   8.283  0.1280  0.2645 -0.1380
  128loPI   C4B 2048   2.748   8.424   8.125 -0.0256 -0.2191 -0.2585
  129loPI    C1 2049  11.295   2.484  10.950  0.1133 -0.1401  0.0134
  129loPI    C2 2050  10.925   2.339  10.994  0.0416  0.0312 -0.0148
  129loPI    C3 2051  11.209   2.247  11.260 -0.1091  0.1757  0.1998
  129loPI   PO4 2052  11.395   2.420  10.698  0.0526 -0.0994 -0.0374
  129loPI   GL1 2053  11.489   2.307  10.219 -0.1078  0.0193  0.1198
  129loPI   GL2 2054  11.237   2.493  10.004  0.0539  0.1393 -0.2345
  129loPI   C1A 2055  11.778   2.473   9.878  0.0404 -0.1625  0.1488
  129loPI   C2A 2056  11.745   2.500   9.317 -0.1219 -0.0743 -0.4174
  129loPI   C3A 2057  11.845   2.495   8.880  0.1237  0.0047  0.0554
  129loPI   C4A 2058  11.754   2.379   8.428  0.0740  0.0351  0.3805
  129loPI   C5A 2059  11.549   2.345   8.076  0.0986  0.3008 -0.1000
  129loPI   C6A 2060  11.363   2.279   7.637  0.0441 -0.0007  0.0447
  129loPI   C1B 2061  11.169   2.444   9.516  0.1590  0.0478  0.0452
  129loPI   C2B 2062  11.244   2.390   9.068  0.3234 -0.0061  0.0100
  129loPI   C3B 2063  11.339   2.514   8.628  0.1294 -0.0146 -0.1501
  129loPI   C4B 2064  11.171   2.562   8.270  0.0988  0.0400 -0.0735
  130loPI    C1 2065  14.094   7.029  10.538 -0.0049 -0.0699  0.1519
  130loPI    C2 2066  13.890   6.778  10.774 -0.2481 -0.0085  0.0108
  130loPI    C3 2067  13.712   7.106  10.631 -0.0262  0.0839 -0.0575
  130loPI   PO4 2068  14.227   6.877  10.387  0.0663 -0.1230  0.1982
  130loPI   GL1 2069  14.074   6.731   9.941 -0.1516  0.1886 -0.5181
  130loPI   GL2 2070  14.370   6.555   9.983  0.4020  0.0020  0.1984
  130loPI   C1A 2071  13.974   6.827   9.532 -0.2685  0.1872  0.1101
  130loPI   C2A 2072  13.924   6.874   9.021  0.2610 -0.2873  0.0763
  130loPI   C3A 2073  13.987   6.864   8.553  0.0839 -0.0735 -0.1081
  130loPI   C4A 2074  13.963   7.013   8.124  0.1600 -0.2666  0.0794
  130loPI   C5A 2075  13.597   7.087   7.854 -0.1149 -0.1093  0.3861
  130loPI   C6A 2076  13.181   6.939   7.859  0.1086  0.3398  0.0399
  130loPI   C1B 2077  14.360   6.511   9.557 -0.0713  0.0630  0.1376
  130loPI   C2B 2078  14.267   6.645   9.157  0.1348  0.0384  0.0057
  130loPI   C3B 2079  14.398   6.958   8.776 -0.1558 -0.1387 -0.0008
  130loPI   C4B 2080  14.408   7.154   8.403 -0.0455  0.2297  0.2297
  131loPI    C1 2081  13.688   8.207  10.574  0.3006  0.0258 -0.2023
  131loPI    C2 2082  13.944   8.286  10.872  0.0164  0.0830  0.0316
  131loPI    C3 2083  13.763   7.930  10.853 -0.0922  0.1379  0.0228
  131loPI   PO4 2084  13.846   8.257  10.371  0.0627  0.1979 -0.1056
  131loPI   GL1 2085  13.894   8.210   9.987 -0.0924 -0.1164 -0.1842
  131loPI   GL2 2086  13.682   8.481   9.840 -0.4248  0.4283  0.0370
  131loPI   C1A 2087  14.105   8.168   9.663  0.0404  0.3435  0.2135
  131loPI   C2A 2088  14.191   8.132   9.192 -0.1804 -0.0715  0.0097
  131loPI   C3A 2089  14.219   8.075   8.786 -0.1133  0.0560  0.0877
  131loPI   C4A 2090  14.204   7.990   8.414  0.1220  0.0956 -0.0054
  131loPI   C5A 2091  14.144   7.892   7.939 -0.1810 -0.0727  0.0681
  131loPI   C6A 2092  14.301   8.183   7.656  0.1369  0.2199  0.0156
  131loPI   C1B 2093  13.583   8.232   9.399  0.0047  0.2306 -0.0629
  131loPI   C2B 2094  13.498   8.180   8.984  0.1107 -0.0600 -0.0592
  131loPI   C3B 2095  13.413   8.185   8.624 -0.2832 -0.1571 -0.0784
  131loPI   C4B 2096  13.302   8.302   8.252  0.0357  0.0090  0.0953
  132loPI    C1 2097   8.975  16.939  10.859 -0.0655  0.0516  0.0650
  132loPI    C2 2098   9.267  17.188  10.747  0.1309 -0.2123 -0.0199
  132loPI    C3 2099   9.137  17.190  11.125  0.0344  0.1109 -0.0509
  132loPI   PO4 2100   8.752  17.053  10.624 -0.2239 -0.1327  0.0974
  132loPI   GL1 2101   8.716  17.149  10.238  0.2131  0.2610  0.1788
  132loPI   GL2 2102   9.021  17.073  10.146 -0.1446 -0.0465 -0.1961
  132loPI   C1A 2103   8.653  16.830   9.955  0.0932 -0.1446  0.1451
  132loPI   C2A 2104   8.800  16.767   9.472  0.2868 -0.2063  0.1677
  132loPI   C3A 2105   8.788  16.749   9.046  0.1092  0.3782  0.0695
  132loPI   C4A 2106   8.710  16.694   8.663 -0.3660 -0.0962  0.0910
  132loPI   C5A 2107   8.781  16.788   8.022  0.0355 -0.4045 -0.2473
  132loPI   C6A 2108   8.543  16.693   7.636  0.1967  0.1922 -0.1767
  132loPI   C1B 2109   8.991  17.177   9.734 -0.1175 -0.0026  0.1184
  132loPI   C2B 2110   9.103  17.164   9.284 -0.3412  0.0834  0.0720
  132loPI   C3B 2111   8.991  17.094   8.863 -0.2165 -0.3415  0.4744
  132loPI   C4B 2112   8.935  17.043   8.446  0.0037  0.0577 -0.3466
  133loPI    C1 2113  13.621   4.149  10.326  0.1765 -0.0126  0.1059
  133loPI    C2 2114  13.573   4.345  10.672  0.2480 -0.0093  0.1140
  133loPI    C3 2115  13.750   3.986  10.668  0.1927 -0.0364  0.0885
  133loPI   PO4 2116  13.685   4.187  10.181 -0.0520 -0.0605 -0.0090
  133loPI   GL1 2117  13.749   4.519   9.856 -0.3065  0.0020  0.1453
  133loPI   GL2 2118  13.517   4.855   9.877  0.3489  0.1515 -0.5302
  133loPI   C1A 2119  13.734   4.683   9.441 -0.0414  0.1765  0.2141
  133loPI   C2A 2120  13.623   5.003   9.170  0.0517  0.1727  0.1845
  133loPI   C3A 2121  13.762   5.327   8.975  0.0203  0.2911 -0.1193
  133loPI   C4A 2122  13.804   5.468   8.516  0.2995 -0.0252  0.0790
  133loPI   C5A 2123  13.546   5.776   8.266  0.4857 -0.1808 -0.1208
  133loPI   C6A 2124  13.785   6.102   7.945  0.0636 -0.1138  0.1087
  133loPI   C1B 2125  13.234   4.869   9.489 -0.2120  0.1134  0.2058
  133loPI   C2B 2126  13.263   4.619   9.101  0.0081 -0.1789 -0.0333
  133loPI   C3B 2127  13.363   4.757   8.706  0.4361 -0.0208  0.0336
  133loPI   C4B 2128  13.743   4.959   8.581  0.2088 -0.2767 -0.0661
  134loPI    C1 2129  16.693   3.508  10.090 -0.0585  0.1094  0.2486
  134loPI    C2 2130  16.996   3.274   9.973 -0.2570 -0.0989  0.1433
  134loPI    C3 2131  16.956   3.370  10.359  0.0315  0.0607  0.1367
  134loPI   PO4 2132  16.513   3.416  10.054 -0.1959  0.0950  0.1018
  134loPI   GL1 2133  16.214   3.311   9.823  0.3186  0.0775 -0.1115
  134loPI   GL2 2134  16.407   3.198   9.586 -0.0797  0.4488 -0.0227
  134loPI   C1A 2135  16.011   3.453   9.533 -0.1452  0.0168  0.1396
  134loPI   C2A 2136  16.120   3.278   9.054  0.1263 -0.1984 -0.0246
  134loPI   C3A 2137  16.025   2.953   8.704  0.0266 -0.2209  0.0310
  134loPI   C4A 2138  16.070   2.594   8.469  0.2583 -0.1747 -0.2426
  134loPI   C5A 2139  16.062   2.436   8.074  0.1673  0.0144  0.2332
  134loPI   C6A 2140  15.944   2.426   7.742  0.0912  0.1227  0.0319
  134loPI   C1B 2141  16.616   3.150   9.207  0.2147 -0.0660  0.1246
  134loPI   C2B 2142  16.506   3.053   8.721  0.0665 -0.1999 -0.0031
  134loPI   C3B 2143  16.331   3.028   8.309 -0.2235  0.0753 -0.0085
  134loPI   C4B 2144  16.428   2.804   7.982 -0.0335 -0.4419  0.3108
  135loPI    C1 2145   4.879   6.831  10.273  0.1482  0.3389  0.1906
  135loPI    C2 2146   4.532   7.029  10.247 -0.0652 -0.0561 -0.0779
  135loPI    C3 2147   4.613   6.809  10.571 -0.1902 -0.1855 -0.1333
  135loPI   PO4 2148   4.936   6.771  10.120 -0.0617  0.1382  0.1030
  135loPI   GL1 2149   5.237   6.925   9.838 -0.2443  0.0394  0.2352
  135loPI   GL2 2150   5.505   6.930   9.868  0.0400 -0.0346  0.0207
  135loPI   C1A 2151   5.134   7.125   9.411  0.0322  0.2936 -0.3894
  135loPI   C2A 2152   5.022   7.047   8.946  0.2028  0.1746  0.0708
  135loPI   C3A 2153   4.888   7.061   8.591 -0.2849  0.1317  0.2384
  135loPI   C4A 2154   4.976   7.136   8.188 -0.0115 -0.1168  0.1139
  135loPI   C5A 2155   5.002   6.922   7.874 -0.1124  0.0713  0.0278
  135loPI   C6A 2156   4.992   6.614   7.626  0.1311  0.0834 -0.0074
  135loPI   C1B 2157   5.644   7.030   9.450  0.4235 -0.0675  0.1564
  135loPI   C2B 2158   5.501   7.130   9.075 -0.1368 -0.2804  0.1227
  135loPI   C3B 2159   5.737   7.291   8.763 -0.0658 -0.1628 -0.0489
  135loPI   C4B 2160   6.152   7.333   8.662 -0.1258  0.4229 -0.1929
  136loPI    C1 2161  10.076  15.827  10.566  0.2454 -0.1838  0.0189
  136loPI    C2 2162  10.235  16.156  10.729  0.0723  0.0120 -0.2005
  136loPI    C3 2163  10.319  15.796  10.883  0.1013  0.1722  0.1695
  136loPI   PO4 2164  10.062  15.911  10.339 -0.1712  0.1237  0.0263
  136loPI   GL1 2165  10.073  15.886  10.013  0.0971 -0.4359  0.1727
  136loPI   GL2 2166  10.256  15.544  10.048 -0.0110 -0.1479 -0.2090
  136loPI   C1A 2167   9.955  15.996   9.551 -0.0209 -0.1659  0.0572
  136loPI   C2A 2168   9.912  16.067   9.122  0.0354  0.1029  0.0143
  136loPI   C3A 2169   9.933  16.040   8.599  0.3120  0.0505 -0.2272
  136loPI   C4A 2170   9.767  16.292   8.301 -0.1458  0.1267  0.1483
  136loPI   C5A 2171   9.773  16.632   7.898 -0.1361 -0.1010  0.1505
  136loPI   C6A 2172   9.628  16.705   7.528 -0.0251 -0.1786  0.0310
  136loPI   C1B 2173  10.053  15.496   9.602 -0.1890 -0.1241 -0.2330
  136loPI   C2B 2174  10.000  15.554   9.190  0.0178 -0.1699 -0.1685
  136loPI   C3B 2175  10.168  15.389   8.811  0.0564 -0.1261  0.0048
  136loPI   C4B 2176  10.126  15.326   8.470  0.2232  0.2952  0.1224
  137loPI    C1 2177   7.357   0.090  10.699 -0.0444 -0.0556  0.1629
  137loPI    C2 2178   7.324  -0.148  11.019  0.0138  0.0500  0.2483
  137loPI    C3 2179   7.650   0.077  10.970  0.1171 -0.1510 -0.0142
  137loPI   PO4 2180   7.258  -0.097  10.495  0.1653 -0.1870  0.1790
  137loPI   GL1 2181   7.209  -0.044  10.039  0.0371  0.0393 -0.0111
  137loPI   GL2 2182   7.322  -0.429  10.170 -0.1924 -0.2788  0.1137
  137loPI   C1A 2183   7.300   0.062   9.642 -0.3124  0.1013 -0.0826
  137loPI   C2A 2184   7.355   0.128   9.124  0.0153 -0.1934  0.2132
  137loPI   C3A 2185   7.438   0.143   8.722  0.1756  0.0408 -0.1012
  137loPI   C4A 2186   7.311   0.054   8.319 -0.2673  0.0484  0.0172
  137loPI   C5A 2187   7.141   0.234   7.937 -0.0202 -0.1491 -0.2249
  137loPI   C6A 2188   6.913   0.085   7.523  0.0133 -0.2920 -0.0615
  137loPI   C1B 2189   7.561  -0.364   9.780  0.0512  0.0811 -0.4893
  137loPI   C2B 2190   7.455  -0.453   9.414  0.1714 -0.1954  0.0808
  137loPI   C3B 2191   7.566  -0.347   9.037 -0.6190  0.2204 -0.2546
  137loPI   C4B 2192   7.632  -0.280   8.590 -0.1124 -0.1619 -0.0206
  138loPI    C1 2193   6.380  16.036  10.760 -0.0767 -0.0182  0.2000
  138loPI    C2 2194   6.776  16.003  10.807 -0.0816 -0.0984  0.1860
  138loPI    C3 2195   6.536  16.005  11.127 -0.0587  0.1048  0.2032
  138loPI   PO4 2196   6.333  16.262  10.518 -0.1312 -0.0353 -0.2651
  138loPI   GL1 2197   6.098  16.370  10.166  0.0142  0.0443 -0.0085
  138loPI   GL2 2198   6.147  15.996  10.112 -0.0508 -0.2058  0.0779
  138loPI   C1A 2199   5.963  16.493   9.816 -0.1851 -0.1779  0.0794
  138loPI   C2A 2200   5.942  16.273   9.414 -0.2238 -0.0025  0.2337
  138loPI   C3A 2201   6.073  16.327   8.931 -0.1529 -0.0948 -0.0273
  138loPI   C4A 2202   6.047  16.078   8.491 -0.0431 -0.1470 -0.0699
  138loPI   C5A 2203   6.222  15.962   8.114  0.1534  0.1793  0.1469
  138loPI   C6A 2204   6.462  15.731   7.873 -0.0246  0.2628  0.0053
  138loPI   C1B 2205   6.068  15.867   9.651  0.0783  0.1959  0.0304
  138loPI   C2B 2206   6.085  15.813   9.178  0.1602 -0.0967  0.0506
  138loPI   C3B 2207   6.320  15.794   8.818 -0.0796 -0.0423  0.1282
  138loPI   C4B 2208   6.579  15.865   8.451 -0.1257 -0.1729 -0.1148
  139loPI    C1 2209   7.054  17.899  10.642  0.1776  0.0245 -0.0964
  139loPI    C2 2210   6.656  17.930  10.674  0.1633 -0.0197 -0.2274
  139loPI    C3 2211   6.891  18.229  10.799  0.0925 -0.0263 -0.0773
  139loPI   PO4 2212   7.080  17.670  10.517  0.3016 -0.1579 -0.2882
  139loPI   GL1 2213   6.929  17.643  10.195  0.3264 -0.0443 -0.0844
  139loPI   GL2 2214   6.612  17.681  10.190 -0.0228  0.1032  0.1566
  139loPI   C1A 2215   7.142  17.670   9.807  0.0723 -0.1280 -0.2803
  139loPI   C2A 2216   7.106  17.615   9.370  0.1102 -0.2597 -0.3061
  139loPI   C3A 2217   7.128  17.658   9.007 -0.3725 -0.1675  0.0378
  139loPI   C4A 2218   7.166  17.648   8.577  0.1019  0.1600  0.2982
  139loPI   C5A 2219   7.268  17.949   8.232 -0.0826 -0.0409 -0.1748
  139loPI   C6A 2220   7.002  18.274   8.080  0.1600  0.2181  0.1410
  139loPI   C1B 2221   6.630  17.750   9.773  0.1692 -0.1956  0.1722
  139loPI   C2B 2222   6.555  17.681   9.324 -0.0818 -0.0679 -0.3177
  139loPI   C3B 2223   6.633  17.758   8.867  0.0898 -0.0059 -0.2944
  139loPI   C4B 2224   6.598  17.742   8.516 -0.2807  0.1809  0.1584
  140loPI    C1 2225   9.746   8.868  10.418  0.0733 -0.2088  0.3437
  140loPI    C2 2226   9.400   8.855  10.218  0.3038 -0.1030 -0.0743
  140loPI    C3 2227   9.608   8.519  10.280  0.2487 -0.1311 -0.0415
  140loPI   PO4 2228   9.841   9.097  10.259 -0.3557  0.1164  0.1364
  140loPI   GL1 2229   9.714   9.366   9.955  0.0564  0.1946 -0.1632
  140loPI   GL2 2230   9.817   9.599  10.042 -0.1299 -0.1913  0.1322
  140loPI   C1A 2231   9.632   9.534   9.499  0.1348  0.4752 -0.2850
  140loPI   C2A 2232   9.579   9.578   9.115 -0.2617 -0.3364 -0.0927
  140loPI   C3A 2233   9.571   9.519   8.664 -0.1391  0.1318 -0.1271
  140loPI   C4A 2234   9.249   9.629   8.343  0.1494  0.1060 -0.1385
  140loPI   C5A 2235   8.807   9.668   8.204  0.1645 -0.4161  0.0689
  140loPI   C6A 2236   8.513   9.456   8.069  0.2309 -0.1903 -0.0889
  140loPI   C1B 2237  10.074   9.710   9.678 -0.0974 -0.0378  0.2217
  140loPI   C2B 2238  10.059   9.678   9.314  0.0678  0.3079  0.3063
  140loPI   C3B 2239  10.048   9.815   8.882 -0.0552  0.0805  0.2873
  140loPI   C4B 2240   9.971   9.801   8.440 -0.0488  0.2316 -0.1182
  141loPI    C1 2241   3.017   1.844  10.545  0.1342 -0.2325 -0.1967
  141loPI    C2 2242   3.283   2.104  10.398 -0.1429  0.1519 -0.0344
  141loPI    C3 2243   3.263   2.039  10.792 -0.0156 -0.1881 -0.0809
  141loPI   PO4 2244   3.039   1.674  10.360 -0.1809  0.2565 -0.4956
  141loPI   GL1 2245   2.950   1.664   9.911 -0.1822  0.0013 -0.0904
  141loPI   GL2 2246   3.089   2.024   9.923  0.1671 -0.1453 -0.0508
  141loPI   C1A 2247   2.986   1.511   9.425 -0.2475 -0.3010 -0.1263
  141loPI   C2A 2248   2.962   1.437   9.031  0.2982 -0.2207 -0.0618
  141loPI   C3A 2249   3.004   1.397   8.559  0.2822  0.0446  0.0910
  141loPI   C4A 2250   3.150   1.166   8.252  0.0030 -0.1740 -0.1984
  141loPI   C5A 2251   3.122   0.812   8.062 -0.1302 -0.0640 -0.0942
  141loPI   C6A 2252   3.439   0.609   7.824  0.1394 -0.0792 -0.2203
  141loPI   C1B 2253   3.255   1.912   9.472 -0.2548  0.0247  0.0177
  141loPI   C2B 2254   3.256   1.823   9.073  0.2660  0.0587 -0.0491
  141loPI   C3B 2255   3.458   1.700   8.747 -0.0628 -0.0320 -0.0876
  141loPI   C4B 2256   3.564   1.860   8.366  0.0306  0.1235  0.2674
  142loPI    C1 2257   1.944   2.115  10.153  0.2047 -0.1138  0.1085
  142loPI    C2 2258   1.919   2.382  10.450  0.0432 -0.1832  0.1584
  142loPI    C3 2259   1.653   2.084  10.426  0.0331 -0.1576 -0.0769
  142loPI   PO4 2260   2.140   2.013  10.116 -0.0345 -0.4768  0.1200
  142loPI   GL1 2261   2.397   1.759   9.871 -0.0872  0.3112  0.1373
  142loPI   GL2 2262   2.602   1.999   9.825  0.1486 -0.0406  0.3185
  142loPI   C1A 2263   2.404   1.592   9.519 -0.1282  0.0359  0.0281
  142loPI   C2A 2264   2.442   1.419   9.020 -0.1681  0.1210 -0.1658
  142loPI   C3A 2265   2.488   1.425   8.630 -0.4672 -0.0030  0.1602
  142loPI   C4A 2266   2.624   1.460   8.172  0.0273  0.0408  0.3214
  142loPI   C5A 2267   2.660   1.768   7.873  0.1336  0.1159 -0.1009
  142loPI   C6A 2268   2.678   2.147   7.548 -0.1361 -0.1020  0.2925
  142loPI   C1B 2269   2.774   1.999   9.357 -0.1576 -0.0544  0.0305
  142loPI   C2B 2270   2.721   1.852   9.007  0.1349  0.3307 -0.0312
  142loPI   C3B 2271   2.684   1.829   8.497  0.1208 -0.0946 -0.1305
  142loPI   C4B 2272   2.479   2.076   8.208  0.1052  0.2364 -0.1061
  143loPI    C1 2273   0.544  14.515  10.129  0.2416 -0.1375  0.0608
  143loPI    C2 2274   0.516  14.861  10.328  0.1273 -0.1279  0.0286
  143loPI    C3 2275   0.534  14.516  10.529 -0.0888 -0.1251  0.0555
  143loPI   PO4 2276   0.464  14.530   9.954  0.5074 -0.0604  0.1801
  143loPI   GL1 2277   0.457  14.638   9.502 -0.0364  0.2090  0.2103
  143loPI   GL2 2278   0.372  14.366   9.455 -0.0405  0.0836  0.1280
  143loPI   C1A 2279   0.374  14.610   8.986 -0.1665 -0.2490 -0.0817
  143loPI   C2A 2280   0.354  14.276   8.771 -0.0482  0.2088  0.0703
  143loPI   C3A 2281   0.310  14.087   8.418  0.0568 -0.0106  0.2193
  143loPI   C4A 2282   0.025  14.130   8.161 -0.1747  0.3193  0.0302
  143loPI   C5A 2283  -0.242  14.199   7.895  0.1497  0.1947  0.1634
  143loPI   C6A 2284  -0.506  14.193   7.586  0.0264  0.1088  0.0045
  143loPI   C1B 2285   0.738  14.238   9.154 -0.0846  0.1886  0.0300
  143loPI   C2B 2286   1.212  14.101   9.334 -0.2170  0.1650  0.1912
  143loPI   C3B 2287   1.423  14.019   9.016 -0.0852 -0.0030 -0.0621
  143loPI   C4B 2288   1.631  14.354   8.771  0.2332 -0.2627 -0.0895
  144loPI    C1 2289  15.051   7.094  10.497  0.0613 -0.0371  0.0027
  144loPI    C2 2290  15.242   7.255  10.185 -0.0690  0.0483 -0.0338
  144loPI    C3 2291  15.387   7.302  10.554  0.0673 -0.0244 -0.0776
  144loPI   PO4 2292  15.020   6.848  10.422  0.0359  0.0566 -0.1114
  144loPI   GL1 2293  15.055   6.796  10.022 -0.1963  0.3886  0.1475
  144loPI   GL2 2294  15.324   6.893   9.850 -0.1205 -0.0270 -0.0041
  144loPI   C1A 2295  14.816   6.606   9.684 -0.2747 -0.1549 -0.1106
  144loPI   C2A 2296  14.734   6.695   9.291 -0.0056 -0.2060  0.1528
  144loPI   C3A 2297  14.731   6.605   8.928  0.0886  0.2573 -0.1815
  144loPI   C4A 2298  14.725   6.723   8.444 -0.0052  0.1978 -0.1345
  144loPI   C5A 2299  14.678   6.865   7.961 -0.0363  0.2897  0.2863
  144loPI   C6A 2300  14.949   6.978   7.732  0.0919 -0.2542 -0.2077
  144loPI   C1B 2301  15.242   6.730   9.453 -0.0202 -0.0645 -0.1042
  144loPI   C2B 2302  15.224   6.752   9.066  0.4152 -0.3723 -0.0142
  144loPI   C3B 2303  15.147   6.772   8.639 -0.0814  0.3710 -0.0177
  144loPI   C4B 2304  15.151   6.904   8.227  0.2235  0.2843 -0.0036
  145loPI    C1 2305   6.712  14.985  10.153  0.1461  0.0299 -0.0205
  145loPI    C2 2306   6.855  15.113  10.504 -0.1748  0.0782  0.0959
  145loPI    C3 2307   6.617  14.792  10.490 -0.0408 -0.0147 -0.0977
  145loPI   PO4 2308   6.922  14.993  10.014 -0.1800 -0.0288 -0.0056
  145loPI   GL1 2309   6.894  15.037   9.616 -0.1536  0.0324 -0.0123
  145loPI   GL2 2310   6.540  15.040   9.683 -0.0475 -0.1307 -0.1717
  145loPI   C1A 2311   7.010  14.995   9.108  0.1048  0.0179  0.1803
  145loPI   C2A 2312   6.744  14.819   8.822  0.0603 -0.3456 -0.0138
  145loPI   C3A 2313   6.812  14.780   8.364 -0.2922  0.2504  0.0315
  145loPI   C4A 2314   7.099  14.925   8.173  0.3498  0.0945  0.2659
  145loPI   C5A 2315   7.518  15.038   8.170 -0.2759 -0.2417  0.1229
  145loPI   C6A 2316   7.869  15.400   8.185  0.1924  0.2734  0.4212
  145loPI   C1B 2317   6.472  14.925   9.195  0.0227  0.1761  0.3000
  145loPI   C2B 2318   6.220  14.800   8.849  0.1450  0.0689 -0.0368
  145loPI   C3B 2319   6.296  14.783   8.399  0.1972 -0.2753 -0.1014
  145loPI   C4B 2320   6.435  15.018   8.003  0.1469 -0.1165  0.0160
  146loPI    C1 2321   3.528  16.666  10.474 -0.1002  0.0412 -0.0880
  146loPI    C2 2322   3.923  16.677  10.537 -0.1751  0.1945  0.3965
  146loPI    C3 2323   3.716  16.345  10.619 -0.1415  0.0925  0.0813
  146loPI   PO4 2324   3.483  16.796  10.166  0.2976  0.0662 -0.2481
  146loPI   GL1 2325   3.711  16.991   9.825  0.0422 -0.1489 -0.1833
  146loPI   GL2 2326   3.343  17.006   9.747 -0.2338  0.1389 -0.2787
  146loPI   C1A 2327   3.757  17.250   9.440  0.2473 -0.2015  0.0741
  146loPI   C2A 2328   3.758  17.163   9.020 -0.2921  0.1519  0.2604
  146loPI   C3A 2329   3.998  17.120   8.616  0.0973 -0.0889  0.0865
  146loPI   C4A 2330   4.220  17.134   8.179  0.2285  0.0190 -0.1346
  146loPI   C5A 2331   4.665  17.153   8.225  0.1881  0.0526  0.3384
  146loPI   C6A 2332   5.082  17.104   8.334  0.1131 -0.0839 -0.0031
  146loPI   C1B 2333   3.348  16.950   9.297 -0.0602  0.0867  0.1430
  146loPI   C2B 2334   3.313  16.922   8.851 -0.2779  0.0077 -0.3334
  146loPI   C3B 2335   3.509  17.048   8.418  0.2221  0.2501  0.1226
  146loPI   C4B 2336   3.389  17.269   8.036 -0.0829 -0.1154  0.0029
  147loPI    C1 2337  10.788   6.271  10.203  0.1510  0.2240 -0.0669
  147loPI    C2 2338  10.497   6.362   9.945  0.1994  0.2218 -0.1226
  147loPI    C3 2339  10.597   6.621  10.233 -0.1439  0.0487  0.1607
  147loPI   PO4 2340  10.763   5.997  10.184  0.0736 -0.0966  0.0298
  147loPI   GL1 2341  10.856   5.815   9.866 -0.0295  0.1082  0.2166
  147loPI   GL2 2342  10.914   6.141   9.726 -0.0026  0.2955  0.2733
  147loPI   C1A 2343  10.888   5.601   9.492 -0.2092  0.4421  0.0638
  147loPI   C2A 2344  11.055   5.633   8.973  0.3464 -0.0145  0.1956
  147loPI   C3A 2345  11.329   5.543   8.657  0.0261  0.0418  0.0549
  147loPI   C4A 2346  11.356   5.185   8.458 -0.1057 -0.0047 -0.0910
  147loPI   C5A 2347  11.408   4.747   8.519 -0.0221  0.1267  0.0751
  147loPI   C6A 2348  11.461   4.347   8.618 -0.1684  0.1090  0.0944
  147loPI   C1B 2349  10.881   6.101   9.275  0.1204 -0.0333  0.2977
  147loPI   C2B 2350  10.832   6.089   8.830 -0.0368 -0.0081 -0.1687
  147loPI   C3B 2351  10.954   5.886   8.467 -0.2216 -0.1186 -0.1300
  147loPI   C4B 2352  11.357   5.686   8.207 -0.2076  0.1588  0.0862
  148loPI    C1 2353  13.943  17.340  10.293 -0.1378  0.2687  0.1670
  148loPI    C2 2354  13.770  17.025  10.470  0.0473  0.0520 -0.0306
  148loPI    C3 2355  13.983  17.285  10.687  0.0178 -0.0417  0.1114
  148loPI   PO4 2356  14.021  17.189  10.029 -0.2983 -0.0326 -0.2427
  148loPI   GL1 2357  14.247  16.916   9.859  0.0258  0.2825 -0.1056
  148loPI   GL2 2358  13.984  16.731  10.045  0.0707 -0.0044  0.0663
  148loPI   C1A 2359  14.330  16.832   9.535  0.1254  0.1251  0.1678
  148loPI   C2A 2360  14.339  16.737   9.124  0.0428 -0.1629 -0.0601
  148loPI   C3A 2361  14.304  16.774   8.609 -0.1802  0.0271  0.2530
  148loPI   C4A 2362  14.413  16.667   8.189 -0.0316 -0.3108  0.0528
  148loPI   C5A 2363  14.636  16.422   7.902 -0.0451  0.0796 -0.0912
  148loPI   C6A 2364  14.950  16.182   7.723  0.1370  0.0070 -0.2054
  148loPI   C1B 2365  13.800  16.694   9.682 -0.1220  0.0624 -0.2345
  148loPI   C2B 2366  13.829  16.747   9.314  0.0082 -0.2994 -0.3195
  148loPI   C3B 2367  13.871  16.673   8.822  0.0263 -0.1023 -0.0999
  148loPI   C4B 2368  13.882  16.670   8.393  0.2143  0.0016 -0.2306
  149loPI    C1 2369  15.046   3.914  10.373  0.1122 -0.0447 -0.0420
  149loPI    C2 2370  14.811   4.123  10.621  0.0029 -0.3002  0.0727
  149loPI    C3 2371  15.137   3.938  10.762  0.2131 -0.0416 -0.0653
  149loPI   PO4 2372  15.038   4.109  10.168 -0.2582 -0.3076 -0.1452
  149loPI   GL1 2373  14.864   4.208   9.735  0.1291  0.0144 -0.0671
  149loPI   GL2 2374  14.750   3.935   9.721  0.2111 -0.0050 -0.0251
  149loPI   C1A 2375  14.569   4.176   9.334  0.0414 -0.1390 -0.2572
  149loPI   C2A 2376  14.685   4.074   8.930 -0.0552  0.2449 -0.0703
  149loPI   C3A 2377  14.648   4.143   8.537  0.0429 -0.0783 -0.0795
  149loPI   C4A 2378  14.670   4.335   8.181 -0.0253  0.0470  0.1355
  149loPI   C5A 2379  14.443   4.505   7.795 -0.0449 -0.1745  0.1602
  149loPI   C6A 2380  14.323   4.477   7.453 -0.0499  0.1300 -0.0232
  149loPI   C1B 2381  14.954   3.738   9.374  0.2283 -0.3885 -0.2062
  149loPI   C2B 2382  14.861   3.582   8.925  0.0743  0.1264 -0.2369
  149loPI   C3B 2383  14.943   3.703   8.572  0.3234  0.0465 -0.1148
  149loPI   C4B 2384  14.816   3.780   8.205 -0.0984 -0.2028  0.0711
  150loPI    C1 2385  14.080   4.300  10.469  0.1852  0.0282  0.0919
  150loPI    C2 2386  14.306   4.026  10.653  0.1408 -0.1178 -0.0685
  150loPI    C3 2387  14.372   4.415  10.717  0.2044 -0.1649  0.1608
  150loPI   PO4 2388  14.199   4.251  10.217 -0.2159  0.1040 -0.1450
  150loPI   GL1 2389  14.258   4.121   9.868  0.0873 -0.0774  0.1870
  150loPI   GL2 2390  14.236   4.462   9.714  0.2960  0.2332  0.0492
  150loPI   C1A 2391  13.919   4.089   9.572  0.0638  0.1430  0.0398
  150loPI   C2A 2392  13.724   3.860   9.220 -0.2702  0.0815 -0.1609
  150loPI   C3A 2393  13.706   3.820   8.705 -0.0947  0.1566  0.0580
  150loPI   C4A 2394  13.553   3.823   8.243 -0.1202  0.1921 -0.0668
  150loPI   C5A 2395  13.705   4.011   7.898  0.1675 -0.0945  0.1962
  150loPI   C6A 2396  13.829   4.416   7.700  0.1796  0.0475  0.0260
  150loPI   C1B 2397  14.113   4.464   9.310 -0.2031  0.0116  0.0343
  150loPI   C2B 2398  14.103   4.103   8.979  0.1477 -0.0831 -0.1059
  150loPI   C3B 2399  14.065   4.109   8.479  0.1666  0.1527 -0.0441
  150loPI   C4B 2400  14.094   4.283   8.129  0.1367 -0.0826  0.1862
  151loPI    C1 2401  13.931  12.333  10.728  0.3251  0.0046  0.0931
  151loPI    C2 2402  13.874  11.948  10.821  0.0123  0.0094 -0.0647
  151loPI    C3 2403  14.156  12.160  11.011  0.0341 -0.2349  0.1833
  151loPI   PO4 2404  13.907  12.331  10.446  0.1255 -0.2051  0.0752
  151loPI   GL1 2405  13.953  12.315  10.017  0.1121  0.1029 -0.1167
  151loPI   GL2 2406  13.845  12.003   9.975  0.1355  0.6237 -0.3718
  151loPI   C1A 2407  14.271  12.388   9.672 -0.1298 -0.3957 -0.0802
  151loPI   C2A 2408  14.498  12.206   9.425  0.3199 -0.0673 -0.1853
  151loPI   C3A 2409  14.460  12.078   9.055  0.0966  0.1806  0.0089
  151loPI   C4A 2410  14.579  11.807   8.707  0.1437  0.3106 -0.0572
  151loPI   C5A 2411  14.367  11.675   8.393  0.1828  0.1177  0.1669
  151loPI   C6A 2412  14.246  11.301   8.288 -0.1310 -0.0346  0.0710
  151loPI   C1B 2413  13.822  12.158   9.605 -0.0614  0.2678  0.0746
  151loPI   C2B 2414  13.779  12.305   9.112  0.0646 -0.1852  0.0526
  151loPI   C3B 2415  13.749  12.452   8.691  0.1802 -0.1288 -0.2117
  151loPI   C4B 2416  13.639  12.399   8.208 -0.1414  0.1177  0.0919
  152loPI    C1 2417   6.515  12.039  10.614 -0.0838 -0.0936  0.3121
  152loPI    C2 2418   6.826  11.895  10.820 -0.0163 -0.2248  0.1221
  152loPI    C3 2419   6.480  11.696  10.816  0.0009 -0.2535  0.0605
  152loPI   PO4 2420   6.568  12.142  10.406  0.0186  0.0774  0.1457
  152loPI   GL1 2421   6.738  12.082  10.025 -0.4392 -0.1441  0.1835
  152loPI   GL2 2422   6.456  11.914   9.965  0.2012 -0.0060  0.0101
  152loPI   C1A 2423   6.883  12.266   9.591  0.1465 -0.0391 -0.0393
  152loPI   C2A 2424   7.007  12.158   9.149  0.0487 -0.1186  0.3295
  152loPI   C3A 2425   7.065  11.855   8.783 -0.0787  0.1618 -0.0180
  152loPI   C4A 2426   6.888  12.027   8.391  0.5045  0.1367 -0.0401
  152loPI   C5A 2427   6.551  12.140   8.065 -0.1004  0.1361  0.0291
  152loPI   C6A 2428   6.134  12.152   7.900  0.3228  0.0562  0.2026
  152loPI   C1B 2429   6.472  11.926   9.562 -0.0462  0.1461 -0.0505
  152loPI   C2B 2430   6.540  11.949   9.168  0.0939  0.1210 -0.2662
  152loPI   C3B 2431   6.576  11.841   8.762 -0.0398  0.2023  0.2369
  152loPI   C4B 2432   6.400  11.866   8.436  0.0187 -0.0370 -0.2502
  153loPI    C1 2433  11.142  15.780  10.625 -0.1433 -0.0409  0.0247
  153loPI    C2 2434  10.902  15.818  10.943 -0.2500  0.1750 -0.0793
  153loPI    C3 2435  10.882  15.490  10.714 -0.1205 -0.0154  0.1767
  153loPI   PO4 2436  11.120  15.939  10.376  0.2251  0.0640  0.1057
  153loPI   GL1 2437  11.298  16.008  10.035  0.1270 -0.0502  0.1155
  153loPI   GL2 2438  11.494  16.168  10.022  0.2934  0.0106 -0.3485
  153loPI   C1A 2439  11.062  16.227   9.645 -0.1529  0.3540  0.0561
  153loPI   C2A 2440  10.953  16.295   9.235  0.2051 -0.0545  0.1052
  153loPI   C3A 2441  10.720  16.256   8.861  0.1315  0.1605 -0.0661
  153loPI   C4A 2442  10.763  16.338   8.556 -0.3771  0.1213  0.0969
  153loPI   C5A 2443  10.537  16.233   8.210  0.2431  0.2131  0.2061
  153loPI   C6A 2444  10.108  16.004   8.072 -0.0618  0.1464  0.0521
  153loPI   C1B 2445  11.574  15.999   9.667 -0.0525  0.0659 -0.0105
  153loPI   C2B 2446  11.558  15.653   9.245  0.0847 -0.3080  0.1891
  153loPI   C3B 2447  11.579  15.799   8.819 -0.3045  0.0626  0.2231
  153loPI   C4B 2448  11.434  15.718   8.397  0.3344 -0.0729 -0.1213
  154loPI    C1 2449  16.078  11.777  10.321 -0.0291 -0.1477  0.0994
  154loPI    C2 2450  16.426  11.745  10.515  0.1235  0.1394 -0.1201
  154loPI    C3 2451  16.084  11.766  10.721  0.2526  0.0739  0.1045
  154loPI   PO4 2452  16.163  12.038  10.151 -0.0092 -0.1360  0.1142
  154loPI   GL1 2453  15.975  12.240   9.823 -0.0758  0.2343  0.0280
  154loPI   GL2 2454  16.129  11.984   9.637  0.2437  0.0555  0.1102
  154loPI   C1A 2455  16.037  12.672   9.635  0.0606 -0.4742 -0.0840
  154loPI   C2A 2456  16.231  12.771   9.391  0.3523  0.0896 -0.2058
  154loPI   C3A 2457  16.165  12.846   8.952 -0.0045 -0.0047 -0.0530
  154loPI   C4A 2458  16.183  12.738   8.535 -0.0001 -0.3734  0.2193
  154loPI   C5A 2459  16.066  12.779   8.098 -0.2193  0.0716  0.0232
  154loPI   C6A 2460  15.792  12.745   7.827  0.0905 -0.1353  0.0158
  154loPI   C1B 2461  15.939  12.310   9.337  0.0726  0.1496  0.0979
  154loPI   C2B 2462  15.871  12.204   8.928 -0.0405 -0.1469 -0.1555
  154loPI   C3B 2463  15.873  12.113   8.477 -0.0560  0.2733  0.0320
  154loPI   C4B 2464  16.060  12.293   8.090  0.3183 -0.0418 -0.0275
  155loPI    C1 2465   3.320   6.285  10.075  0.3350  0.0585 -0.2313
  155loPI    C2 2466   3.130   6.598  10.238  0.2355  0.0244 -0.2811
  155loPI    C3 2467   3.260   6.299  10.470 -0.1078 -0.1339 -0.2857
  155loPI   PO4 2468   3.552   6.391   9.939 -0.0853  0.0369  0.0434
  155loPI   GL1 2469   3.783   6.720   9.738 -0.1149  0.3603  0.0433
  155loPI   GL2 2470   4.001   6.649   9.504 -0.0114 -0.3945 -0.0835
  155loPI   C1A 2471   3.656   6.528   9.233 -0.0664 -0.0767 -0.1703
  155loPI   C2A 2472   3.541   6.294   8.935 -0.3322 -0.1194 -0.1008
  155loPI   C3A 2473   3.690   6.110   8.489  0.1869 -0.1131 -0.1591
  155loPI   C4A 2474   3.666   6.107   8.087  0.0039  0.1891  0.0873
  155loPI   C5A 2475   3.518   6.112   7.727  0.1780  0.1435 -0.1375
  155loPI   C6A 2476   3.110   5.874   7.666  0.1362 -0.1036 -0.2582
  155loPI   C1B 2477   4.076   6.665   9.029 -0.0660  0.0302 -0.3401
  155loPI   C2B 2478   3.906   6.624   8.631  0.6412  0.1226 -0.1505
  155loPI   C3B 2479   3.951   6.691   8.222  0.0678 -0.1313 -0.4664
  155loPI   C4B 2480   4.163   6.729   7.894  0.0166 -0.0368 -0.2733
  156loPI    C1 2481  14.275   2.507  10.280 -0.0511  0.0432  0.0851
  156loPI    C2 2482  13.888   2.427  10.341 -0.0345 -0.0600  0.0583
  156loPI    C3 2483  14.019   2.805  10.353 -0.1200 -0.0329  0.1567
  156loPI   PO4 2484  14.333   2.431  10.055 -0.0375  0.1441 -0.3352
  156loPI   GL1 2485  14.422   2.623   9.683  0.0266 -0.0374 -0.0256
  156loPI   GL2 2486  14.418   2.850   9.611 -0.0879  0.2980 -0.0336
  156loPI   C1A 2487  14.573   2.373   9.332 -0.2413  0.1060 -0.1818
  156loPI   C2A 2488  14.732   2.263   8.961  0.2861  0.2102 -0.2193
  156loPI   C3A 2489  14.694   2.033   8.666 -0.2271 -0.1446 -0.1550
  156loPI   C4A 2490  14.748   1.839   8.287  0.0646  0.0523 -0.1408
  156loPI   C5A 2491  14.515   1.902   7.862  0.0561  0.0879 -0.0345
  156loPI   C6A 2492  14.226   2.127   7.737  0.1127 -0.0898 -0.2752
  156loPI   C1B 2493  14.435   3.082   9.313 -0.1232  0.3494  0.2077
  156loPI   C2B 2494  14.486   3.255   8.870  0.1990 -0.1578 -0.0983
  156loPI   C3B 2495  14.459   3.165   8.437  0.3470  0.3270 -0.3035
  156loPI   C4B 2496  14.276   3.227   8.052  0.0298 -0.2214 -0.1598
  157loPI    C1 2497  12.761   4.314  10.277 -0.1705  0.0595  0.1189
  157loPI    C2 2498  12.630   4.383  10.648  0.0926 -0.3590  0.2966
  157loPI    C3 2499  13.022   4.344  10.578  0.0818  0.1390 -0.1032
  157loPI   PO4 2500  12.618   4.100  10.149  0.0298 -0.0269  0.0519
  157loPI   GL1 2501  12.492   4.075   9.696  0.2632 -0.0272 -0.2396
  157loPI   GL2 2502  12.487   4.444   9.772  0.0202  0.0622 -0.2054
  157loPI   C1A 2503  12.347   3.882   9.323  0.1302 -0.0439 -0.0519
  157loPI   C2A 2504  12.237   3.796   8.885 -0.0245  0.3884  0.3868
  157loPI   C3A 2505  12.174   3.786   8.461  0.4613  0.1539  0.0673
  157loPI   C4A 2506  11.937   3.912   8.039 -0.0050 -0.0437 -0.0077
  157loPI   C5A 2507  11.633   4.095   8.043  0.0363  0.2035 -0.2704
  157loPI   C6A 2508  11.548   4.526   8.002 -0.1386 -0.0201  0.1616
  157loPI   C1B 2509  12.278   4.474   9.351 -0.0488 -0.0433  0.2090
  157loPI   C2B 2510  12.376   4.391   8.960 -0.0215  0.1782  0.0463
  157loPI   C3B 2511  12.375   4.585   8.553  0.0690 -0.0756 -0.1054
  157loPI   C4B 2512  12.617   4.582   8.212  0.1753  0.0133 -0.1027
  158loPI    C1 2513   9.471  13.425  10.369 -0.0269  0.1207  0.0418
  158loPI    C2 2514   9.601  13.777  10.507 -0.3121  0.1887  0.1429
  158loPI    C3 2515   9.555  13.469  10.757  0.3725 -0.0623 -0.0187
  158loPI   PO4 2516   9.188  13.397  10.290  0.2605 -0.1825  0.2460
  158loPI   GL1 2517   8.911  13.521   9.891  0.1671  0.2727 -0.1099
  158loPI   GL2 2518   8.808  13.192  10.001  0.4342 -0.0118 -0.3030
  158loPI   C1A 2519   9.053  13.486   9.473 -0.2469 -0.1074  0.4982
  158loPI   C2A 2520   9.131  13.321   9.080 -0.2110  0.0079  0.2618
  158loPI   C3A 2521   9.287  13.475   8.697  0.0595  0.1477 -0.0762
  158loPI   C4A 2522   9.443  13.530   8.330  0.1423  0.1484  0.1079
  158loPI   C5A 2523   9.438  13.549   7.935  0.0793 -0.0483  0.0762
  158loPI   C6A 2524   9.610  13.665   7.509  0.2223  0.1989 -0.0678
  158loPI   C1B 2525   8.494  13.008   9.801 -0.1319 -0.0458  0.2309
  158loPI   C2B 2526   8.151  12.923   9.510 -0.2352  0.2164 -0.1145
  158loPI   C3B 2527   8.240  12.919   9.079 -0.0603  0.1218 -0.1477
  158loPI   C4B 2528   8.123  12.862   8.702  0.2320 -0.1339 -0.0723
  159loPI    C1 2529  18.049  12.118  10.224  0.1356 -0.0786  0.1480
  159loPI    C2 2530  17.970  12.492  10.342  0.1236 -0.0276 -0.0197
  159loPI    C3 2531  18.340  12.344  10.378  0.2032  0.1116 -0.2488
  159loPI   PO4 2532  17.892  12.042   9.992  0.0401  0.1259  0.0212
  159loPI   GL1 2533  17.733  11.892   9.605 -0.2263 -0.1393  0.1458
  159loPI   GL2 2534  17.456  11.929   9.814  0.0067 -0.0996  0.1026
  159loPI   C1A 2535  17.734  11.721   9.203 -0.1033  0.3801 -0.0524
  159loPI   C2A 2536  17.794  11.856   8.765 -0.2454 -0.3218  0.1762
  159loPI   C3A 2537  17.757  11.731   8.316 -0.1438  0.1879 -0.3159
  159loPI   C4A 2538  17.619  11.636   7.992  0.3541  0.0382 -0.1138
  159loPI   C5A 2539  17.754  11.487   7.641  0.0804 -0.0487 -0.1138
  159loPI   C6A 2540  17.710  11.832   7.334  0.1186 -0.1208 -0.1613
  159loPI   C1B 2541  17.253  11.649   9.487  0.1327 -0.0525  0.0421
  159loPI   C2B 2542  17.168  11.596   9.032 -0.1322  0.2039 -0.4367
  159loPI   C3B 2543  16.943  11.366   8.686 -0.1000 -0.0107 -0.1324
  159loPI   C4B 2544  16.687  11.339   8.176  0.0017 -0.0067  0.0005
  160loPI    C1 2545  11.046   1.565  10.490  0.1022 -0.1462 -0.2198
  160loPI    C2 2546  11.326   1.386  10.712 -0.0054  0.1418  0.1585
  160loPI    C3 2547  11.428   1.679  10.459  0.0572  0.1314  0.1716
  160loPI   PO4 2548  10.924   1.348  10.347 -0.0137 -0.2691 -0.1114
  160loPI   GL1 2549  10.860   1.252   9.891 -0.0317  0.0978 -0.2598
  160loPI   GL2 2550  11.084   0.954   9.758  0.0041 -0.0520 -0.1846
  160loPI   C1A 2551  10.755   1.501   9.418  0.0417  0.3052 -0.0823
  160loPI   C2A 2552  10.515   1.511   9.100 -0.0586 -0.4139  0.0195
  160loPI   C3A 2553  10.731   1.547   8.767 -0.1614  0.2015 -0.0536
  160loPI   C4A 2554  10.716   1.673   8.337  0.1464 -0.0344 -0.1501
  160loPI   C5A 2555  10.654   1.782   8.074  0.0233  0.0275  0.2587
  160loPI   C6A 2556  10.420   1.752   7.723  0.0319  0.0117 -0.1508
  160loPI   C1B 2557  10.991   1.062   9.346  0.0628 -0.1565  0.0689
  160loPI   C2B 2558  10.891   1.074   8.955 -0.0179 -0.0754  0.1603
  160loPI   C3B 2559  10.889   1.148   8.504 -0.0450 -0.0529 -0.4538
  160loPI   C4B 2560  10.833   1.011   8.190 -0.0263 -0.1334  0.0049
  161loPI    C1 2561  16.248  12.754  10.561  0.1425  0.2360  0.0113
  161loPI    C2 2562  16.156  12.923  10.912 -0.1275  0.3428 -0.1081
  161loPI    C3 2563  16.388  12.597  10.901 -0.2759  0.2241  0.1838
  161loPI   PO4 2564  16.165  13.010  10.448  0.0497  0.1889 -0.1993
  161loPI   GL1 2565  16.073  12.981  10.003 -0.3732 -0.1673 -0.1936
  161loPI   GL2 2566  15.902  13.214   9.868  0.0735 -0.1835 -0.1125
  161loPI   C1A 2567  16.310  13.276   9.625 -0.1417  0.0478  0.1587
  161loPI   C2A 2568  16.353  13.279   9.169  0.0774  0.1854 -0.1079
  161loPI   C3A 2569  16.317  13.221   8.708  0.0253 -0.2558 -0.5862
  161loPI   C4A 2570  16.208  13.294   8.234 -0.0170  0.1448 -0.1329
  161loPI   C5A 2571  15.985  13.207   7.805 -0.0905 -0.2110  0.0747
  161loPI   C6A 2572  16.303  12.918   7.610  0.2424  0.3320  0.1887
  161loPI   C1B 2573  15.869  13.145   9.418 -0.0340  0.1848  0.4459
  161loPI   C2B 2574  15.752  13.252   8.982  0.0457 -0.1417  0.0172
  161loPI   C3B 2575  15.858  13.148   8.599  0.0240  0.1904  0.1266
  161loPI   C4B 2576  15.612  13.122   8.195  0.1790 -0.1436  0.1928
  162loPI    C1 2577   0.415   7.561  10.228 -0.0230 -0.0417 -0.0428
  162loPI    C2 2578   0.089   7.472  10.013 -0.0907 -0.1893  0.1185
  162loPI    C3 2579   0.077   7.451  10.412  0.0132  0.1523  0.1421
  162loPI   PO4 2580   0.539   7.689  10.025  0.1059  0.1193 -0.2155
  162loPI   GL1 2581   0.594   7.860   9.644 -0.1485 -0.2275  0.4298
  162loPI   GL2 2582   0.703   7.964   9.420  0.0023 -0.0652  0.0901
  162loPI   C1A 2583   0.243   7.967   9.298  0.0972  0.2606 -0.2741
  162loPI   C2A 2584   0.132   8.134   8.896 -0.3107  0.0710  0.0421
  162loPI   C3A 2585   0.270   8.331   8.516 -0.1137 -0.0236  0.0759
  162loPI   C4A 2586   0.335   8.354   8.024  0.0671 -0.0887  0.1242
  162loPI   C5A 2587   0.326   8.420   7.507  0.0103  0.0959 -0.5376
  162loPI   C6A 2588   0.331   8.300   7.132 -0.0850  0.0362  0.1628
  162loPI   C1B 2589   0.662   8.053   8.946 -0.2157  0.0874 -0.3761
  162loPI   C2B 2590   0.695   7.960   8.539  0.0959 -0.0441 -0.2536
  162loPI   C3B 2591   0.512   7.871   8.129  0.1639 -0.0058 -0.1572
  162loPI   C4B 2592   0.700   8.056   7.761  0.0699  0.1613  0.1179
  163loPI    C1 2593   6.966   9.570  10.566 -0.0375  0.0415  0.0203
  163loPI    C2 2594   7.084   9.187  10.572  0.0635  0.0725  0.0397
  163loPI    C3 2595   6.927   9.354  10.900 -0.0688  0.0210  0.0036
  163loPI   PO4 2596   7.212   9.682  10.426  0.2523  0.0702 -0.0529
  163loPI   GL1 2597   7.592   9.479  10.302 -0.0193  0.0022 -0.1247
  163loPI   GL2 2598   7.493   9.146  10.230  0.2207 -0.0275 -0.0401
  163loPI   C1A 2599   7.745   9.453   9.925  0.2067 -0.0308 -0.3730
  163loPI   C2A 2600   7.736   9.480   9.496 -0.2268  0.2999  0.0036
  163loPI   C3A 2601   7.731   9.353   9.027 -0.3208 -0.0119  0.0950
  163loPI   C4A 2602   7.630   9.375   8.575 -0.2206 -0.0303  0.1315
  163loPI   C5A 2603   7.499   9.646   8.255 -0.0134 -0.0204 -0.1603
  163loPI   C6A 2604   7.719   9.809   8.041 -0.0376  0.1786 -0.0498
  163loPI   C1B 2605   7.370   9.209   9.702  0.0945 -0.0620  0.1379
  163loPI   C2B 2606   7.363   9.070   9.251  0.0709 -0.2011  0.0639
  163loPI   C3B 2607   7.372   9.021   8.770 -0.4189  0.1546  0.0139
  163loPI   C4B 2608   7.303   9.059   8.355  0.2887 -0.2105  0.0176
  164loPI    C1 2609   4.917   5.911  10.426 -0.1357 -0.0043  0.1489
  164loPI    C2 2610   5.022   6.297  10.420 -0.0588 -0.0273 -0.1808
  164loPI    C3 2611   4.939   6.117  10.768  0.1324  0.2240 -0.0018
  164loPI   PO4 2612   4.848   5.766  10.160  0.1775  0.0742  0.0967
  164loPI   GL1 2613   4.612   5.788   9.802  0.0291  0.4742  0.1616
  164loPI   GL2 2614   4.265   5.703   9.710 -0.2080 -0.1684  0.0726
  164loPI   C1A 2615   4.816   6.048   9.574 -0.1505  0.1350 -0.2151
  164loPI   C2A 2616   4.975   6.152   9.204  0.1069 -0.3168 -0.0590
  164loPI   C3A 2617   5.118   5.965   8.716 -0.1696 -0.2296 -0.2778
  164loPI   C4A 2618   5.166   6.020   8.220  0.4751  0.0435  0.2483
  164loPI   C5A 2619   5.348   5.912   7.820 -0.3280 -0.1804  0.4237
  164loPI   C6A 2620   5.726   5.590   7.837 -0.2804  0.0549 -0.1900
  164loPI   C1B 2621   4.434   5.895   9.302  0.2760  0.2100  0.1313
  164loPI   C2B 2622   4.653   5.884   8.865  0.2104 -0.0394 -0.2948
  164loPI   C3B 2623   4.681   6.081   8.505  0.3698 -0.0277  0.1663
  164loPI   C4B 2624   4.771   6.397   8.161  0.0169 -0.1551  0.3210
  165loPI    C1 2625  10.372   3.403  10.238  0.0328 -0.0489 -0.0438
  165loPI    C2 2626  10.288   3.704  10.487  0.1871 -0.0657  0.0293
  165loPI    C3 2627  10.388   3.345  10.633  0.0241 -0.1475 -0.0575
  165loPI   PO4 2628  10.577   3.494  10.016  0.0709 -0.0497 -0.0627
  165loPI   GL1 2629  10.812   3.425   9.628 -0.0220 -0.0318  0.3456
  165loPI   GL2 2630  11.056   3.265   9.963  0.3354 -0.1472  0.1586
  165loPI   C1A 2631  11.000   3.579   9.328 -0.3319 -0.0949 -0.0143
  165loPI   C2A 2632  11.045   3.758   9.043 -0.0184  0.1052  0.1128
  165loPI   C3A 2633  11.067   3.940   8.677  0.1019  0.0775  0.3206
  165loPI   C4A 2634  11.158   3.879   8.324  0.2806 -0.1415  0.0506
  165loPI   C5A 2635  11.341   3.678   7.993 -0.1748  0.1199  0.0214
  165loPI   C6A 2636  11.306   3.274   7.758  0.0414  0.1458  0.0825
  165loPI   C1B 2637  11.046   2.941   9.531 -0.1201 -0.1850 -0.1613
  165loPI   C2B 2638  10.927   2.756   9.180  0.1075 -0.2013  0.1989
  165loPI   C3B 2639  10.533   2.828   8.876  0.3103  0.1097  0.2999
  165loPI   C4B 2640  10.575   3.029   8.461 -0.2356 -0.0674 -0.0597
  166loPI    C1 2641   5.304   2.374  10.705 -0.0551  0.1473 -0.1383
  166loPI    C2 2642   5.387   2.695  10.929 -0.1392  0.0401  0.0487
  166loPI    C3 2643   5.336   2.338  11.102  0.0396 -0.0921 -0.1659
  166loPI   PO4 2644   5.417   2.327  10.564  0.0265 -0.1132  0.2221
  166loPI   GL1 2645   5.463   2.252  10.155 -0.1175 -0.2221 -0.1240
  166loPI   GL2 2646   5.466   1.892  10.138 -0.2290  0.1202 -0.1058
  166loPI   C1A 2647   5.405   2.351   9.750 -0.2672  0.1348  0.1862
  166loPI   C2A 2648   5.559   2.426   9.335  0.0265 -0.0179  0.1330
  166loPI   C3A 2649   5.463   2.248   8.877  0.1601  0.1371 -0.1943
  166loPI   C4A 2650   5.565   2.130   8.460 -0.0258 -0.1709 -0.0891
  166loPI   C5A 2651   5.775   2.152   8.083  0.0152 -0.2350 -0.0026
  166loPI   C6A 2652   5.739   2.276   7.632 -0.2642  0.0852 -0.0508
  166loPI   C1B 2653   5.506   1.860   9.688 -0.0411 -0.2076 -0.2253
  166loPI   C2B 2654   5.754   1.788   9.286 -0.2260  0.3150 -0.3665
  166loPI   C3B 2655   5.840   1.951   8.920  0.2519 -0.0395 -0.1478
  166loPI   C4B 2656   5.862   1.760   8.503  0.1366  0.1022 -0.0303
  167loPI    C1 2657   9.525   2.884  10.406 -0.1301 -0.1408 -0.2240
  167loPI    C2 2658   9.375   2.730  10.743  0.2066  0.1704  0.0779
  167loPI    C3 2659   9.733   2.610  10.611  0.1326  0.1436 -0.1013
  167loPI   PO4 2660   9.333   2.951  10.299 -0.0646 -0.4098 -0.2638
  167loPI   GL1 2661   9.221   2.705   9.961  0.1079 -0.3198 -0.2414
  167loPI   GL2 2662   8.898   2.561   9.947 -0.1448  0.0261  0.1341
  167loPI   C1A 2663   9.147   2.654   9.502 -0.1256 -0.0309 -0.1663
  167loPI   C2A 2664   9.038   2.700   9.102  0.1321 -0.0188 -0.0575
  167loPI   C3A 2665   9.190   2.736   8.704 -0.2509 -0.0088  0.2970
  167loPI   C4A 2666   9.256   2.595   8.252 -0.0971  0.1553  0.2361
  167loPI   C5A 2667   9.125   2.315   7.948 -0.1924 -0.1709  0.1638
  167loPI   C6A 2668   9.399   2.056   7.728  0.0837 -0.1505 -0.2686
  167loPI   C1B 2669   8.701   2.420   9.677  0.0625 -0.0523 -0.0407
  167loPI   C2B 2670   8.734   2.283   9.277 -0.1556 -0.0836  0.1964
  167loPI   C3B 2671   8.763   2.345   8.822  0.3121  0.0563  0.1955
  167loPI   C4B 2672   8.896   2.246   8.412 -0.4159  0.0375  0.0720
  168loPI    C1 2673  13.816  11.006  10.670 -0.1013 -0.0388  0.3223
  168loPI    C2 2674  14.128  11.252  10.710 -0.0182 -0.0721 -0.0798
  168loPI    C3 2675  13.757  11.392  10.756  0.0379  0.0741 -0.0651
  168loPI   PO4 2676  13.887  10.921  10.339 -0.0998  0.3876 -0.0787
  168loPI   GL1 2677  14.051  10.877   9.929 -0.0561  0.2004 -0.1311
  168loPI   GL2 2678  13.904  10.541   9.885  0.0475 -0.1534 -0.2213
  168loPI   C1A 2679  14.319  10.583   9.579 -0.1101 -0.1377  0.0663
  168loPI   C2A 2680  14.335  10.425   9.120 -0.0529  0.2271 -0.0465
  168loPI   C3A 2681  14.393  10.514   8.707  0.1963  0.1327  0.0310
  168loPI   C4A 2682  14.300  10.593   8.281 -0.2209  0.0122 -0.0341
  168loPI   C5A 2683  14.032  10.750   8.139  0.0001 -0.2377 -0.1102
  168loPI   C6A 2684  13.797  10.974   7.960  0.2099  0.1027  0.0641
  168loPI   C1B 2685  13.863  10.351   9.465  0.1139 -0.1867  0.1350
  168loPI   C2B 2686  13.803  10.397   8.939  0.1096 -0.0899 -0.0573
  168loPI   C3B 2687  13.862  10.469   8.540  0.1780  0.3473 -0.1280
  168loPI   C4B 2688  13.726  10.346   8.156 -0.1796  0.0912 -0.3261
  169loPI    C1 2689  10.145  12.296  10.644 -0.0963  0.1624 -0.0257
  169loPI    C2 2690   9.853  12.276  10.917 -0.0638 -0.1545 -0.0102
  169loPI    C3 2691  10.230  12.194  11.022 -0.0016  0.0378 -0.0798
  169loPI   PO4 2692  10.009  12.563  10.475  0.1744  0.1499 -0.1816
  169loPI   GL1 2693   9.829  12.521  10.056 -0.3361 -0.0212 -0.0869
  169loPI   GL2 2694   9.723  12.253   9.901 -0.3572  0.2900  0.0747
  169loPI   C1A 2695   9.745  12.732   9.711  0.0489 -0.0855  0.2113
  169loPI   C2A 2696   9.954  12.841   9.358 -0.2934 -0.0578 -0.0788
  169loPI   C3A 2697  10.128  13.045   8.965  0.1021  0.0049 -0.1459
  169loPI   C4A 2698  10.099  13.462   8.652  0.0992 -0.0848 -0.1355
  169loPI   C5A 2699  10.284  13.724   8.329 -0.0480  0.0319 -0.1396
  169loPI   C6A 2700  10.362  14.030   8.041 -0.4098 -0.0432  0.0995
  169loPI   C1B 2701   9.822  12.051   9.419  0.1672 -0.3314  0.3793
  169loPI   C2B 2702  10.114  11.963   9.145  0.0426  0.0332 -0.1348
  169loPI   C3B 2703  10.179  11.989   8.679  0.2660 -0.5129 -0.1853
  169loPI   C4B 2704   9.997  11.747   8.339  0.0139 -0.0426 -0.0815
  170loPI    C1 2705   5.557   9.377  10.128  0.2065 -0.0498  0.0757
  170loPI    C2 2706   5.389   9.142  10.404 -0.1336  0.0460 -0.0450
  170loPI    C3 2707   5.570   9.481  10.514 -0.1939  0.0419  0.0686
  170loPI   PO4 2708   5.683   9.212   9.987  0.1919 -0.1010  0.2211
  170loPI   GL1 2709   5.450   9.068   9.591 -0.0749  0.0263 -0.0704
  170loPI   GL2 2710   5.101   9.003   9.491 -0.0811  0.1445 -0.0841
  170loPI   C1A 2711   5.822   8.863   9.448 -0.0446  0.0797 -0.0780
  170loPI   C2A 2712   5.829   8.787   8.964  0.0244  0.2408  0.1082
  170loPI   C3A 2713   5.843   8.675   8.480 -0.1518  0.4765 -0.1704
  170loPI   C4A 2714   6.041   8.374   8.226 -0.2319 -0.1407  0.1731
  170loPI   C5A 2715   6.296   8.068   8.145 -0.0491 -0.2375  0.0388
  170loPI   C6A 2716   6.545   7.770   7.875 -0.0200  0.2071  0.4685
  170loPI   C1B 2717   5.372   8.871   9.165  0.1941  0.0989 -0.0553
  170loPI   C2B 2718   5.346   8.778   8.697  0.1460  0.1909  0.2138
  170loPI   C3B 2719   5.323   8.815   8.251  0.0422 -0.1072  0.1904
  170loPI   C4B 2720   5.021   8.903   7.960 -0.2055  0.0256  0.0636
  171loPI    C1 2721  18.227   9.234  10.234  0.0800  0.0473  0.2766
  171loPI    C2 2722  18.421   9.069   9.926 -0.2510 -0.0099  0.0940
  171loPI    C3 2723  18.486   8.936  10.297 -0.0530 -0.1264  0.0193
  171loPI   PO4 2724  17.892   9.216  10.085  0.0704  0.1174 -0.1962
  171loPI   GL1 2725  17.780   9.110   9.781  0.4217 -0.1117 -0.1351
  171loPI   GL2 2726  18.051   9.014   9.598 -0.0564  0.0541 -0.1015
  171loPI   C1A 2727  17.619   9.175   9.358 -0.0881  0.0893  0.3223
  171loPI   C2A 2728  17.473   9.296   8.953 -0.1555 -0.0372 -0.0628
  171loPI   C3A 2729  17.499   9.417   8.581  0.0150 -0.0645 -0.1038
  171loPI   C4A 2730  17.406   9.698   8.221  0.1900  0.0521 -0.1527
  171loPI   C5A 2731  17.289   9.544   7.741 -0.1050  0.0432 -0.2080
  171loPI   C6A 2732  17.009   9.351   7.503  0.0789 -0.0314 -0.0965
  171loPI   C1B 2733  18.010   8.953   9.153  0.0461  0.1702  0.5590
  171loPI   C2B 2734  17.809   8.966   8.734  0.0803  0.2715 -0.0796
  171loPI   C3B 2735  17.938   8.768   8.381 -0.0327 -0.3004  0.2878
  171loPI   C4B 2736  18.014   8.849   7.896 -0.3119  0.0147 -0.0615
  172loPI    C1 2737  12.968  11.602  10.360  0.1309 -0.2594 -0.1170
  172loPI    C2 2738  13.286  11.574  10.601  0.1899 -0.1460 -0.1807
  172loPI    C3 2739  13.011  11.857  10.665  0.3062  0.0100 -0.3617
  172loPI   PO4 2740  13.054  11.408  10.185 -0.1985 -0.1020 -0.0006
  172loPI   GL1 2741  13.351  11.230   9.866  0.1420 -0.2919  0.3730
  172loPI   GL2 2742  13.498  10.912   9.924 -0.0197  0.2048  0.1614
  172loPI   C1A 2743  13.432  11.242   9.462  0.0349  0.0865 -0.3326
  172loPI   C2A 2744  13.380  11.378   9.094  0.1341  0.2800  0.0403
  172loPI   C3A 2745  13.384  11.444   8.624 -0.0092  0.2681  0.0985
  172loPI   C4A 2746  13.540  11.401   8.262 -0.0443  0.1538  0.3041
  172loPI   C5A 2747  13.870  11.598   8.037  0.1225 -0.1264 -0.1394
  172loPI   C6A 2748  14.007  11.430   7.652  0.2163  0.1541  0.1888
  172loPI   C1B 2749  13.657  10.790   9.518  0.2285  0.0881  0.0704
  172loPI   C2B 2750  13.995  10.777   9.179 -0.1396  0.2624 -0.0974
  172loPI   C3B 2751  13.630  10.979   8.891 -0.0897 -0.0323 -0.0704
  172loPI   C4B 2752  13.679  10.944   8.481  0.0074  0.2288 -0.0889
  173loPI    C1 2753  13.643  12.872  10.260 -0.0190  0.2634 -0.1653
  173loPI    C2 2754  13.280  12.993  10.375 -0.0302  0.1241 -0.0518
  173loPI    C3 2755  13.606  13.140  10.554 -0.0522 -0.2026  0.2692
  173loPI   PO4 2756  13.550  12.666  10.085  0.2227 -0.1574  0.2014
  173loPI   GL1 2757  13.325  12.456   9.908 -0.1439  0.0269  0.1937
  173loPI   GL2 2758  12.986  12.482   9.827  0.0143  0.0587  0.2571
  173loPI   C1A 2759  13.468  12.577   9.523 -0.1815  0.0776  0.0195
  173loPI   C2A 2760  13.389  12.703   9.052  0.1723  0.1969 -0.1809
  173loPI   C3A 2761  13.369  12.766   8.617 -0.0026  0.0370  0.0083
  173loPI   C4A 2762  13.544  13.087   8.212  0.0797  0.0410 -0.1945
  173loPI   C5A 2763  13.648  13.162   7.861 -0.0389 -0.1048 -0.0035
  173loPI   C6A 2764  13.944  13.406   7.779  0.0244 -0.0868 -0.0684
  173loPI   C1B 2765  12.991  12.605   9.422  0.0354 -0.0541  0.0998
  173loPI   C2B 2766  12.951  12.586   8.967 -0.0348  0.0056 -0.1388
  173loPI   C3B 2767  12.826  12.695   8.587  0.0559  0.3063 -0.1564
  173loPI   C4B 2768  12.647  12.781   8.238 -0.0983  0.1627 -0.0856
  174loPI    C1 2769  15.275   7.734  10.340  0.3445  0.0004 -0.0831
  174loPI    C2 2770  15.240   8.082  10.534  0.0060 -0.0595 -0.0303
  174loPI    C3 2771  15.163   7.738  10.724  0.0917 -0.1473 -0.1528
  174loPI   PO4 2772  15.592   7.693  10.322  0.0094  0.1318 -0.0160
  174loPI   GL1 2773  15.912   7.955  10.074 -0.0076  0.0498 -0.2549
  174loPI   GL2 2774  16.081   7.613  10.008  0.1481  0.3340  0.0423
  174loPI   C1A 2775  15.821   8.109   9.662 -0.0049 -0.1357 -0.2113
  174loPI   C2A 2776  15.672   8.203   9.163  0.0686 -0.2158  0.2284
  174loPI   C3A 2777  15.690   8.255   8.695 -0.1681  0.3466 -0.0480
  174loPI   C4A 2778  15.639   8.394   8.236  0.2665 -0.0428  0.0467
  174loPI   C5A 2779  15.965   8.423   8.007  0.0232  0.1721 -0.2110
  174loPI   C6A 2780  16.425   8.469   7.926  0.1694  0.1024  0.0381
  174loPI   C1B 2781  15.984   7.600   9.554  0.0984  0.1793  0.2675
  174loPI   C2B 2782  15.903   7.469   9.153  0.1504 -0.2680 -0.2982
  174loPI   C3B 2783  15.837   7.384   8.733 -0.0209 -0.1349 -0.2510
  174loPI   C4B 2784  15.981   7.471   8.328 -0.4801 -0.3774 -0.2322
  175loPI    C1 2785  15.075  11.093  10.209 -0.2098 -0.0018  0.0328
  175loPI    C2 2786  15.008  10.947  10.575 -0.0581 -0.0051  0.0600
  175loPI    C3 2787  15.331  11.173  10.506 -0.1232  0.0532 -0.0559
  175loPI   PO4 2788  14.875  11.206  10.110  0.1394 -0.1209  0.0700
  175loPI   GL1 2789  14.529  11.179   9.772 -0.2968 -0.1841 -0.2068
  175loPI   GL2 2790  14.927  11.265   9.640 -0.0137 -0.2852 -0.2179
  175loPI   C1A 2791  14.443  11.040   9.429 -0.1175 -0.0128 -0.1231
  175loPI   C2A 2792  14.522  10.966   9.066  0.1093 -0.2109 -0.1974
  175loPI   C3A 2793  14.674  10.900   8.702  0.0413 -0.2363  0.0326
  175loPI   C4A 2794  14.633  10.966   8.228  0.1549  0.2967  0.0075
  175loPI   C5A 2795  14.767  10.963   7.782  0.2144 -0.0572 -0.1289
  175loPI   C6A 2796  15.170  10.777   7.565  0.3326 -0.0655  0.0490
  175loPI   C1B 2797  14.902  11.272   9.241  0.0978 -0.1707 -0.2825
  175loPI   C2B 2798  14.881  11.362   8.848  0.0123  0.1101  0.1303
  175loPI   C3B 2799  14.778  11.315   8.492  0.2340 -0.1571  0.0180
  175loPI   C4B 2800  14.772  11.379   8.037 -0.2125 -0.3572 -0.0587
  176loPI    C1 2801   2.101  14.851  10.597  0.0186  0.1439 -0.1480
  176loPI    C2 2802   2.386  14.891  10.875  0.1879 -0.4402 -0.2245
  176loPI    C3 2803   2.050  14.692  10.960 -0.0361 -0.0829 -0.2534
  176loPI   PO4 2804   2.206  14.702  10.388 -0.1280  0.1976 -0.1443
  176loPI   GL1 2805   2.033  14.547  10.127 -0.3178  0.1112  0.1765
  176loPI   GL2 2806   1.903  14.804   9.942  0.1620  0.1446  0.1112
  176loPI   C1A 2807   2.240  14.528   9.701 -0.1809  0.1904 -0.3404
  176loPI   C2A 2808   2.403  14.616   9.236  0.3029  0.0124 -0.2678
  176loPI   C3A 2809   2.519  14.653   8.877  0.0540  0.0665 -0.1654
  176loPI   C4A 2810   2.706  14.698   8.534  0.1750 -0.0809 -0.1973
  176loPI   C5A 2811   2.754  14.877   8.111 -0.0681 -0.1342  0.2158
  176loPI   C6A 2812   2.562  15.040   7.771  0.1089 -0.0086  0.2151
  176loPI   C1B 2813   2.088  14.938   9.482 -0.2645 -0.0219  0.0864
  176loPI   C2B 2814   2.111  14.977   9.033 -0.0174 -0.0318 -0.2713
  176loPI   C3B 2815   2.156  15.080   8.606 -0.0953 -0.3945  0.2473
  176loPI   C4B 2816   2.246  15.109   8.200  0.1369 -0.2809  0.0069
  177loPI    C1 2817   2.778   7.299   9.912 -0.0115 -0.1943  0.2629
  177loPI    C2 2818   2.563   7.176  10.226 -0.1620 -0.0134  0.2325
  177loPI    C3 2819   2.559   7.562  10.120 -0.2777 -0.1063 -0.1162
  177loPI   PO4 2820   2.945   6.942   9.869 -0.0025  0.3677 -0.1295
  177loPI   GL1 2821   3.003   6.865   9.410 -0.2603  0.0844 -0.2768
  177loPI   GL2 2822   2.779   6.659   9.394  0.0503  0.1783 -0.3593
  177loPI   C1A 2823   3.059   6.735   9.030  0.1243  0.1829  0.1327
  177loPI   C2A 2824   3.209   6.741   8.636 -0.3380 -0.0256  0.1105
  177loPI   C3A 2825   3.398   6.619   8.320 -0.0011 -0.1197 -0.0904
  177loPI   C4A 2826   3.303   6.703   7.882 -0.1824 -0.1513 -0.1896
  177loPI   C5A 2827   3.176   6.411   7.504  0.1291 -0.3792 -0.0873
  177loPI   C6A 2828   2.871   6.362   7.203  0.0540  0.1762 -0.0587
  177loPI   C1B 2829   2.644   7.024   9.094 -0.0896 -0.0966  0.1434
  177loPI   C2B 2830   2.695   7.014   8.608 -0.2476  0.3872  0.1810
  177loPI   C3B 2831   2.542   7.098   8.239  0.3737 -0.0092  0.0094
  177loPI   C4B 2832   2.479   6.896   7.941  0.1422 -0.1092 -0.2695
  178loPI    C1 2833  11.176   3.334  10.878 -0.0330  0.0138  0.0140
  178loPI    C2 2834  11.119   2.957  10.999 -0.0639  0.0224  0.0264
  178loPI    C3 2835  10.815   3.166  10.843 -0.0434  0.0375  0.0063
  178loPI   PO4 2836  11.410   3.336  10.695 -0.0245 -0.1917  0.1208
  178loPI   GL1 2837  11.574   3.249  10.264  0.1325 -0.3022  0.0399
  178loPI   GL2 2838  11.506   2.930  10.100  0.0305 -0.1619  0.2476
  178loPI   C1A 2839  11.540   3.355   9.806 -0.0370 -0.0751 -0.2265
  178loPI   C2A 2840  11.402   3.265   9.374 -0.1313 -0.1050 -0.4661
  178loPI   C3A 2841  11.259   3.298   8.983 -0.1346 -0.0192 -0.1779
  178loPI   C4A 2842  11.137   2.989   8.633 -0.0644 -0.0052 -0.1039
  178loPI   C5A 2843  10.996   3.077   8.208 -0.1841 -0.0417  0.2082
  178loPI   C6A 2844  10.928   3.427   8.076  0.3027  0.0849  0.0414
  178loPI   C1B 2845  11.505   2.835   9.645 -0.3516 -0.1869 -0.0482
  178loPI   C2B 2846  11.437   2.866   9.110  0.2425 -0.0629  0.0913
  178loPI   C3B 2847  11.643   2.921   8.762 -0.1076  0.0019 -0.0592
  178loPI   C4B 2848  11.547   2.910   8.329  0.3484  0.1957 -0.1285
  179loPI    C1 2849   0.705  11.628  10.247 -0.0017  0.1295 -0.1184
  179loPI    C2 2850   0.378  11.461  10.407 -0.0819  0.4049  0.0098
  179loPI    C3 2851   0.725  11.453  10.606  0.0067  0.0623 -0.1512
  179loPI   PO4 2852   0.691  11.655   9.925 -0.1034  0.3581  0.0162
  179loPI   GL1 2853   0.910  11.818   9.584  0.0638 -0.2233 -0.0963
  179loPI   GL2 2854   1.023  12.092   9.529 -0.1841 -0.1107 -0.1273
  179loPI   C1A 2855   0.803  11.773   9.187  0.0192  0.0279  0.2187
  179loPI   C2A 2856   0.796  11.792   8.727 -0.1450 -0.1326  0.0110
  179loPI   C3A 2857   0.864  11.539   8.369 -0.1447  0.5509 -0.0022
  179loPI   C4A 2858   1.013  11.182   8.269 -0.2000  0.0003  0.1682
  179loPI   C5A 2859   1.109  10.993   7.861  0.1642  0.1293  0.1678
  179loPI   C6A 2860   1.264  10.728   7.500  0.1099 -0.1668 -0.1831
  179loPI   C1B 2861   0.972  12.210   8.982  0.1934 -0.1437 -0.1216
  179loPI   C2B 2862   0.824  12.288   8.520  0.0523  0.0923  0.0421
  179loPI   C3B 2863   0.920  12.332   8.043 -0.2841  0.2549 -0.1814
  179loPI   C4B 2864   0.737  12.618   7.642  0.2630  0.0027  0.1651
  180loPI    C1 2865   2.306   4.647  10.284 -0.0452  0.1838  0.2612
  180loPI    C2 2866   2.538   4.972  10.270  0.1698  0.0345  0.3105
  180loPI    C3 2867   2.197   4.961  10.061  0.2446  0.2259  0.1748
  180loPI   PO4 2868   2.548   4.439  10.215  0.2736 -0.2773  0.0433
  180loPI   GL1 2869   2.572   4.338   9.685  0.4791  0.0916  0.0591
  180loPI   GL2 2870   2.483   4.670   9.714 -0.1416 -0.0550  0.0789
  180loPI   C1A 2871   2.574   4.136   9.270  0.0137 -0.1069  0.0570
  180loPI   C2A 2872   2.688   3.968   8.929  0.2100  0.0839  0.0188
  180loPI   C3A 2873   2.620   3.783   8.515  0.0499 -0.0772  0.2253
  180loPI   C4A 2874   2.694   3.474   8.166 -0.2828 -0.0081 -0.1268
  180loPI   C5A 2875   2.521   3.218   7.927  0.0567  0.0022 -0.1081
  180loPI   C6A 2876   2.225   2.971   7.898  0.1059  0.1125  0.3506
  180loPI   C1B 2877   2.578   4.812   9.330 -0.0099 -0.3313  0.0726
  180loPI   C2B 2878   2.686   4.850   8.900  0.1584  0.1822  0.2017
  180loPI   C3B 2879   2.682   4.960   8.448 -0.0980  0.1985 -0.0288
  180loPI   C4B 2880   2.470   5.043   8.093 -0.1228  0.2174 -0.3297
  181loPI    C1 2881   5.595   8.365  10.040  0.0716 -0.0205 -0.0976
  181loPI    C2 2882   5.648   8.675  10.287  0.2177 -0.0474 -0.0939
  181loPI    C3 2883   5.713   8.719   9.895 -0.1391  0.0303 -0.1484
  181loPI   PO4 2884   5.360   8.338  10.012  0.1098 -0.1408 -0.4846
  181loPI   GL1 2885   5.299   8.564   9.602 -0.1318 -0.1033  0.2812
  181loPI   GL2 2886   5.052   8.514   9.462  0.0573  0.1711  0.1013
  181loPI   C1A 2887   5.539   8.503   9.345 -0.1417 -0.0179 -0.3053
  181loPI   C2A 2888   5.528   8.353   8.934 -0.0672 -0.1688  0.4386
  181loPI   C3A 2889   5.592   8.270   8.555  0.1581  0.1522  0.0615
  181loPI   C4A 2890   5.569   8.334   8.141 -0.0456 -0.0919 -0.2212
  181loPI   C5A 2891   5.598   8.655   7.859 -0.0597  0.0134  0.2219
  181loPI   C6A 2892   5.446   9.066   7.825  0.0501  0.0205 -0.0955
  181loPI   C1B 2893   5.029   8.483   9.051  0.0085 -0.3768  0.0571
  181loPI   C2B 2894   4.689   8.400   8.801 -0.0651 -0.0759 -0.2599
  181loPI   C3B 2895   4.881   8.610   8.452 -0.0914 -0.0562 -0.0260
  181loPI   C4B 2896   5.019   8.446   8.156 -0.2882 -0.2900  0.0604
  182loPI    C1 2897  13.292   6.227  10.567  0.0541  0.0378  0.0569
  182loPI    C2 2898  13.503   6.256  10.905  0.0849  0.0163  0.0396
  182loPI    C3 2899  13.133   6.407  10.887  0.1068  0.0733  0.0632
  182loPI   PO4 2900  13.549   6.181  10.418  0.0748 -0.0904  0.1803
  182loPI   GL1 2901  13.648   6.100   9.996  0.1613 -0.2115  0.0590
  182loPI   GL2 2902  13.832   6.281  10.029  0.1501 -0.2843  0.0950
  182loPI   C1A 2903  13.589   5.935   9.598  0.2884 -0.0102  0.0839
  182loPI   C2A 2904  13.768   5.817   9.265 -0.2150  0.1488 -0.1951
  182loPI   C3A 2905  13.772   5.862   8.803  0.4725 -0.0222  0.2300
  182loPI   C4A 2906  14.001   5.952   8.413  0.1636 -0.0652  0.1935
  182loPI   C5A 2907  14.323   6.099   8.092  0.3699 -0.0959 -0.0734
  182loPI   C6A 2908  14.753   5.917   7.983  0.2632  0.0577 -0.1088
  182loPI   C1B 2909  13.812   6.381   9.542 -0.1073 -0.0207  0.0768
  182loPI   C2B 2910  13.827   6.319   9.118  0.0469  0.0279 -0.1830
  182loPI   C3B 2911  13.757   6.491   8.712  0.2865  0.2910  0.0761
  182loPI   C4B 2912  13.844   6.443   8.323 -0.2702 -0.3078 -0.1710
  183loPI    C1 2913   8.343   2.182  10.498 -0.1412  0.1330  0.0508
  183loPI    C2 2914   8.585   2.102  10.807 -0.0320  0.0200 -0.0631
  183loPI    C3 2915   8.361   2.434  10.808  0.3210  0.2635 -0.0751
  183loPI   PO4 2916   8.559   2.076  10.252  0.3942 -0.2147 -0.1785
  183loPI   GL1 2917   8.979   2.085  10.029 -0.0747  0.1528 -0.1185
  183loPI   GL2 2918   8.793   1.930   9.807  0.1167 -0.0637  0.1790
  183loPI   C1A 2919   9.224   2.155   9.720  0.1655  0.3331  0.0295
  183loPI   C2A 2920   9.250   2.119   9.255  0.0201  0.2054 -0.3001
  183loPI   C3A 2921   9.278   2.192   8.840 -0.1795  0.1827  0.1574
  183loPI   C4A 2922   9.368   2.101   8.426  0.0004 -0.1833 -0.0195
  183loPI   C5A 2923   9.712   2.105   8.179  0.0436 -0.0913  0.0172
  183loPI   C6A 2924  10.027   2.008   7.806  0.0103 -0.1985 -0.2035
  183loPI   C1B 2925   8.859   1.831   9.425  0.2244 -0.0891  0.0885
  183loPI   C2B 2926   9.020   1.770   8.954  0.0372 -0.1341  0.1375
  183loPI   C3B 2927   9.142   1.703   8.620 -0.0966 -0.1008 -0.0125
  183loPI   C4B 2928   9.161   1.695   8.145 -0.1136 -0.0026  0.0100
  184loPI    C1 2929  13.762  15.586  10.635  0.1083  0.0371 -0.0576
  184loPI    C2 2930  13.868  15.799  10.957 -0.0480 -0.0633  0.0623
  184loPI    C3 2931  14.117  15.523  10.808  0.1469  0.1859 -0.0818
  184loPI   PO4 2932  13.696  15.722  10.459  0.1091 -0.0321 -0.1410
  184loPI   GL1 2933  13.821  15.737  10.127  0.2024 -0.0044 -0.1286
  184loPI   GL2 2934  13.773  15.399   9.969 -0.4208 -0.0284 -0.0166
  184loPI   C1A 2935  13.923  15.829   9.607  0.0084 -0.1225 -0.1842
  184loPI   C2A 2936  13.933  15.752   9.229 -0.4091 -0.2513  0.1720
  184loPI   C3A 2937  13.851  15.824   8.718 -0.1195  0.4015  0.0004
  184loPI   C4A 2938  13.997  15.814   8.252 -0.1678  0.2313  0.0411
  184loPI   C5A 2939  13.860  15.764   7.854  0.1709  0.2269 -0.0380
  184loPI   C6A 2940  13.566  15.944   7.531 -0.2218  0.2056 -0.0837
  184loPI   C1B 2941  13.840  15.285   9.569  0.1367 -0.0096  0.0027
  184loPI   C2B 2942  13.606  15.306   9.228 -0.1902  0.0247 -0.0862
  184loPI   C3B 2943  13.367  15.048   8.869 -0.1574 -0.0157  0.0379
  184loPI   C4B 2944  13.098  15.063   8.483  0.0404  0.1233 -0.0658
  185loPI    C1 2945   1.795  17.965  10.303  0.1499 -0.0025  0.0393
  185loPI    C2 2946   1.436  17.871  10.154  0.0291  0.0928  0.2647
  185loPI    C3 2947   1.478  17.943  10.545  0.2661  0.2282  0.2167
  185loPI   PO4 2948   1.989  17.870  10.074 -0.3313  0.0503  0.0398
  185loPI   GL1 2949   2.056  18.012   9.612 -0.2415  0.1155 -0.3827
  185loPI   GL2 2950   1.823  17.755   9.600  0.0391 -0.2409  0.1941
  185loPI   C1A 2951   1.960  18.139   9.225  0.0632  0.1276  0.0106
  185loPI   C2A 2952   2.085  18.003   8.798 -0.1596 -0.0230 -0.0614
  185loPI   C3A 2953   2.105  17.991   8.409  0.0669 -0.1669  0.2862
  185loPI   C4A 2954   2.235  18.106   8.036 -0.1986 -0.3906 -0.0973
  185loPI   C5A 2955   2.353  18.303   7.619 -0.1133  0.0513  0.1940
  185loPI   C6A 2956   2.636  18.665   7.403  0.0678 -0.1400 -0.4577
  185loPI   C1B 2957   1.874  17.650   9.114 -0.2279 -0.1825  0.1991
  185loPI   C2B 2958   1.778  17.615   8.843 -0.0319 -0.0236 -0.2375
  185loPI   C3B 2959   1.927  17.543   8.451 -0.2284 -0.0654  0.1521
  185loPI   C4B 2960   1.756  17.819   8.036 -0.0715 -0.1401  0.0662
  186loPI    C1 2961  15.658   6.553  10.111  0.2097  0.2264 -0.1062
  186loPI    C2 2962  15.491   6.861  10.305  0.0417  0.0398  0.0500
  186loPI    C3 2963  15.673   6.571  10.511  0.3132  0.0980 -0.1041
  186loPI   PO4 2964  15.791   6.678   9.923  0.4636  0.0969  0.0157
  186loPI   GL1 2965  15.733   6.742   9.453 -0.2108 -0.1876 -0.0912
  186loPI   GL2 2966  15.733   7.070   9.508  0.3201 -0.2094 -0.1007
  186loPI   C1A 2967  15.760   6.956   9.070 -0.2393  0.5015  0.0888
  186loPI   C2A 2968  15.656   6.906   8.675 -0.2605 -0.0323  0.2083
  186loPI   C3A 2969  15.702   7.014   8.192  0.1902 -0.1599  0.1705
  186loPI   C4A 2970  15.450   7.025   7.802 -0.0164  0.1283 -0.2160
  186loPI   C5A 2971  15.348   6.786   7.567 -0.0098  0.1915 -0.1894
  186loPI   C6A 2972  15.580   6.660   7.197 -0.1186 -0.1619 -0.0379
  186loPI   C1B 2973  15.434   7.292   9.243  0.3158 -0.4350  0.1851
  186loPI   C2B 2974  15.365   7.217   8.904  0.0696 -0.1834 -0.1843
  186loPI   C3B 2975  15.450   7.369   8.455 -0.0064 -0.2124  0.4753
  186loPI   C4B 2976  15.424   7.485   8.035  0.1220 -0.0999  0.0040
  187loPI    C1 2977  13.992  10.281  10.367 -0.1255 -0.1961  0.1526
  187loPI    C2 2978  13.944  10.512  10.690  0.0061  0.2311 -0.1255
  187loPI    C3 2979  14.302  10.486  10.514 -0.0841  0.0706 -0.2889
  187loPI   PO4 2980  13.863  10.055  10.373 -0.4534 -0.0113  0.1080
  187loPI   GL1 2981  13.659   9.763  10.078  0.0927 -0.1539  0.1323
  187loPI   GL2 2982  13.708  10.081   9.919 -0.1778  0.0598  0.1199
  187loPI   C1A 2983  13.400   9.566   9.855 -0.2760  0.0321  0.1536
  187loPI   C2A 2984  13.280   9.505   9.478  0.1602 -0.0457 -0.1394
  187loPI   C3A 2985  13.314   9.499   9.018 -0.1309  0.1371  0.2429
  187loPI   C4A 2986  13.187   9.580   8.617  0.1690 -0.3200  0.3981
  187loPI   C5A 2987  12.978   9.600   8.184 -0.0184 -0.0226 -0.3323
  187loPI   C6A 2988  12.681   9.859   8.133 -0.1881 -0.1521 -0.0391
  187loPI   C1B 2989  13.731   9.796   9.531  0.0292 -0.0293 -0.1039
  187loPI   C2B 2990  13.703   9.886   9.064  0.2136  0.1908  0.0064
  187loPI   C3B 2991  13.588  10.065   8.649 -0.2421  0.1645 -0.0258
  187loPI   C4B 2992  13.378   9.971   8.228  0.2885 -0.2834 -0.1431
  188loPI    C1 2993   2.122   1.505  10.345 -0.2546 -0.2445  0.0883
  188loPI    C2 2994   2.225   1.515  10.731 -0.0520 -0.0047  0.0308
  188loPI    C3 2995   2.143   1.166  10.555  0.0940 -0.1410  0.2287
  188loPI   PO4 2996   1.930   1.607  10.355 -0.2378 -0.2553  0.0431
  188loPI   GL1 2997   1.667   1.703   9.977  0.1089 -0.0678 -0.1756
  188loPI   GL2 2998   1.937   1.641   9.810  0.1695  0.2172  0.0827
  188loPI   C1A 2999   1.668   2.045   9.633  0.3657 -0.0764  0.0884
  188loPI   C2A 3000   1.733   2.219   9.213 -0.1302  0.1691  0.1088
  188loPI   C3A 3001   1.528   2.185   8.744 -0.0824 -0.1987  0.0058
  188loPI   C4A 3002   1.528   2.215   8.365  0.1819 -0.1546  0.0580
  188loPI   C5A 3003   1.359   2.320   7.934 -0.1105  0.1659  0.3059
  188loPI   C6A 3004   1.499   2.440   7.528 -0.3434  0.3033 -0.0870
  188loPI   C1B 3005   1.668   1.603   9.422  0.1462  0.1567  0.0495
  188loPI   C2B 3006   1.578   1.640   9.018 -0.5128 -0.0447  0.1865
  188loPI   C3B 3007   1.373   1.695   8.525 -0.0811  0.5300  0.2421
  188loPI   C4B 3008   1.229   1.796   8.131  0.1337  0.1707  0.0192
  189loPI    C1 3009   7.189  13.515  10.474 -0.2498  0.1227 -0.0558
  189loPI    C2 3010   7.540  13.625  10.631 -0.1399 -0.0795 -0.1542
  189loPI    C3 3011   7.254  13.898  10.568 -0.0459  0.0665  0.0384
  189loPI   PO4 3012   7.189  13.395  10.287  0.0264 -0.1560 -0.0286
  189loPI   GL1 3013   6.944  13.259   9.905 -0.2373 -0.0641  0.1506
  189loPI   GL2 3014   7.155  13.051   9.728 -0.2022 -0.0287  0.3191
  189loPI   C1A 3015   6.877  13.521   9.564  0.1198  0.1249 -0.1411
  189loPI   C2A 3016   6.819  13.491   9.089  0.0455 -0.4514 -0.1159
  189loPI   C3A 3017   6.946  13.497   8.643  0.0856  0.1510  0.3287
  189loPI   C4A 3018   7.103  13.606   8.201 -0.1170 -0.0547  0.0616
  189loPI   C5A 3019   7.090  13.309   7.900  0.1215 -0.1509 -0.0822
  189loPI   C6A 3020   6.748  13.314   7.589  0.0162 -0.1114  0.1788
  189loPI   C1B 3021   7.179  13.145   9.312 -0.2136  0.1710  0.2572
  189loPI   C2B 3022   7.330  13.370   8.973 -0.2817  0.1446  0.1433
  189loPI   C3B 3023   7.436  13.440   8.643 -0.1687 -0.1526 -0.0669
  189loPI   C4B 3024   7.573  13.553   8.207  0.4120 -0.0220 -0.0087
  190loPI    C1 3025  17.599  17.795  10.329 -0.1641  0.1247 -0.0565
  190loPI    C2 3026  17.620  17.582  10.667  0.2418 -0.0521 -0.1866
  190loPI    C3 3027  17.751  17.960  10.660 -0.1978  0.1098 -0.0337
  190loPI   PO4 3028  17.540  17.571  10.143  0.2725 -0.1603 -0.0073
  190loPI   GL1 3029  17.741  17.418   9.721  0.3979 -0.1182 -0.2599
  190loPI   GL2 3030  17.830  17.234   9.906  0.1594  0.1075  0.1124
  190loPI   C1A 3031  17.624  17.365   9.330  0.1647 -0.2908 -0.2798
  190loPI   C2A 3032  17.622  17.484   8.953 -0.4629  0.1406  0.1386
  190loPI   C3A 3033  17.668  17.612   8.578  0.0624 -0.0146  0.0037
  190loPI   C4A 3034  17.877  17.472   8.173 -0.2131 -0.0450  0.0347
  190loPI   C5A 3035  17.814  17.185   7.819 -0.4948  0.0145  0.0924
  190loPI   C6A 3036  18.049  17.110   7.455 -0.0775 -0.3396  0.3215
  190loPI   C1B 3037  18.146  17.332   9.449 -0.2835 -0.0787  0.0677
  190loPI   C2B 3038  18.153  17.480   8.973 -0.0604  0.1569  0.1117
  190loPI   C3B 3039  18.290  17.439   8.442  0.2044 -0.1281  0.1208
  190loPI   C4B 3040  18.277  17.755   8.189  0.0328 -0.1866  0.0285
  191loPI    C1 3041  16.302  16.658  10.880  0.1221  0.0885 -0.2212
  191loPI    C2 3042  16.576  16.913  11.019  0.1096 -0.1243  0.2103
  191loPI    C3 3043  16.213  17.047  10.917  0.2549  0.1013 -0.0264
  191loPI   PO4 3044  16.458  16.527  10.687  0.1198 -0.1106  0.3869
  191loPI   GL1 3045  16.355  16.490  10.254  0.2678  0.2520  0.0536
  191loPI   GL2 3046  16.553  16.729  10.094  0.2995 -0.2928  0.0611
  191loPI   C1A 3047  16.242  16.542   9.809  0.4998 -0.0244 -0.0272
  191loPI   C2A 3048  16.163  16.573   9.399 -0.0205 -0.0324 -0.1276
  191loPI   C3A 3049  16.177  16.479   8.980  0.0856 -0.2286  0.2170
  191loPI   C4A 3050  16.127  16.306   8.599  0.0938 -0.0971  0.2645
  191loPI   C5A 3051  16.069  16.184   8.161  0.2568 -0.1292 -0.0029
  191loPI   C6A 3052  15.860  16.433   7.834 -0.0380  0.1982 -0.1754
  191loPI   C1B 3053  16.727  16.559   9.704  0.0729 -0.1602 -0.2492
  191loPI   C2B 3054  16.711  16.549   9.248  0.1560  0.2772 -0.1791
  191loPI   C3B 3055  16.683  16.540   8.889 -0.1793  0.2475 -0.4473
  191loPI   C4B 3056  16.629  16.424   8.555  0.3156 -0.0506 -0.0718
  192loPI    C1 3057  15.943  16.557  10.588 -0.2682 -0.0093  0.0764
  192loPI    C2 3058  15.753  16.650  10.928  0.1620 -0.0056  0.3225
  192loPI    C3 3059  15.662  16.312  10.735 -0.3035  0.1432  0.2688
  192loPI   PO4 3060  15.987  16.776  10.459  0.2886 -0.2991 -0.0435
  192loPI   GL1 3061  15.986  16.903  10.049 -0.1664 -0.0296 -0.0566
  192loPI   GL2 3062  16.065  17.335   9.953 -0.1995  0.0317  0.0565
  192loPI   C1A 3063  15.918  16.936   9.584 -0.1269 -0.1660  0.1705
  192loPI   C2A 3064  15.843  16.891   9.094 -0.0311 -0.2766  0.2667
  192loPI   C3A 3065  15.792  16.790   8.662 -0.3782 -0.1483  0.0141
  192loPI   C4A 3066  15.923  16.650   8.276  0.0907 -0.0765 -0.3640
  192loPI   C5A 3067  16.361  16.598   8.042  0.0665  0.1484  0.0233
  192loPI   C6A 3068  16.756  16.773   8.143 -0.0413  0.0350 -0.1479
  192loPI   C1B 3069  16.141  17.474   9.517 -0.0515 -0.2752 -0.0560
  192loPI   C2B 3070  16.076  17.399   9.121 -0.3003 -0.0781 -0.1822
  192loPI   C3B 3071  16.014  17.245   8.742  0.0156 -0.0853 -0.0692
  192loPI   C4B 3072  15.919  17.245   8.396 -0.1162 -0.2923  0.0334
  193loPI    C1 3073   4.666   1.625  10.646  0.1633 -0.1773 -0.0124
  193loPI    C2 3074   4.648   1.462  11.011  0.0658 -0.1830 -0.0194
  193loPI    C3 3075   4.993   1.459  10.807  0.1675 -0.0168  0.1468
  193loPI   PO4 3076   4.532   1.468  10.519 -0.0798  0.2377 -0.1581
  193loPI   GL1 3077   4.497   1.494  10.106 -0.1159 -0.1090 -0.3826
  193loPI   GL2 3078   4.430   1.179  10.115 -0.0020  0.0757 -0.0776
  193loPI   C1A 3079   4.603   1.630   9.751 -0.1753 -0.4112  0.0143
  193loPI   C2A 3080   4.725   1.576   9.377 -0.0938 -0.1752  0.1807
  193loPI   C3A 3081   4.825   1.547   8.849 -0.1508 -0.2431  0.3123
  193loPI   C4A 3082   4.788   1.302   8.541  0.0405  0.3228  0.0859
  193loPI   C5A 3083   4.702   1.309   8.093  0.0656 -0.0284  0.2882
  193loPI   C6A 3084   4.579   1.683   7.824  0.0408 -0.0495 -0.1612
  193loPI   C1B 3085   4.410   1.185   9.648  0.2985 -0.0559  0.0082
  193loPI   C2B 3086   4.447   1.171   9.186  0.1163 -0.1309  0.0523
  193loPI   C3B 3087   4.399   1.117   8.766 -0.1478  0.0219  0.2421
  193loPI   C4B 3088   4.360   1.046   8.403 -0.0216  0.3488  0.2496
  194loPI    C1 3089  13.326  16.787  10.360  0.1764 -0.0699 -0.0754
  194loPI    C2 3090  13.499  16.607  10.048  0.1433 -0.0611 -0.0990
  194loPI    C3 3091  13.651  16.560  10.415  0.1675 -0.0919 -0.1130
  194loPI   PO4 3092  13.201  16.865  10.291  0.1065 -0.1537 -0.0662
  194loPI   GL1 3093  12.983  17.045   9.884 -0.0159 -0.1315 -0.1252
  194loPI   GL2 3094  12.781  16.822   9.851 -0.0407  0.1110 -0.1169
  194loPI   C1A 3095  12.937  17.006   9.450 -0.1329 -0.2563  0.1340
  194loPI   C2A 3096  13.029  17.092   9.028  0.0855 -0.2368  0.0685
  194loPI   C3A 3097  13.030  17.199   8.630  0.1559  0.2754  0.1339
  194loPI   C4A 3098  12.800  17.324   8.164 -0.3303  0.2243  0.2468
  194loPI   C5A 3099  12.475  17.509   7.891 -0.0401 -0.1801  0.1301
  194loPI   C6A 3100  12.010  17.610   7.702  0.1983  0.1975 -0.1371
  194loPI   C1B 3101  12.842  16.553   9.434 -0.2858  0.2094  0.1086
  194loPI   C2B 3102  13.155  16.649   9.177 -0.2469  0.1673  0.1661
  194loPI   C3B 3103  13.464  16.912   8.907 -0.0407  0.2550 -0.3306
  194loPI   C4B 3104  13.510  17.012   8.504  0.0719 -0.1198 -0.1199
  195loPI    C1 3105   8.415  12.757  10.314 -0.1100 -0.3428 -0.0417
  195loPI    C2 3106   8.353  12.911  10.678  0.1225  0.1553 -0.2041
  195loPI    C3 3107   8.043  12.791  10.457 -0.0289 -0.0353  0.1044
  195loPI   PO4 3108   8.503  12.472  10.396 -0.0271  0.3332 -0.4335
  195loPI   GL1 3109   8.645  12.333  10.072  0.0106  0.0041 -0.0460
  195loPI   GL2 3110   8.712  11.961  10.113  0.2083 -0.2775  0.3724
  195loPI   C1A 3111   8.772  12.298   9.722  0.0084  0.0531  0.0864
  195loPI   C2A 3112   8.925  12.050   9.336  0.2846  0.2797 -0.0456
  195loPI   C3A 3113   8.988  11.764   9.041  0.3465 -0.1409  0.0027
  195loPI   C4A 3114   9.192  11.712   8.651  0.1744 -0.0393 -0.0452
  195loPI   C5A 3115   9.434  11.753   8.392 -0.0109 -0.0587  0.1655
  195loPI   C6A 3116   9.313  11.536   7.928 -0.2380  0.0304 -0.0320
  195loPI   C1B 3117   8.449  11.925   9.681 -0.1253  0.2309  0.1416
  195loPI   C2B 3118   8.418  11.718   9.242  0.1015  0.0987  0.0479
  195loPI   C3B 3119   8.526  11.708   8.781 -0.1435  0.1365  0.1614
  195loPI   C4B 3120   8.668  11.774   8.402  0.2136 -0.2287 -0.2233
  196loPI    C1 3121   5.312  14.812  10.336  0.1151  0.0171 -0.3663
  196loPI    C2 3122   5.641  14.669  10.514  0.0105  0.1011 -0.1009
  196loPI    C3 3123   5.306  14.725  10.726 -0.1409  0.1294 -0.3433
  196loPI   PO4 3124   5.273  14.634  10.067 -0.0434  0.4063  0.1541
  196loPI   GL1 3125   5.016  14.392   9.771  0.1232  0.0965  0.2458
  196loPI   GL2 3126   5.114  14.658   9.616 -0.1331  0.1797  0.3575
  196loPI   C1A 3127   4.851  14.150   9.466 -0.0803 -0.0794 -0.2701
  196loPI   C2A 3128   5.025  14.000   9.033 -0.0713 -0.2085 -0.0268
  196loPI   C3A 3129   5.272  13.783   8.810 -0.0778  0.0943  0.3465
  196loPI   C4A 3130   5.446  13.562   8.392 -0.0727 -0.2262  0.0531
  196loPI   C5A 3131   5.467  13.283   7.989 -0.0787  0.1248  0.0684
  196loPI   C6A 3132   5.441  12.944   7.665 -0.0749  0.1825 -0.0920
  196loPI   C1B 3133   5.232  14.867   9.302 -0.3160 -0.3180 -0.2287
  196loPI   C2B 3134   5.344  14.871   8.793  0.2522  0.0788  0.0190
  196loPI   C3B 3135   5.138  14.888   8.473 -0.1409 -0.1345  0.0840
  196loPI   C4B 3136   5.301  14.802   8.092  0.0584 -0.1185 -0.2494
  197loPI    C1 3137  18.166   8.625  10.080 -0.1219  0.1073 -0.1478
  197loPI    C2 3138  18.174   8.229  10.021 -0.1983  0.0915 -0.0553
  197loPI    C3 3139  18.505   8.446   9.965 -0.1362  0.0034 -0.0318
  197loPI   PO4 3140  17.979   8.705   9.968 -0.1481  0.2943  0.3001
  197loPI   GL1 3141  17.519   8.608   9.707  0.1804 -0.1885 -0.0121
  197loPI   GL2 3142  17.882   8.425   9.533 -0.3868  0.1133 -0.0577
  197loPI   C1A 3143  17.232   8.752   9.360  0.0211 -0.0578  0.2925
  197loPI   C2A 3144  16.924   8.913   9.063 -0.1666  0.2056 -0.0168
  197loPI   C3A 3145  16.802   8.895   8.687  0.1610  0.1507 -0.6750
  197loPI   C4A 3146  16.719   9.072   8.349 -0.0248 -0.1505  0.0865
  197loPI   C5A 3147  16.733   9.387   7.963 -0.1633 -0.0356  0.0153
  197loPI   C6A 3148  16.697   9.861   7.900  0.0761  0.2705 -0.0193
  197loPI   C1B 3149  17.687   8.608   9.252 -0.0158  0.0316 -0.0655
  197loPI   C2B 3150  17.372   8.793   8.867  0.0614 -0.0172  0.0385
  197loPI   C3B 3151  17.303   8.957   8.532  0.0435 -0.3484  0.3411
  197loPI   C4B 3152  17.185   9.161   8.102 -0.2323 -0.2331 -0.1361
  198loPI    C1 3153   6.351   5.543  10.154  0.0924  0.2271  0.0012
  198loPI    C2 3154   6.286   5.641  10.537  0.2199  0.0684  0.0646
  198loPI    C3 3155   6.197   5.273  10.406  0.0798  0.1539 -0.0845
  198loPI   PO4 3156   6.524   5.875  10.068 -0.0523 -0.1497 -0.3664
  198loPI   GL1 3157   6.645   6.134   9.676 -0.1856 -0.1159  0.1654
  198loPI   GL2 3158   6.667   6.462   9.591  0.0765  0.2115 -0.1421
  198loPI   C1A 3159   6.415   5.998   9.395 -0.1804 -0.0965 -0.0663
  198loPI   C2A 3160   6.418   6.018   8.968 -0.1129  0.0921  0.0795
  198loPI   C3A 3161   6.457   6.040   8.456  0.0527  0.2084 -0.0142
  198loPI   C4A 3162   6.228   6.071   8.091  0.0022  0.0143  0.2411
  198loPI   C5A 3163   6.233   5.915   7.714  0.2128  0.2272 -0.1355
  198loPI   C6A 3164   5.984   5.757   7.346 -0.0071 -0.0485  0.0113
  198loPI   C1B 3165   6.709   6.460   9.059 -0.0756  0.0141  0.0521
  198loPI   C2B 3166   6.733   6.457   8.675 -0.1805  0.0629  0.1030
  198loPI   C3B 3167   6.639   6.520   8.201 -0.0956 -0.0837  0.1924
  198loPI   C4B 3168   6.438   6.383   7.787 -0.0543  0.1297  0.2561
  199loPI    C1 3169   0.377   5.768  10.230 -0.0439  0.1263  0.2732
  199loPI    C2 3170   0.476   5.529  10.534  0.1578 -0.0942  0.0384
  199loPI    C3 3171   0.258   5.857  10.601  0.2267 -0.1224  0.4233
  199loPI   PO4 3172   0.317   5.577  10.021  0.1274  0.1834  0.1407
  199loPI   GL1 3173   0.203   5.627   9.495  0.0122  0.0077 -0.4429
  199loPI   GL2 3174   0.309   5.359   9.415 -0.0579  0.0716 -0.2540
  199loPI   C1A 3175   0.613   5.820   9.349  0.0725 -0.1267 -0.1412
  199loPI   C2A 3176   0.807   6.082   9.005  0.1234  0.1698 -0.2669
  199loPI   C3A 3177   0.818   6.129   8.562  0.0279  0.1671  0.0957
  199loPI   C4A 3178   0.732   6.134   8.082  0.0985 -0.1024  0.1262
  199loPI   C5A 3179   0.651   6.127   7.666  0.1222 -0.1977  0.0976
  199loPI   C6A 3180   1.070   6.160   7.291 -0.1469  0.1696 -0.0520
  199loPI   C1B 3181   0.113   5.344   9.086 -0.0755 -0.1653 -0.0399
  199loPI   C2B 3182  -0.147   5.554   8.946 -0.4384 -0.2053  0.3118
  199loPI   C3B 3183  -0.293   5.524   8.593 -0.0631  0.1302  0.2019
  199loPI   C4B 3184  -0.194   5.554   8.140  0.0537 -0.1596 -0.0667
  200loPI    C1 3185   3.364  13.650  10.371  0.0878  0.0516  0.1516
  200loPI    C2 3186   3.193  13.649  10.732 -0.1834  0.0353  0.0255
  200loPI    C3 3187   3.359  13.314  10.588  0.1799  0.1131  0.2499
  200loPI   PO4 3188   3.277  13.780  10.163 -0.2727  0.0459 -0.1767
  200loPI   GL1 3189   3.414  13.717   9.870  0.0943 -0.0801  0.4179
  200loPI   GL2 3190   3.632  13.961   9.657  0.0434  0.3945  0.0943
  200loPI   C1A 3191   3.272  13.446   9.457 -0.1075  0.1457 -0.1114
  200loPI   C2A 3192   3.197  13.421   9.083  0.0733 -0.2684  0.3914
  200loPI   C3A 3193   3.337  13.543   8.661  0.0322 -0.1961  0.2906
  200loPI   C4A 3194   3.271  13.613   8.185  0.2233  0.0445 -0.0433
  200loPI   C5A 3195   3.286  13.813   7.736 -0.1798  0.3791 -0.2460
  200loPI   C6A 3196   3.304  13.900   7.251 -0.0032  0.2127 -0.0459
  200loPI   C1B 3197   3.681  13.639   9.242 -0.1044 -0.3943  0.0416
  200loPI   C2B 3198   3.888  13.720   8.854  0.2357 -0.0313 -0.1289
  200loPI   C3B 3199   3.825  13.789   8.418  0.0100  0.4037 -0.0889
  200loPI   C4B 3200   3.727  13.749   8.006 -0.2697 -0.0879  0.0736
  201loPI    C1 3201  12.064   2.838  10.821 -0.0626  0.0548  0.2685
  201loPI    C2 3202  11.824   3.081  10.614  0.1245 -0.0846 -0.1234
  201loPI    C3 3203  11.667   2.801  10.852 -0.1043 -0.1892 -0.3909
  201loPI   PO4 3204  12.276   2.834  10.599  0.0080  0.1591  0.1805
  201loPI   GL1 3205  12.203   2.799  10.181 -0.3223  0.1841  0.0701
  201loPI   GL2 3206  12.277   2.590   9.944  0.0969  0.3968  0.3172
  201loPI   C1A 3207  12.007   2.994   9.799  0.2716  0.0732 -0.4954
  201loPI   C2A 3208  11.901   3.047   9.391 -0.1073 -0.1462 -0.2025
  201loPI   C3A 3209  12.098   2.977   8.935 -0.1457 -0.1698  0.2394
  201loPI   C4A 3210  12.128   2.871   8.538  0.2098  0.1379 -0.2097
  201loPI   C5A 3211  12.118   2.930   8.104 -0.1133  0.0416  0.1314
  201loPI   C6A 3212  12.289   2.664   7.692  0.0034  0.4645  0.1680
  201loPI   C1B 3213  12.275   2.480   9.472  0.0275 -0.0010  0.1460
  201loPI   C2B 3214  12.355   2.393   9.035 -0.1832  0.3713 -0.1763
  201loPI   C3B 3215  12.307   2.447   8.570  0.0050 -0.3015 -0.2635
  201loPI   C4B 3216  12.321   2.431   8.157  0.0163 -0.2804  0.0284
  202loPI    C1 3217   0.952   4.360  10.023 -0.0798  0.0359 -0.0399
  202loPI    C2 3218   1.278   4.249  10.226 -0.1110  0.1935  0.0987
  202loPI    C3 3219   0.930   4.294  10.417 -0.2280 -0.0263 -0.0578
  202loPI   PO4 3220   0.884   4.596   9.836 -0.1638  0.2333  0.1961
  202loPI   GL1 3221   0.829   4.767   9.540  0.0343 -0.0636 -0.0731
  202loPI   GL2 3222   0.750   5.098   9.528 -0.0501  0.2965  0.1790
  202loPI   C1A 3223   0.811   4.842   9.114 -0.0602  0.2585  0.2071
  202loPI   C2A 3224   0.841   4.658   8.746  0.2361  0.0624  0.1065
  202loPI   C3A 3225   0.730   4.542   8.292  0.3407  0.0720  0.0137
  202loPI   C4A 3226   0.653   4.299   7.970  0.2184  0.1795  0.0773
  202loPI   C5A 3227   0.273   4.211   7.699 -0.0598 -0.0025  0.0085
  202loPI   C6A 3228   0.082   3.862   7.589 -0.0514 -0.1344 -0.0991
  202loPI   C1B 3229   0.621   5.302   9.046 -0.0312  0.0637  0.2950
  202loPI   C2B 3230   0.735   5.568   8.653 -0.1097  0.1203  0.1140
  202loPI   C3B 3231   0.976   5.609   8.306  0.3539 -0.0175  0.1955
  202loPI   C4B 3232   0.984   5.749   7.823  0.2254  0.4130 -0.2298
  203loPI    C1 3233  14.656  12.942  10.515 -0.0890 -0.0883 -0.2533
  203loPI    C2 3234  14.837  13.291  10.591  0.1544 -0.2355 -0.1428
  203loPI    C3 3235  14.461  13.229  10.714  0.2188 -0.1266  0.1158
  203loPI   PO4 3236  14.757  12.801  10.265  0.1645 -0.1489  0.0593
  203loPI   GL1 3237  14.677  12.549   9.914  0.2634 -0.1925  0.1687
  203loPI   GL2 3238  14.416  12.848   9.825 -0.1011 -0.0630  0.0305
  203loPI   C1A 3239  14.986  12.324   9.591  0.1002 -0.0941  0.0079
  203loPI   C2A 3240  14.948  12.325   9.092  0.0168 -0.1661 -0.1675
  203loPI   C3A 3241  14.826  12.312   8.779  0.0787  0.0444  0.2217
  203loPI   C4A 3242  14.669  12.196   8.444 -0.1275 -0.0072 -0.1910
  203loPI   C5A 3243  14.613  12.105   7.910 -0.0211  0.2284  0.0104
  203loPI   C6A 3244  14.393  11.666   7.856  0.0568  0.0146 -0.0988
  203loPI   C1B 3245  14.578  12.700   9.414 -0.0168  0.1592  0.0609
  203loPI   C2B 3246  14.280  12.558   9.059 -0.3438 -0.0667 -0.2954
  203loPI   C3B 3247  14.242  12.377   8.622 -0.0081 -0.1729 -0.1331
  203loPI   C4B 3248  14.329  12.435   8.198  0.2848 -0.2419  0.0548
  204loPI    C1 3249   9.758   7.629  10.651  0.0285 -0.3625 -0.1192
  204loPI    C2 3250   9.423   7.724  10.849  0.0877  0.1347 -0.2433
  204loPI    C3 3251   9.777   7.860  10.977  0.1876  0.0155 -0.3887
  204loPI   PO4 3252   9.643   7.606  10.455 -0.1591  0.2354  0.0100
  204loPI   GL1 3253   9.668   7.563  10.090  0.3709 -0.0894  0.1901
  204loPI   GL2 3254   9.856   7.266  10.075  0.1191  0.0910  0.1873
  204loPI   C1A 3255   9.756   7.663   9.663 -0.0113 -0.0402 -0.2440
  204loPI   C2A 3256   9.836   7.580   9.233 -0.0271  0.0074  0.0141
  204loPI   C3A 3257   9.846   7.716   8.891 -0.0241  0.2586  0.0509
  204loPI   C4A 3258   9.781   7.778   8.441 -0.2324 -0.1028 -0.1790
  204loPI   C5A 3259  10.127   7.732   8.077  0.0876  0.0905  0.3036
  204loPI   C6A 3260  10.495   7.483   7.860 -0.1083 -0.0360 -0.2198
  204loPI   C1B 3261  10.014   7.208   9.567  0.0244  0.0231 -0.1450
  204loPI   C2B 3262  10.056   7.167   9.102 -0.4269 -0.0774  0.3175
  204loPI   C3B 3263  10.084   7.302   8.706 -0.0982  0.0255  0.1784
  204loPI   C4B 3264  10.211   7.568   8.536 -0.3680 -0.3136 -0.2418
  205loPI    C1 3265  17.723  14.365  10.369  0.0520 -0.0682 -0.0198
  205loPI    C2 3266  17.870  14.190  10.697  0.0949 -0.2279 -0.1225
  205loPI    C3 3267  17.983  14.561  10.600  0.1081 -0.1930  0.0241
  205loPI   PO4 3268  17.553  14.398  10.312  0.1793 -0.2183  0.1425
  205loPI   GL1 3269  17.416  14.500   9.881  0.1535  0.2658  0.4186
  205loPI   GL2 3270  17.655  14.781   9.989 -0.1888  0.0346 -0.1898
  205loPI   C1A 3271  17.240  14.190   9.574  0.1559 -0.1751 -0.0520
  205loPI   C2A 3272  17.111  13.934   9.303 -0.0718  0.0219 -0.1536
  205loPI   C3A 3273  16.921  13.848   8.869 -0.2883 -0.0511 -0.1631
  205loPI   C4A 3274  16.972  13.758   8.447 -0.1165  0.1082  0.0402
  205loPI   C5A 3275  16.627  13.550   8.133  0.0530  0.0512  0.2721
  205loPI   C6A 3276  16.227  13.756   8.008 -0.0498  0.1100 -0.0985
  205loPI   C1B 3277  17.478  14.849   9.453  0.1490 -0.1819 -0.1839
  205loPI   C2B 3278  17.366  14.758   9.011  0.2735  0.3139  0.0093
  205loPI   C3B 3279  17.508  14.561   8.703  0.1503  0.1158  0.0907
  205loPI   C4B 3280  17.877  14.349   8.769 -0.0653 -0.0472  0.3908
  206loPI    C1 3281   4.385   3.259  10.448  0.1479 -0.0911 -0.0922
  206loPI    C2 3282   4.243   3.158  10.808 -0.0694 -0.0585 -0.1670
  206loPI    C3 3283   4.597   3.342  10.777  0.0330 -0.2199  0.0160
  206loPI   PO4 3284   4.110   3.288  10.258 -0.1459 -0.2336 -0.0386
  206loPI   GL1 3285   4.121   3.189   9.758 -0.4545  0.1386  0.0297
  206loPI   GL2 3286   3.859   2.987   9.863 -0.0069 -0.0107 -0.0778
  206loPI   C1A 3287   4.291   3.061   9.353  0.3053 -0.0523  0.0557
  206loPI   C2A 3288   4.253   3.031   8.962 -0.0114  0.0227  0.1014
  206loPI   C3A 3289   4.044   2.672   8.822  0.2828  0.2238  0.0663
  206loPI   C4A 3290   4.008   2.379   8.558  0.0564  0.0251 -0.2048
  206loPI   C5A 3291   3.973   2.408   8.204  0.1396  0.1226 -0.1533
  206loPI   C6A 3292   3.650   2.600   7.894 -0.3446 -0.0552 -0.1928
  206loPI   C1B 3293   3.552   2.769   9.629 -0.0230 -0.0062 -0.2303
  206loPI   C2B 3294   3.363   2.737   9.238  0.3255 -0.1503  0.2422
  206loPI   C3B 3295   3.440   2.728   8.818 -0.1194 -0.1774 -0.2674
  206loPI   C4B 3296   3.757   2.986   8.589  0.1093  0.3664  0.0284
  207loPI    C1 3297   5.669   6.332  10.406  0.0639  0.0614 -0.0718
  207loPI    C2 3298   5.418   6.610  10.267  0.0490  0.1045  0.0402
  207loPI    C3 3299   5.647   6.689  10.585  0.3723  0.1477 -0.1983
  207loPI   PO4 3300   5.499   6.128  10.309 -0.1780 -0.1332  0.0342
  207loPI   GL1 3301   5.238   6.058   9.920  0.1826 -0.0156 -0.0169
  207loPI   GL2 3302   5.142   6.350   9.876 -0.2335  0.0020 -0.0109
  207loPI   C1A 3303   5.346   5.997   9.441 -0.4442 -0.1124  0.2478
  207loPI   C2A 3304   5.417   6.191   9.017  0.1111 -0.1951  0.0079
  207loPI   C3A 3305   5.501   6.322   8.675  0.1950  0.1343 -0.1796
  207loPI   C4A 3306   5.627   6.521   8.371  0.3220  0.0905  0.0487
  207loPI   C5A 3307   5.811   6.482   7.957  0.1362  0.1723  0.0745
  207loPI   C6A 3308   6.095   6.779   7.646 -0.1346 -0.2550  0.3199
  207loPI   C1B 3309   4.946   6.531   9.544  0.2350  0.2225  0.0379
  207loPI   C2B 3310   4.677   6.863   9.302 -0.1656 -0.1935  0.3447
  207loPI   C3B 3311   4.482   6.956   8.902  0.1905  0.2483 -0.0381
  207loPI   C4B 3312   4.464   6.709   8.479  0.3299  0.0788 -0.2156
  208loPI    C1 3313   0.606   0.884  10.375 -0.2131 -0.2217 -0.2684
  208loPI    C2 3314   0.629   0.487  10.420  0.1071 -0.1757  0.0167
  208loPI    C3 3315   0.586   0.722  10.741  0.2622  0.0396 -0.1176
  208loPI   PO4 3316   0.721   0.901  10.212  0.0541 -0.2825 -0.0213
  208loPI   GL1 3317   0.646   0.864   9.860 -0.1839  0.0168  0.2174
  208loPI   GL2 3318   0.619   0.472   9.843  0.1337  0.0160  0.1439
  208loPI   C1A 3319   0.595   0.889   9.484 -0.1414  0.0156  0.3993
  208loPI   C2A 3320   0.590   1.058   9.056  0.1314 -0.0298 -0.0526
  208loPI   C3A 3321   0.499   1.347   8.676 -0.0912  0.2591  0.1017
  208loPI   C4A 3322   0.370   1.443   8.305 -0.0137 -0.0048 -0.0939
  208loPI   C5A 3323  -0.017   1.547   8.021  0.4121  0.2620 -0.3169
  208loPI   C6A 3324  -0.296   1.251   7.859  0.0197 -0.0789  0.0182
  208loPI   C1B 3325   0.918   0.469   9.605 -0.2254 -0.0001  0.0282
  208loPI   C2B 3326   0.885   0.675   9.107 -0.2333  0.3340 -0.1401
  208loPI   C3B 3327   0.911   0.925   8.683 -0.1933 -0.0952  0.0241
  208loPI   C4B 3328   0.863   0.952   8.239 -0.3062 -0.2039  0.0503
  209loPI    C1 3329   1.334   3.794  10.478  0.2009 -0.2536  0.2083
  209loPI    C2 3330   1.601   4.083  10.551  0.1029 -0.0923 -0.0570
  209loPI    C3 3331   1.277   4.047  10.783  0.0992  0.0315 -0.0422
  209loPI   PO4 3332   1.448   3.778  10.188 -0.2522  0.1612  0.2312
  209loPI   GL1 3333   1.328   3.846   9.796 -0.1680  0.1458  0.0410
  209loPI   GL2 3334   1.053   3.706   9.644  0.0530 -0.0932 -0.0710
  209loPI   C1A 3335   1.599   3.675   9.536  0.2593  0.0670  0.0789
  209loPI   C2A 3336   1.794   3.676   9.117  0.0071 -0.0499 -0.1208
  209loPI   C3A 3337   1.836   3.648   8.613  0.0207 -0.4544  0.2696
  209loPI   C4A 3338   1.709   3.722   8.116  0.0838 -0.0301  0.1690
  209loPI   C5A 3339   1.620   3.928   7.757 -0.3402 -0.1103  0.0451
  209loPI   C6A 3340   1.983   3.845   7.576  0.1153  0.2417  0.5467
  209loPI   C1B 3341   1.245   3.775   9.291 -0.0086 -0.0258  0.2966
  209loPI   C2B 3342   1.345   3.845   8.957 -0.0403 -0.0793  0.3286
  209loPI   C3B 3343   1.552   4.155   8.708 -0.0048  0.2322  0.0750
  209loPI   C4B 3344   1.830   4.150   8.340 -0.0297  0.0559  0.0556
  210loPI    C1 3345  13.145  10.949  10.444  0.0875  0.0888  0.0831
  210loPI    C2 3346  13.344  10.708  10.695 -0.2326 -0.0653  0.1945
  210loPI    C3 3347  13.323  11.101  10.769  0.1898 -0.0153  0.0768
  210loPI   PO4 3348  13.182  10.873  10.273  0.2672  0.0005  0.0058
  210loPI   GL1 3349  12.965  10.766   9.881  0.7032 -0.1083  0.1539
  210loPI   GL2 3350  12.854  11.086   9.845  0.0040 -0.1046  0.0085
  210loPI   C1A 3351  13.117  10.769   9.529  0.0956 -0.0239  0.1593
  210loPI   C2A 3352  13.083  10.926   9.078  0.1503  0.0535 -0.1033
  210loPI   C3A 3353  13.116  10.901   8.640 -0.0060 -0.1381  0.1154
  210loPI   C4A 3354  13.196  11.016   8.163 -0.1426  0.0123  0.3984
  210loPI   C5A 3355  13.271  10.837   7.699 -0.0764 -0.3506  0.0302
  210loPI   C6A 3356  12.965  10.559   7.536  0.2404  0.0455 -0.4598
  210loPI   C1B 3357  12.950  11.246   9.427  0.0353  0.0662  0.0776
  210loPI   C2B 3358  12.930  11.403   8.931 -0.0222 -0.1836 -0.1808
  210loPI   C3B 3359  12.916  11.320   8.457 -0.0568 -0.1220  0.0423
  210loPI   C4B 3360  12.847  11.347   7.982 -0.0426 -0.1190 -0.0287
  211loPI    C1 3361   7.600   6.231  10.359  0.1217  0.1394 -0.0514
  211loPI    C2 3362   7.898   6.327  10.607  0.0264 -0.0550  0.1413
  211loPI    C3 3363   7.550   6.198  10.755 -0.2103  0.3203 -0.0743
  211loPI   PO4 3364   7.643   6.156  10.132 -0.1706 -0.0095  0.1737
  211loPI   GL1 3365   7.594   6.042   9.697 -0.1357 -0.0255  0.1374
  211loPI   GL2 3366   7.944   6.081   9.678 -0.1713  0.1760 -0.0144
  211loPI   C1A 3367   7.622   6.179   9.255 -0.1322 -0.0291  0.2023
  211loPI   C2A 3368   7.562   6.090   8.837 -0.0752 -0.2076  0.2289
  211loPI   C3A 3369   7.377   6.048   8.479  0.1471  0.1541 -0.0106
  211loPI   C4A 3370   7.222   6.101   7.994 -0.1254 -0.2949 -0.2739
  211loPI   C5A 3371   7.286   5.924   7.551  0.0494  0.1315 -0.0620
  211loPI   C6A 3372   7.405   5.712   7.142 -0.2889  0.2043 -0.2814
  211loPI   C1B 3373   8.096   6.240   9.327 -0.3949 -0.3538 -0.1774
  211loPI   C2B 3374   8.042   6.193   8.866  0.1527  0.0508  0.1758
  211loPI   C3B 3375   7.875   6.361   8.527  0.2044  0.0289 -0.1694
  211loPI   C4B 3376   8.007   6.313   8.115 -0.3385  0.0992 -0.0951
  212loPI    C1 3377   4.015   7.272  10.256 -0.2507 -0.1163  0.3265
  212loPI    C2 3378   3.932   6.892  10.162  0.0744 -0.0820 -0.1322
  212loPI    C3 3379   4.105   6.978  10.512  0.2558 -0.3889 -0.1421
  212loPI   PO4 3380   4.129   7.439  10.080 -0.0018  0.1736  0.0364
  212loPI   GL1 3381   4.206   7.708   9.628  0.0071 -0.1193 -0.2645
  212loPI   GL2 3382   4.447   7.466   9.526  0.0315 -0.1934 -0.1149
  212loPI   C1A 3383   4.177   7.714   9.152  0.0567 -0.1388 -0.0602
  212loPI   C2A 3384   4.067   7.690   8.620  0.0668  0.0739  0.0649
  212loPI   C3A 3385   3.877   7.506   8.270 -0.1195  0.0189 -0.0599
  212loPI   C4A 3386   4.025   7.263   7.933  0.0854 -0.1039 -0.2606
  212loPI   C5A 3387   3.953   7.123   7.611 -0.2812  0.3885 -0.2398
  212loPI   C6A 3388   4.136   7.164   7.292 -0.0164 -0.1846 -0.1763
  212loPI   C1B 3389   4.233   7.181   9.280 -0.1758  0.2561 -0.2469
  212loPI   C2B 3390   4.009   7.203   8.871  0.2125  0.2704  0.1276
  212loPI   C3B 3391   4.176   7.122   8.457 -0.0656  0.1790 -0.2268
  212loPI   C4B 3392   4.498   7.116   8.162 -0.0849 -0.1068 -0.0321
  213loPI    C1 3393   5.780  17.045  10.661  0.2255 -0.0587 -0.0102
  213loPI    C2 3394   6.006  16.827  10.908  0.1527 -0.0529  0.0620
  213loPI    C3 3395   5.744  17.089  11.057  0.1038 -0.0542 -0.0214
  213loPI   PO4 3396   5.969  17.179  10.504 -0.1955 -0.0834  0.0076
  213loPI   GL1 3397   6.003  17.452  10.186 -0.0735  0.0654  0.0645
  213loPI   GL2 3398   6.226  17.473  10.020 -0.0706  0.2909  0.0330
  213loPI   C1A 3399   5.785  17.377   9.786 -0.0115  0.0139  0.1069
  213loPI   C2A 3400   5.604  17.210   9.468  0.2228  0.0324  0.0824
  213loPI   C3A 3401   5.347  17.160   9.122 -0.0295  0.0024  0.4104
  213loPI   C4A 3402   5.081  16.915   8.880 -0.1523  0.1338 -0.1932
  213loPI   C5A 3403   4.869  16.658   8.549  0.0572  0.0807  0.1339
  213loPI   C6A 3404   4.708  16.690   8.106 -0.0422 -0.0455 -0.0922
  213loPI   C1B 3405   6.271  17.355   9.639  0.0807  0.0031 -0.0036
  213loPI   C2B 3406   6.076  17.410   9.372 -0.1767 -0.3150  0.0803
  213loPI   C3B 3407   6.228  17.418   8.987  0.2693  0.0191  0.0982
  213loPI   C4B 3408   6.321  17.310   8.602  0.2082  0.0222 -0.0235
  214loPI    C1 3409  10.604  17.368  10.516 -0.1554  0.0925  0.1802
  214loPI    C2 3410  10.581  17.091  10.804 -0.0738  0.0543  0.1502
  214loPI    C3 3411  10.255  17.191  10.595 -0.0659 -0.1537  0.0358
  214loPI   PO4 3412  10.825  17.248  10.359 -0.0890 -0.1931 -0.2258
  214loPI   GL1 3413  10.756  17.351   9.966  0.0399  0.0896 -0.0811
  214loPI   GL2 3414  10.879  16.970   9.965  0.1076  0.1645 -0.5495
  214loPI   C1A 3415  10.766  17.656   9.570 -0.1536  0.1918 -0.1344
  214loPI   C2A 3416  10.880  17.733   9.166  0.3153  0.0222 -0.0653
  214loPI   C3A 3417  10.698  17.865   8.772 -0.3121  0.1073  0.1296
  214loPI   C4A 3418  10.710  17.698   8.482 -0.3105 -0.0212 -0.2949
  214loPI   C5A 3419  10.669  17.759   7.993 -0.1343  0.3335  0.0492
  214loPI   C6A 3420  11.018  18.031   7.820  0.1903  0.0937  0.2276
  214loPI   C1B 3421  10.815  17.153   9.529  0.0679  0.0097  0.1228
  214loPI   C2B 3422  10.779  17.112   9.171 -0.2934  0.2924  0.0566
  214loPI   C3B 3423  10.922  17.302   8.752 -0.1807  0.1893 -0.0940
  214loPI   C4B 3424  10.887  17.111   8.241 -0.1121 -0.0782 -0.0137
  215loPI    C1 3425  18.012  15.981  10.490  0.1279  0.1000  0.1088
  215loPI    C2 3426  17.682  15.762  10.550  0.0325  0.1874 -0.0886
  215loPI    C3 3427  17.904  15.879  10.861 -0.2118  0.2639  0.0592
  215loPI   PO4 3428  18.017  15.961  10.236 -0.1330 -0.3836 -0.0514
  215loPI   GL1 3429  18.147  15.830   9.917  0.2665 -0.1977 -0.1794
  215loPI   GL2 3430  17.936  15.598   9.910 -0.0210 -0.1439  0.0653
  215loPI   C1A 3431  17.963  16.058   9.576  0.1766  0.0196 -0.2077
  215loPI   C2A 3432  18.062  16.035   9.124 -0.0912 -0.2080  0.1267
  215loPI   C3A 3433  17.991  16.201   8.679 -0.0739  0.0574  0.3494
  215loPI   C4A 3434  17.898  16.117   8.309 -0.0049  0.0915 -0.2026
  215loPI   C5A 3435  17.837  16.268   7.947  0.2686  0.1667 -0.0511
  215loPI   C6A 3436  17.614  16.677   7.958 -0.1455 -0.4480  0.2443
  215loPI   C1B 3437  17.758  15.651   9.441  0.2280  0.0600  0.1026
  215loPI   C2B 3438  17.851  15.572   9.031 -0.1164  0.2343 -0.1977
  215loPI   C3B 3439  17.799  15.692   8.608 -0.0707 -0.1929  0.2385
  215loPI   C4B 3440  17.574  15.732   8.242  0.0471  0.0233 -0.0679
  216loPI    C1 3441  12.301   3.707  10.384  0.0339 -0.0624 -0.0412
  216loPI    C2 3442  12.281   4.092  10.492  0.3872 -0.0633  0.0390
  216loPI    C3 3443  12.342   3.809  10.769  0.0337 -0.1893 -0.0072
  216loPI   PO4 3444  12.203   3.751  10.071 -0.0689 -0.2906  0.2641
  216loPI   GL1 3445  12.171   3.493   9.758 -0.1836 -0.2774  0.1624
  216loPI   GL2 3446  12.477   3.537   9.646  0.1173  0.0730  0.1957
  216loPI   C1A 3447  11.892   3.611   9.431 -0.0817  0.1244 -0.1128
  216loPI   C2A 3448  11.784   3.399   9.062  0.1651  0.1143  0.2559
  216loPI   C3A 3449  11.847   3.392   8.687 -0.1836 -0.0680 -0.1329
  216loPI   C4A 3450  11.818   3.410   8.236  0.0642  0.4057  0.0759
  216loPI   C5A 3451  11.896   3.287   7.871 -0.0368  0.0805  0.3812
  216loPI   C6A 3452  11.805   3.140   7.524 -0.1523 -0.2531 -0.0284
  216loPI   C1B 3453  12.307   3.352   9.259  0.3106 -0.3411  0.0036
  216loPI   C2B 3454  12.430   3.353   8.787  0.1646  0.0713  0.2217
  216loPI   C3B 3455  12.384   3.340   8.244 -0.3384 -0.1694 -0.2201
  216loPI   C4B 3456  12.454   3.702   7.965  0.0967  0.2392 -0.2969
  217loPI    C1 3457  17.216   8.497  10.427 -0.0121  0.0751  0.0546
  217loPI    C2 3458  17.573   8.479  10.606  0.0318  0.0291 -0.0368
  217loPI    C3 3459  17.239   8.476  10.825  0.0870  0.0548  0.0483
  217loPI   PO4 3460  17.185   8.320  10.182  0.0512  0.2296 -0.0707
  217loPI   GL1 3461  16.957   8.119   9.909  0.0024  0.2249 -0.2268
  217loPI   GL2 3462  17.383   8.097   9.738  0.0335 -0.3253  0.2385
  217loPI   C1A 3463  16.758   8.069   9.509  0.0441  0.2927 -0.0511
  217loPI   C2A 3464  16.641   7.885   9.095 -0.0336 -0.1263  0.1620
  217loPI   C3A 3465  16.647   8.053   8.662 -0.2276  0.2335  0.1299
  217loPI   C4A 3466  16.816   8.165   8.233 -0.1180 -0.0051 -0.0244
  217loPI   C5A 3467  17.093   8.279   7.956 -0.2205 -0.0882  0.2523
  217loPI   C6A 3468  17.522   8.284   7.811  0.0474  0.1692  0.0888
  217loPI   C1B 3469  17.152   8.288   9.403  0.0527 -0.2306 -0.0583
  217loPI   C2B 3470  17.073   8.446   8.988 -0.1220 -0.1646 -0.1806
  217loPI   C3B 3471  16.995   8.404   8.627 -0.0882  0.0343 -0.2243
  217loPI   C4B 3472  17.025   8.669   8.288 -0.0816  0.1529  0.0572
  218loPI    C1 3473  12.920   0.876  10.302  0.0145  0.1281  0.0321
  218loPI    C2 3474  12.750   1.051  10.619 -0.2436  0.1317 -0.1056
  218loPI    C3 3475  12.739   0.653  10.581  0.1812  0.0936  0.1137
  218loPI   PO4 3476  12.805   1.115  10.128 -0.0151 -0.3538  0.0034
  218loPI   GL1 3477  12.795   1.337   9.672 -0.2418 -0.1109  0.3871
  218loPI   GL2 3478  12.473   1.514   9.593  0.0584 -0.1958 -0.0021
  218loPI   C1A 3479  12.975   1.654   9.428 -0.1534  0.1273 -0.0464
  218loPI   C2A 3480  13.022   1.902   9.038 -0.0975  0.1116 -0.0921
  218loPI   C3A 3481  13.100   1.982   8.539  0.0647 -0.0462 -0.1193
  218loPI   C4A 3482  13.060   1.811   8.154  0.0347 -0.3368 -0.1260
  218loPI   C5A 3483  13.268   1.770   7.846  0.1722 -0.2950 -0.0033
  218loPI   C6A 3484  13.262   2.099   7.573  0.0630  0.2189 -0.0805
  218loPI   C1B 3485  12.358   1.564   9.175  0.3257 -0.3575  0.1920
  218loPI   C2B 3486  12.255   1.551   8.729  0.0831  0.0260 -0.0142
  218loPI   C3B 3487  12.411   1.433   8.308  0.0088 -0.0354  0.2582
  218loPI   C4B 3488  12.538   1.396   7.905 -0.1257  0.1418 -0.2150
  219loPI    C1 3489  12.464  14.874  10.149 -0.1523  0.0897 -0.1937
  219loPI    C2 3490  12.188  15.084  10.347 -0.0423  0.0485  0.0064
  219loPI    C3 3491  12.076  14.809  10.080 -0.1994 -0.0701  0.1912
  219loPI   PO4 3492  12.580  15.110   9.959  0.4015 -0.0944 -0.2284
  219loPI   GL1 3493  12.695  15.258   9.802 -0.0035 -0.0279  0.3240
  219loPI   GL2 3494  12.798  15.521   9.831 -0.0082  0.1957 -0.0062
  219loPI   C1A 3495  12.460  15.312   9.349  0.0125 -0.0954 -0.0291
  219loPI   C2A 3496  12.250  15.027   9.031 -0.0860 -0.0727  0.1379
  219loPI   C3A 3497  12.454  14.766   8.685  0.1566  0.2656 -0.3491
  219loPI   C4A 3498  12.729  14.678   8.323  0.2610 -0.1968  0.0307
  219loPI   C5A 3499  12.856  14.683   7.997 -0.0097 -0.2149 -0.1588
  219loPI   C6A 3500  13.175  14.754   7.579 -0.1999  0.2315  0.2114
  219loPI   C1B 3501  12.796  15.707   9.454  0.2011  0.0604  0.1352
  219loPI   C2B 3502  12.674  15.558   8.983  0.1357  0.3094 -0.0136
  219loPI   C3B 3503  12.576  15.789   8.630  0.3637  0.1104  0.0040
  219loPI   C4B 3504  12.420  16.094   8.260 -0.0078  0.0708 -0.0143
  220loPI    C1 3505   4.747  12.674  10.423 -0.0668  0.1457  0.1069
  220loPI    C2 3506   4.483  12.412  10.569 -0.0304 -0.0426 -0.1571
  220loPI    C3 3507   4.448  12.800  10.656 -0.2835 -0.0901 -0.0379
  220loPI   PO4 3508   4.726  12.587  10.179 -0.1700  0.1385  0.0777
  220loPI   GL1 3509   4.673  12.745   9.852  0.0816 -0.1907 -0.0631
  220loPI   GL2 3510   4.440  12.599   9.634 -0.0939 -0.4042  0.0390
  220loPI   C1A 3511   4.676  13.015   9.432 -0.1135  0.1288  0.0413
  220loPI   C2A 3512   4.632  13.084   8.949  0.0943  0.3203  0.4828
  220loPI   C3A 3513   4.760  13.077   8.536  0.0022 -0.3007 -0.1160
  220loPI   C4A 3514   4.651  13.118   8.143  0.0246 -0.2675 -0.1107
  220loPI   C5A 3515   4.480  12.762   7.826 -0.1132  0.2013  0.0251
  220loPI   C6A 3516   4.135  12.775   7.471 -0.1295 -0.1040 -0.0389
  220loPI   C1B 3517   4.279  12.769   9.210 -0.2163  0.1929  0.0943
  220loPI   C2B 3518   4.106  12.929   8.904 -0.2990  0.2008  0.1050
  220loPI   C3B 3519   4.111  12.870   8.439  0.0442 -0.2857 -0.1128
  220loPI   C4B 3520   4.039  12.759   8.071  0.0627 -0.0787  0.0292
  221loPI    C1 3521  16.808  16.938  10.528 -0.0030  0.0935 -0.0047
  221loPI    C2 3522  16.696  17.304  10.645  0.0933  0.0943  0.0871
  221loPI    C3 3523  16.435  17.063  10.460 -0.0551  0.1007  0.2858
  221loPI   PO4 3524  16.963  16.959  10.285 -0.1213 -0.0885 -0.0315
  221loPI   GL1 3525  17.356  17.087  10.030  0.2948 -0.1168 -0.1073
  221loPI   GL2 3526  17.191  17.274   9.947 -0.4370  0.0122  0.0257
  221loPI   C1A 3527  17.443  16.964   9.668 -0.1971 -0.1039 -0.0693
  221loPI   C2A 3528  17.348  16.990   9.358 -0.0559  0.1967  0.2940
  221loPI   C3A 3529  17.409  17.025   8.876 -0.0986 -0.0087  0.0534
  221loPI   C4A 3530  17.495  17.008   8.447 -0.0070  0.1809  0.0104
  221loPI   C5A 3531  17.401  17.326   8.162  0.0431 -0.1396 -0.2201
  221loPI   C6A 3532  17.413  17.808   8.003 -0.3603  0.0286  0.1895
  221loPI   C1B 3533  16.937  17.116   9.649 -0.2180  0.1660 -0.1579
  221loPI   C2B 3534  16.867  17.007   9.324  0.0911 -0.0265  0.0894
  221loPI   C3B 3535  16.922  16.981   8.860  0.0050 -0.0918 -0.1092
  221loPI   C4B 3536  17.043  17.105   8.407  0.0548 -0.3395  0.3179
  222loPI    C1 3537  18.099  17.586  10.484 -0.1085  0.1301  0.0737
  222loPI    C2 3538  18.032  17.273  10.723 -0.2712  0.3124  0.2706
  222loPI    C3 3539  18.376  17.475  10.750 -0.0205 -0.0502 -0.0905
  222loPI   PO4 3540  18.026  17.512  10.279  0.0491 -0.1258 -0.0638
  222loPI   GL1 3541  18.229  17.587   9.900 -0.1184  0.2584  0.0361
  222loPI   GL2 3542  17.931  17.871   9.929 -0.2543  0.2949  0.0012
  222loPI   C1A 3543  18.323  17.826   9.502  0.0598 -0.0707 -0.0867
  222loPI   C2A 3544  18.469  17.924   9.103  0.1247  0.0708 -0.1477
  222loPI   C3A 3545  18.487  17.918   8.639 -0.2069  0.0508  0.0391
  222loPI   C4A 3546  18.452  18.214   8.237 -0.3528  0.1647 -0.3199
  222loPI   C5A 3547  18.668  18.278   7.838 -0.2193 -0.1584  0.3189
  222loPI   C6A 3548  18.931  18.565   7.676 -0.4616  0.1699 -0.0609
  222loPI   C1B 3549  17.848  17.925   9.460  0.0216  0.2834  0.0913
  222loPI   C2B 3550  17.886  17.893   9.050 -0.2700  0.0932  0.3552
  222loPI   C3B 3551  18.020  17.937   8.665 -0.0128 -0.1317  0.0620
  222loPI   C4B 3552  17.810  18.120   8.266  0.0476  0.0832 -0.4914
  223loPI    C1 3553   9.962  11.691  10.882  0.0628 -0.0810  0.1555
  223loPI    C2 3554   9.723  11.867  11.151 -0.1144 -0.0137 -0.0428
  223loPI    C3 3555  10.108  11.798  11.239 -0.1475  0.0918  0.1917
  223loPI   PO4 3556   9.960  11.840  10.651  0.0425 -0.1725 -0.1256
  223loPI   GL1 3557  10.222  11.848  10.318 -0.2832  0.1250  0.1750
  223loPI   GL2 3558  10.066  12.075  10.207  0.1759 -0.0986 -0.1158
  223loPI   C1A 3559  10.435  11.582  10.169  0.0813 -0.1529 -0.2637
  223loPI   C2A 3560  10.595  11.427   9.807 -0.1584  0.0891 -0.0881
  223loPI   C3A 3561  10.892  11.411   9.457  0.2355  0.0118  0.1115
  223loPI   C4A 3562  10.946  11.474   9.065 -0.1490 -0.1728  0.0560
  223loPI   C5A 3563  11.012  11.450   8.690  0.1206 -0.1587 -0.5130
  223loPI   C6A 3564  11.092  11.271   8.338 -0.1171  0.3382  0.1414
  223loPI   C1B 3565  10.196  12.147   9.784  0.4784 -0.3050 -0.0174
  223loPI   C2B 3566  10.273  12.368   9.417  0.2096 -0.0478  0.2784
  223loPI   C3B 3567  10.216  12.514   8.979 -0.1874  0.0949 -0.2154
  223loPI   C4B 3568   9.912  12.752   8.658 -0.1626 -0.0083  0.2228
  224loPI    C1 3569   3.310   8.863  10.120  0.2508  0.2235 -0.2576
  224loPI    C2 3570   3.037   9.151  10.173 -0.0562 -0.0986 -0.0335
  224loPI    C3 3571   3.358   9.133  10.411 -0.0485  0.0417 -0.0325
  224loPI   PO4 3572   3.319   8.899   9.833 -0.1688  0.1371  0.2333
  224loPI   GL1 3573   3.286   9.268   9.668 -0.0329 -0.3310  0.0858
  224loPI   GL2 3574   3.212   9.126   9.368  0.3918  0.3222 -0.0958
  224loPI   C1A 3575   3.503   9.511   9.339  0.0127  0.2497  0.1292
  224loPI   C2A 3576   3.686   9.626   8.992 -0.2576  0.2088  0.1326
  224loPI   C3A 3577   3.827   9.613   8.498  0.1794  0.0736 -0.0369
  224loPI   C4A 3578   4.038   9.379   8.258  0.1442  0.1139  0.1109
  224loPI   C5A 3579   4.196   9.068   7.937  0.5364 -0.0907  0.1699
  224loPI   C6A 3580   4.610   9.000   7.643  0.1163  0.1016 -0.0987
  224loPI   C1B 3581   3.200   9.349   8.905  0.2240  0.1123 -0.0767
  224loPI   C2B 3582   3.302   9.438   8.439 -0.2868 -0.1790  0.2687
  224loPI   C3B 3583   3.198   9.318   8.077 -0.0288  0.1533  0.2917
  224loPI   C4B 3584   3.256   9.064   7.757  0.0384 -0.3926  0.4820
  225loPI    C1 3585   3.631  17.800  10.832 -0.0357  0.0090 -0.0991
  225loPI    C2 3586   3.407  18.115  10.732 -0.2747 -0.1118  0.0451
  225loPI    C3 3587   3.651  18.136  11.048  0.1105  0.1032 -0.2568
  225loPI   PO4 3588   3.596  17.688  10.587 -0.0422 -0.0424  0.0284
  225loPI   GL1 3589   3.848  17.642  10.117  0.0635 -0.1406  0.3322
  225loPI   GL2 3590   4.006  17.450   9.927  0.3810  0.1381  0.0103
  225loPI   C1A 3591   3.450  17.633   9.848  0.0358 -0.1333 -0.0138
  225loPI   C2A 3592   3.267  17.485   9.476  0.3615 -0.0991  0.0324
  225loPI   C3A 3593   3.324  17.409   9.145 -0.0126 -0.0357  0.0560
  225loPI   C4A 3594   3.562  17.460   8.673 -0.2042  0.3107 -0.0157
  225loPI   C5A 3595   3.766  17.492   8.289  0.1039  0.1759 -0.0019
  225loPI   C6A 3596   3.902  17.647   7.999  0.1361 -0.1215  0.0709
  225loPI   C1B 3597   3.925  17.674   9.593 -0.0160  0.2506 -0.3717
  225loPI   C2B 3598   3.940  17.630   9.074  0.0941  0.2348  0.1643
  225loPI   C3B 3599   4.119  17.618   8.704 -0.0011 -0.3462  0.0114
  225loPI   C4B 3600   4.321  17.601   8.363 -0.3012  0.1038 -0.0679
  226loPI    C1 3601   0.326  12.518  10.251  0.1743 -0.1484 -0.0247
  226loPI    C2 3602   0.705  12.503  10.377  0.1084  0.3320  0.2569
  226loPI    C3 3603   0.409  12.387  10.619  0.0751 -0.1564 -0.0049
  226loPI   PO4 3604   0.294  12.422  10.054  0.1001  0.0348  0.1284
  226loPI   GL1 3605   0.411  12.169   9.751 -0.0376 -0.2125 -0.0067
  226loPI   GL2 3606   0.395  11.896   9.612  0.2228 -0.1467 -0.0607
  226loPI   C1A 3607   0.622  12.398   9.387 -0.1086  0.2506 -0.1434
  226loPI   C2A 3608   0.518  12.376   8.897 -0.0097 -0.2453 -0.0277
  226loPI   C3A 3609   0.374  12.453   8.456  0.0002 -0.0798  0.0537
  226loPI   C4A 3610   0.409  12.340   7.990  0.1253  0.0963  0.1603
  226loPI   C5A 3611   0.432  11.934   7.773 -0.0927  0.2689  0.1102
  226loPI   C6A 3612   0.289  11.717   7.455  0.0436  0.0875  0.0411
  226loPI   C1B 3613   0.355  12.004   9.200  0.1573  0.3869  0.2931
  226loPI   C2B 3614   0.297  11.748   8.874 -0.3241  0.3411  0.2524
  226loPI   C3B 3615   0.343  11.464   8.546  0.0065  0.2663 -0.2620
  226loPI   C4B 3616   0.526  11.117   8.322  0.1012  0.1420 -0.1946
  227loPI    C1 3617  13.339   1.176  10.363 -0.0264 -0.1656  0.0679
  227loPI    C2 3618  13.307   1.151  10.761  0.0162  0.0641  0.0871
  227loPI    C3 3619  13.095   1.425  10.560 -0.0096 -0.0550 -0.0496
  227loPI   PO4 3620  13.570   1.031  10.310 -0.0350 -0.1088  0.2086
  227loPI   GL1 3621  13.601   0.660  10.026  0.0327 -0.2266  0.0520
  227loPI   GL2 3622  13.283   0.604  10.020 -0.3512  0.1770 -0.1926
  227loPI   C1A 3623  13.528   0.751   9.590 -0.2198  0.1720 -0.1895
  227loPI   C2A 3624  13.499   0.762   9.201  0.1717  0.1385  0.2815
  227loPI   C3A 3625  13.638   0.968   8.843 -0.1351  0.0092 -0.1748
  227loPI   C4A 3626  13.820   0.961   8.515  0.0376 -0.0877 -0.2065
  227loPI   C5A 3627  13.844   0.794   8.123 -0.1075 -0.0238  0.1442
  227loPI   C6A 3628  13.688   0.650   7.714  0.2507  0.1802  0.2200
  227loPI   C1B 3629  13.216   0.406   9.707  0.0225 -0.0031 -0.0135
  227loPI   C2B 3630  13.230   0.281   9.256 -0.0496  0.1095  0.1594
  227loPI   C3B 3631  13.409   0.377   8.876 -0.4349  0.0478 -0.1519
  227loPI   C4B 3632  13.671   0.494   8.514 -0.1284 -0.2413  0.0161
  228loPI    C1 3633   8.811  16.358  10.811  0.1920  0.0974 -0.0510
  228loPI    C2 3634   8.608  16.127  11.066 -0.1468  0.0145 -0.3865
  228loPI    C3 3635   8.677  16.510  11.156  0.2463 -0.1567  0.0840
  228loPI   PO4 3636   8.854  16.235  10.534  0.1679 -0.2008 -0.0750
  228loPI   GL1 3637   8.791  16.406  10.081  0.0908 -0.3562  0.1207
  228loPI   GL2 3638   9.051  16.229   9.985 -0.0043 -0.0403 -0.1733
  228loPI   C1A 3639   8.513  16.277   9.739 -0.1624 -0.1579 -0.0653
  228loPI   C2A 3640   8.465  16.367   9.314 -0.1394  0.1151 -0.1210
  228loPI   C3A 3641   8.446  16.320   8.778  0.2917  0.0005  0.2598
  228loPI   C4A 3642   8.215  16.119   8.553  0.4991 -0.2076 -0.1279
  228loPI   C5A 3643   8.074  15.969   8.107  0.0136 -0.2068  0.0235
  228loPI   C6A 3644   7.959  15.784   7.782  0.0375  0.2172 -0.1173
  228loPI   C1B 3645   8.995  16.250   9.570 -0.0387 -0.1423 -0.0118
  228loPI   C2B 3646   8.988  16.241   9.106  0.2497  0.0735 -0.0003
  228loPI   C3B 3647   8.979  16.242   8.661  0.2540  0.0612 -0.0380
  228loPI   C4B 3648   8.728  16.311   8.320 -0.0423 -0.1195  0.1125
  229loPI    C1 3649   0.987  14.127  10.312  0.0261  0.0606  0.1652
  229loPI    C2 3650   0.596  14.052  10.352  0.0271  0.0079  0.0784
  229loPI    C3 3651   0.865  13.802  10.511  0.0299 -0.1595 -0.1840
  229loPI   PO4 3652   0.951  14.159   9.978  0.0575 -0.2846  0.0197
  229loPI   GL1 3653   0.826  14.314   9.597  0.1328 -0.0374  0.3611
  229loPI   GL2 3654   0.798  13.906   9.523  0.2303  0.2505  0.3099
  229loPI   C1A 3655   1.044  14.614   9.326  0.0976  0.2494  0.0583
  229loPI   C2A 3656   1.155  14.470   8.840  0.3174 -0.1112  0.0543
  229loPI   C3A 3657   1.218  14.627   8.434 -0.2809  0.1733 -0.1115
  229loPI   C4A 3658   1.539  14.420   8.244 -0.1763 -0.0908 -0.1346
  229loPI   C5A 3659   1.812  14.476   7.914 -0.1433  0.0817 -0.2675
  229loPI   C6A 3660   1.947  14.213   7.480  0.0370 -0.3918 -0.0406
  229loPI   C1B 3661   0.424  13.883   9.217 -0.0138  0.2396  0.1235
  229loPI   C2B 3662   0.460  13.708   8.779  0.2223  0.0434 -0.4088
  229loPI   C3B 3663   0.327  13.604   8.292  0.1496 -0.3795 -0.0463
  229loPI   C4B 3664   0.359  13.740   7.911 -0.1529  0.2004 -0.1730
  230loPI    C1 3665  12.915   4.856  10.759  0.2078  0.0482  0.0041
  230loPI    C2 3666  13.288   4.767  10.645  0.3100  0.1257  0.2698
  230loPI    C3 3667  13.225   4.972  10.983  0.0250  0.1032  0.2334
  230loPI   PO4 3668  12.837   4.827  10.423  0.1425 -0.3177 -0.2317
  230loPI   GL1 3669  12.927   4.873  10.004  0.3185  0.1437 -0.1026
  230loPI   GL2 3670  12.953   4.533   9.848 -0.0248  0.2353  0.0667
  230loPI   C1A 3671  12.624   4.840   9.568  0.1970 -0.1460  0.1185
  230loPI   C2A 3672  12.630   4.801   9.192  0.2699  0.0111  0.0438
  230loPI   C3A 3673  12.707   4.918   8.804  0.2442 -0.1982 -0.1527
  230loPI   C4A 3674  12.957   4.988   8.427  0.1107  0.1023  0.1130
  230loPI   C5A 3675  13.338   4.948   8.242  0.2064 -0.4092 -0.1904
  230loPI   C6A 3676  13.630   5.213   8.153  0.1452  0.2242 -0.0307
  230loPI   C1B 3677  12.858   4.372   9.409 -0.0633 -0.2172  0.1836
  230loPI   C2B 3678  12.783   4.194   9.025 -0.0447 -0.0362 -0.0145
  230loPI   C3B 3679  12.819   4.366   8.681 -0.1901 -0.1661  0.3969
  230loPI   C4B 3680  13.117   4.440   8.312  0.0864 -0.0957 -0.1429
  231loPI    C1 3681  17.971   3.412  10.339  0.0112  0.0579 -0.0476
  231loPI    C2 3682  18.222   3.609  10.581 -0.2133  0.1725  0.0952
  231loPI    C3 3683  17.829   3.684  10.595 -0.2483  0.0564 -0.1866
  231loPI   PO4 3684  18.056   3.409  10.142 -0.0860 -0.0751  0.1999
  231loPI   GL1 3685  18.107   3.349   9.709  0.2001 -0.0416  0.0139
  231loPI   GL2 3686  18.238   3.679   9.627 -0.0871  0.0290  0.2146
  231loPI   C1A 3687  18.137   3.141   9.200  0.0379  0.0851 -0.1050
  231loPI   C2A 3688  18.071   3.094   8.724 -0.0656 -0.1031 -0.4998
  231loPI   C3A 3689  17.975   2.970   8.294  0.0794  0.0095 -0.1735
  231loPI   C4A 3690  18.128   2.925   7.851 -0.0373 -0.1222  0.1224
  231loPI   C5A 3691  18.538   3.198   7.762  0.0863 -0.3325 -0.3127
  231loPI   C6A 3692  18.884   3.390   7.862 -0.0939  0.0846  0.0806
  231loPI   C1B 3693  18.232   3.697   9.177  0.0040 -0.0366 -0.0970
  231loPI   C2B 3694  18.161   3.626   8.733  0.0702 -0.1488  0.0675
  231loPI   C3B 3695  17.990   3.522   8.403 -0.1204 -0.3003 -0.1812
  231loPI   C4B 3696  17.860   3.421   7.959  0.2075 -0.1156  0.0316
  232loPI    C1 3697  15.155  13.742  10.484  0.0844 -0.0837  0.2468
  232loPI    C2 3698  15.350  13.427  10.632  0.1289 -0.1176  0.1179
  232loPI    C3 3699  15.119  13.650  10.871  0.1987 -0.1716  0.2369
  232loPI   PO4 3700  14.956  13.650  10.245 -0.2594  0.1698  0.3361
  232loPI   GL1 3701  15.051  13.528   9.872  0.2793  0.2499  0.0192
  232loPI   GL2 3702  14.743  13.693   9.826  0.3717  0.2798 -0.2325
  232loPI   C1A 3703  15.083  13.502   9.560  0.2422 -0.0680 -0.0414
  232loPI   C2A 3704  15.002  13.561   9.066  0.1369  0.0646 -0.1898
  232loPI   C3A 3705  14.795  13.306   8.731  0.0279 -0.2105  0.0345
  232loPI   C4A 3706  14.860  13.436   8.374  0.1996 -0.2614 -0.2808
  232loPI   C5A 3707  14.702  13.479   7.975 -0.1643 -0.2221  0.1251
  232loPI   C6A 3708  14.362  13.764   7.800 -0.0595  0.2777  0.3266
  232loPI   C1B 3709  14.627  13.516   9.412  0.1048 -0.0063  0.3510
  232loPI   C2B 3710  14.837  13.118   9.224  0.2044 -0.0376 -0.2089
  232loPI   C3B 3711  14.748  12.801   8.935 -0.1687  0.1333  0.1083
  232loPI   C4B 3712  14.640  12.678   8.526 -0.1465  0.0872  0.2942
  233loPI    C1 3713  14.799   3.463  10.324  0.4025  0.1102  0.0917
  233loPI    C2 3714  14.429   3.416  10.470  0.4329 -0.0505  0.1191
  233loPI    C3 3715  14.692   3.649  10.661  0.3052  0.1723  0.0272
  233loPI   PO4 3716  14.765   3.447  10.106  0.1118  0.0177 -0.0338
  233loPI   GL1 3717  14.741   3.256   9.771 -0.1963 -0.5497  0.0302
  233loPI   GL2 3718  15.057   3.206   9.695 -0.2479  0.0381 -0.0183
  233loPI   C1A 3719  14.490   3.575   9.511  0.2068 -0.2854  0.2577
  233loPI   C2A 3720  14.373   3.689   9.110  0.0091 -0.0550 -0.2039
  233loPI   C3A 3721  14.432   3.733   8.599 -0.2751 -0.0930  0.0529
  233loPI   C4A 3722  14.237   3.752   8.201  0.0937  0.1885 -0.0013
  233loPI   C5A 3723  14.099   3.588   7.792  0.0723 -0.0108  0.2924
  233loPI   C6A 3724  13.732   3.616   7.508  0.1506 -0.0528  0.0144
  233loPI   C1B 3725  15.023   3.266   9.317 -0.0945  0.1104 -0.1372
  233loPI   C2B 3726  15.024   3.082   8.934 -0.0864 -0.3229 -0.0717
  233loPI   C3B 3727  14.949   3.159   8.496 -0.0906  0.2810 -0.1400
  233loPI   C4B 3728  14.898   3.286   8.102  0.2178 -0.1449 -0.0366
  234loPI    C1 3729  17.950   1.628  10.361 -0.2802  0.3239 -0.0205
  234loPI    C2 3730  17.815   1.628  10.738 -0.1180  0.2776  0.0384
  234loPI    C3 3731  18.183   1.761  10.657 -0.1577  0.3013 -0.1064
  234loPI   PO4 3732  17.830   1.416  10.239 -0.1941  0.3092  0.0296
  234loPI   GL1 3733  17.963   1.312   9.848  0.1453  0.1144 -0.2483
  234loPI   GL2 3734  17.632   1.127   9.858  0.2909  0.2193 -0.3214
  234loPI   C1A 3735  17.830   1.605   9.617  0.0515  0.2792  0.1495
  234loPI   C2A 3736  17.668   1.676   9.253 -0.1182 -0.2532 -0.0586
  234loPI   C3A 3737  17.572   1.629   8.884  0.1692 -0.0454  0.2384
  234loPI   C4A 3738  17.622   1.482   8.483  0.0564  0.1949 -0.0525
  234loPI   C5A 3739  17.704   1.256   8.099 -0.0517 -0.0145 -0.2410
  234loPI   C6A 3740  17.675   1.059   7.718 -0.1906  0.0548 -0.2624
  234loPI   C1B 3741  17.681   1.059   9.466 -0.0496 -0.1509  0.0276
  234loPI   C2B 3742  17.771   1.226   9.041 -0.0691 -0.1003  0.0325
  234loPI   C3B 3743  17.971   1.136   8.621 -0.3119 -0.0309  0.2774
  234loPI   C4B 3744  18.272   1.060   8.345 -0.1466 -0.1943  0.1904
  235loPI    C1 3745   3.005  11.973  10.511  0.1400  0.1904 -0.0467
  235loPI    C2 3746   3.370  11.977  10.676  0.0569 -0.2514  0.1630
  235loPI    C3 3747   3.050  12.076  10.895  0.0222 -0.1190  0.0535
  235loPI   PO4 3748   3.105  11.781  10.226  0.0993 -0.2140 -0.0237
  235loPI   GL1 3749   2.929  11.643   9.805 -0.3689  0.2938 -0.1914
  235loPI   GL2 3750   3.320  11.913   9.823 -0.1448  0.1332 -0.2399
  235loPI   C1A 3751   3.054  11.505   9.291 -0.2303 -0.1309  0.2309
  235loPI   C2A 3752   3.191  11.327   8.857  0.1112 -0.3598 -0.1067
  235loPI   C3A 3753   3.072  11.456   8.440  0.5576 -0.2413 -0.2354
  235loPI   C4A 3754   2.861  11.404   8.122  0.0725  0.1795  0.1771
  235loPI   C5A 3755   2.661  11.503   7.673  0.1408  0.0070 -0.1191
  235loPI   C6A 3756   2.415  11.829   7.749  0.1815 -0.0489  0.1169
  235loPI   C1B 3757   3.082  12.080   9.527 -0.3474 -0.0270 -0.0846
  235loPI   C2B 3758   3.106  11.997   9.140 -0.0958  0.0221  0.0886
  235loPI   C3B 3759   3.235  11.850   8.737 -0.1011  0.2089 -0.0968
  235loPI   C4B 3760   3.062  11.986   8.400 -0.3981 -0.3265 -0.3036
  236loPI    C1 3761   3.524   4.760  10.384 -0.0220 -0.1000 -0.1600
  236loPI    C2 3762   3.563   4.363  10.415  0.0546 -0.0774  0.0514
  236loPI    C3 3763   3.410   4.574  10.719  0.0336  0.0580 -0.0518
  236loPI   PO4 3764   3.406   4.845  10.178  0.1532 -0.1070  0.1280
  236loPI   GL1 3765   3.342   5.026   9.788 -0.0226 -0.0591  0.1147
  236loPI   GL2 3766   3.607   5.065   9.771  0.0344 -0.2319  0.1053
  236loPI   C1A 3767   3.234   4.848   9.403  0.2000  0.0616  0.1296
  236loPI   C2A 3768   3.173   4.897   8.970 -0.0152  0.0184  0.3087
  236loPI   C3A 3769   3.148   4.743   8.525 -0.1553  0.1637 -0.2331
  236loPI   C4A 3770   2.948   4.736   8.075  0.1004  0.0411  0.1806
  236loPI   C5A 3771   2.869   4.745   7.641 -0.2000  0.0983  0.0686
  236loPI   C6A 3772   2.722   5.015   7.384 -0.0281 -0.1323 -0.1580
  236loPI   C1B 3773   3.822   4.834   9.483  0.1031  0.2482 -0.0894
  236loPI   C2B 3774   3.726   4.852   9.017  0.1303  0.0229 -0.1034
  236loPI   C3B 3775   3.596   4.931   8.614  0.1075 -0.0028  0.4076
  236loPI   C4B 3776   3.403   5.239   8.399  0.2256 -0.1645 -0.1693
  237loPI    C1 3777   7.239  16.282  10.532 -0.0765  0.1027  0.0954
  237loPI    C2 3778   7.551  16.411  10.747  0.0864 -0.0012 -0.0755
  237loPI    C3 3779   7.208  16.316  10.930  0.3348 -0.4308  0.1850
  237loPI   PO4 3780   7.177  16.405  10.392 -0.1285 -0.0020  0.0556
  237loPI   GL1 3781   7.517  16.627  10.020 -0.1464  0.4319  0.2717
  237loPI   GL2 3782   7.129  16.792  10.068 -0.2281  0.2112 -0.1210
  237loPI   C1A 3783   7.521  16.771   9.589  0.1811  0.0351 -0.0642
  237loPI   C2A 3784   7.306  16.646   9.241 -0.0187  0.2084  0.2128
  237loPI   C3A 3785   7.236  16.850   8.839 -0.2879 -0.1098  0.4241
  237loPI   C4A 3786   7.209  16.902   8.357  0.1344 -0.0789 -0.1712
  237loPI   C5A 3787   7.496  17.177   7.983  0.2059  0.0726  0.1356
  237loPI   C6A 3788   7.755  17.248   7.733  0.2163  0.1662  0.0669
  237loPI   C1B 3789   7.006  16.733   9.674  0.1051  0.3480 -0.1230
  237loPI   C2B 3790   6.811  16.787   9.201 -0.3353  0.2883 -0.3114
  237loPI   C3B 3791   6.743  16.818   8.759  0.1039 -0.2645 -0.0995
  237loPI   C4B 3792   6.641  16.863   8.341 -0.0617  0.1219 -0.4051
  238loPI    C1 3793   0.837  18.455  10.553 -0.0506  0.0027 -0.1032
  238loPI    C2 3794   0.499  18.394  10.758 -0.2075 -0.0147 -0.3626
  238loPI    C3 3795   0.742  18.696  10.858 -0.1108 -0.2241  0.0599
  238loPI   PO4 3796   0.752  18.498  10.277 -0.0953 -0.0205 -0.1025
  238loPI   GL1 3797   0.619  18.393   9.845 -0.0402 -0.1573  0.1277
  238loPI   GL2 3798   0.953  18.410   9.825  0.1671 -0.2266 -0.2008
  238loPI   C1A 3799   0.583  18.549   9.454 -0.3272  0.4735  0.3926
  238loPI   C2A 3800   0.595  18.501   9.101 -0.0756  0.0308  0.2589
  238loPI   C3A 3801   0.266  18.593   8.713  0.0940  0.1307 -0.1318
  238loPI   C4A 3802   0.098  18.735   8.327 -0.2281 -0.3061 -0.3505
  238loPI   C5A 3803  -0.059  19.091   8.141  0.2445 -0.1008  0.2072
  238loPI   C6A 3804   0.085  19.391   7.832 -0.0599  0.0568  0.0075
  238loPI   C1B 3805   0.917  18.207   9.371  0.1410 -0.2897  0.0123
  238loPI   C2B 3806   0.979  18.129   8.964 -0.0014 -0.3697 -0.0367
  238loPI   C3B 3807   0.831  18.218   8.628  0.0472  0.0258 -0.3048
  238loPI   C4B 3808   0.562  18.474   8.336 -0.0518  0.6329  0.1298
  239loPI    C1 3809   0.723  17.124  10.476  0.1333  0.2930  0.0938
  239loPI    C2 3810   0.689  17.035  10.865 -0.2992  0.3769  0.0805
  239loPI    C3 3811   1.049  17.038  10.691 -0.1467 -0.1246  0.3674
  239loPI   PO4 3812   0.524  16.983  10.385 -0.1771 -0.1925  0.0753
  239loPI   GL1 3813   0.552  16.841   9.934  0.0582 -0.0724 -0.1495
  239loPI   GL2 3814   0.773  17.185   9.956  0.0256 -0.1065  0.1104
  239loPI   C1A 3815   0.653  16.758   9.547  0.0293  0.0052 -0.0393
  239loPI   C2A 3816   0.751  16.710   9.118  0.2065  0.1805 -0.1500
  239loPI   C3A 3817   0.772  16.569   8.704 -0.0224 -0.2402 -0.1655
  239loPI   C4A 3818   0.827  16.394   8.322  0.1048  0.1026  0.0572
  239loPI   C5A 3819   0.718  16.288   7.885  0.1712 -0.0449  0.1539
  239loPI   C6A 3820   0.396  16.209   7.611  0.1505 -0.0137 -0.3379
  239loPI   C1B 3821   0.562  17.263   9.569 -0.0395 -0.1558  0.1844
  239loPI   C2B 3822   0.449  17.047   9.200  0.4312 -0.0256  0.1862
  239loPI   C3B 3823   0.488  17.079   8.759  0.1455 -0.0833 -0.3502
  239loPI   C4B 3824   0.582  16.852   8.335 -0.1381 -0.0530 -0.0899
  240loPI    C1 3825   4.333   6.547  10.269  0.2605 -0.2105  0.1388
  240loPI    C2 3826   4.495   6.304  10.542 -0.0755 -0.2031  0.3505
  240loPI    C3 3827   4.156   6.499  10.624 -0.1116 -0.0993 -0.0270
  240loPI   PO4 3828   4.200   6.451  10.076 -0.2159  0.3914  0.0066
  240loPI   GL1 3829   4.309   6.232   9.746  0.1122  0.0029  0.0300
  240loPI   GL2 3830   4.020   6.162   9.588 -0.0024 -0.3452 -0.0735
  240loPI   C1A 3831   4.438   6.426   9.356 -0.2430 -0.0834  0.3939
  240loPI   C2A 3832   4.667   6.489   8.985 -0.1187 -0.2632 -0.2434
  240loPI   C3A 3833   4.917   6.510   8.641  0.2398  0.2747 -0.3646
  240loPI   C4A 3834   5.192   6.698   8.286 -0.1675  0.0223  0.0916
  240loPI   C5A 3835   5.459   6.921   8.010 -0.3373 -0.1316  0.1486
  240loPI   C6A 3836   5.554   6.791   7.614 -0.1529  0.1442  0.1604
  240loPI   C1B 3837   4.036   6.194   9.170  0.1777  0.0129 -0.1997
  240loPI   C2B 3838   4.240   6.232   8.801 -0.0564  0.2123 -0.2998
  240loPI   C3B 3839   4.212   6.244   8.305 -0.0965  0.0975  0.0799
  240loPI   C4B 3840   4.056   6.229   7.898  0.0289 -0.2049 -0.0689
  241loPI    C1 3841  12.685   2.110  10.424 -0.0059  0.3008  0.2459
  241loPI    C2 3842  12.654   1.724  10.325  0.0777  0.3022  0.2133
  241loPI    C3 3843  12.766   1.827  10.695 -0.1886  0.2967  0.2977
  241loPI   PO4 3844  12.506   2.185  10.123 -0.0708 -0.0099  0.0006
  241loPI   GL1 3845  12.315   2.052   9.764 -0.0214  0.0916  0.0305
  241loPI   GL2 3846  11.995   2.071   9.762 -0.6970  0.0543 -0.2542
  241loPI   C1A 3847  12.545   2.043   9.373  0.0001 -0.0104  0.0502
  241loPI   C2A 3848  12.524   1.908   8.905  0.0966 -0.0419  0.2241
  241loPI   C3A 3849  12.572   1.943   8.496  0.3031 -0.0974 -0.2654
  241loPI   C4A 3850  12.414   1.896   8.089 -0.5903 -0.1767 -0.0400
  241loPI   C5A 3851  12.234   2.021   7.705  0.2872 -0.4695  0.0259
  241loPI   C6A 3852  12.310   2.314   7.314  0.0098 -0.0819 -0.2503
  241loPI   C1B 3853  11.999   2.014   9.433 -0.1573  0.2042  0.1165
  241loPI   C2B 3854  12.021   2.074   9.041 -0.3365  0.3317  0.1299
  241loPI   C3B 3855  12.068   1.959   8.574 -0.1920  0.1130  0.1914
  241loPI   C4B 3856  11.952   2.039   8.132  0.0960  0.0579  0.0613
  242loPI    C1 3857  13.497   7.568  10.502  0.2404  0.0796 -0.0420
  242loPI    C2 3858  13.309   7.905  10.609  0.1355  0.0676 -0.1861
  242loPI    C3 3859  13.104   7.607  10.437  0.2816  0.0448 -0.3228
  242loPI   PO4 3860  13.694   7.651  10.345 -0.1985  0.4259 -0.0687
  242loPI   GL1 3861  13.737   7.703   9.915 -0.0871 -0.2535 -0.3170
  242loPI   GL2 3862  14.025   7.721   9.967  0.0660  0.2742 -0.2136
  242loPI   C1A 3863  13.446   7.787   9.546 -0.0358  0.1968  0.2282
  242loPI   C2A 3864  13.346   7.672   9.132 -0.0612 -0.0185 -0.1882
  242loPI   C3A 3865  13.293   7.636   8.688  0.3018 -0.2029 -0.2930
  242loPI   C4A 3866  13.397   7.826   8.274  0.1845  0.1405 -0.7358
  242loPI   C5A 3867  13.398   7.926   7.882  0.1438  0.0445  0.1598
  242loPI   C6A 3868  13.155   8.206   7.721  0.3280 -0.0188  0.2440
  242loPI   C1B 3869  13.949   7.664   9.401 -0.1338 -0.3988 -0.3196
  242loPI   C2B 3870  13.792   7.817   9.057 -0.0822  0.0347 -0.2198
  242loPI   C3B 3871  13.783   7.782   8.661 -0.1216 -0.1061 -0.0403
  242loPI   C4B 3872  13.772   8.102   8.208 -0.1504 -0.0735 -0.2226
  243loPI    C1 3873   5.393   7.090  10.497  0.1834  0.1145 -0.2153
  243loPI    C2 3874   5.695   7.216  10.728  0.0426 -0.0631  0.0714
  243loPI    C3 3875   5.323   7.203  10.874 -0.0686 -0.0665 -0.2058
  243loPI   PO4 3876   5.454   7.308  10.267  0.3885  0.0430  0.2243
  243loPI   GL1 3877   5.462   7.438   9.741  0.1324 -0.0881 -0.1128
  243loPI   GL2 3878   5.190   7.526   9.883  0.1528 -0.2503 -0.0421
  243loPI   C1A 3879   5.420   7.561   9.277  0.0899 -0.1724 -0.1332
  243loPI   C2A 3880   5.222   7.484   8.856 -0.2132  0.0995  0.2960
  243loPI   C3A 3881   4.977   7.511   8.475 -0.0079 -0.0226 -0.1051
  243loPI   C4A 3882   4.877   7.769   8.051  0.2413  0.1934  0.1015
  243loPI   C5A 3883   4.671   8.143   7.893  0.0761 -0.1828 -0.0776
  243loPI   C6A 3884   4.825   8.556   7.699 -0.0892 -0.3290  0.1127
  243loPI   C1B 3885   4.966   7.609   9.549 -0.0882  0.0754  0.1946
  243loPI   C2B 3886   4.836   7.411   9.211 -0.1527 -0.2090  0.2195
  243loPI   C3B 3887   4.565   7.445   8.847  0.2047  0.2894 -0.2012
  243loPI   C4B 3888   4.489   7.548   8.365 -0.0109  0.2096 -0.3244
  244loPI    C1 3889   2.591  10.928  10.040  0.0934  0.0302  0.0351
  244loPI    C2 3890   2.444  11.200   9.786  0.1086  0.0609  0.0592
  244loPI    C3 3891   2.616  11.317  10.128  0.1963  0.0257  0.0273
  244loPI   PO4 3892   2.418  10.698   9.989  0.1727 -0.2995 -0.4031
  244loPI   GL1 3893   2.285  10.742   9.612  0.0677  0.0026 -0.1806
  244loPI   GL2 3894   2.051  10.828   9.722  0.0957  0.0805 -0.1886
  244loPI   C1A 3895   2.577  11.077   9.286 -0.0153  0.2054 -0.2861
  244loPI   C2A 3896   2.711  11.190   8.889 -0.0596 -0.1567 -0.0036
  244loPI   C3A 3897   2.656  11.217   8.552  0.3147 -0.0141  0.0545
  244loPI   C4A 3898   2.436  11.118   8.091 -0.0896  0.0499 -0.2504
  244loPI   C5A 3899   2.432  11.090   7.604 -0.0577 -0.0988 -0.0033
  244loPI   C6A 3900   2.289  11.043   7.214  0.1073  0.1533 -0.2418
  244loPI   C1B 3901   1.848  10.821   9.342 -0.1010 -0.0857 -0.2060
  244loPI   C2B 3902   1.827  10.839   8.931 -0.2930 -0.0782  0.1242
  244loPI   C3B 3903   1.822  10.614   8.571  0.0968 -0.1401 -0.1921
  244loPI   C4B 3904   1.539  10.388   8.319 -0.2437  0.1611  0.1615
  245loPI    C1 3905  11.652  13.105  10.670  0.0564 -0.2184  0.0618
  245loPI    C2 3906  11.723  13.479  10.793 -0.3973 -0.1224  0.0467
  245loPI    C3 3907  11.907  13.172  10.971  0.1104  0.1137 -0.0543
  245loPI   PO4 3908  11.619  13.193  10.389 -0.2616  0.1499 -0.3901
  245loPI   GL1 3909  11.901  13.161  10.087 -0.0385  0.1672  0.1243
  245loPI   GL2 3910  12.055  12.931   9.845 -0.1240 -0.1959 -0.1617
  245loPI   C1A 3911  11.699  13.269   9.668  0.0912  0.0649 -0.0822
  245loPI   C2A 3912  11.654  13.381   9.278  0.0269  0.1475  0.0654
  245loPI   C3A 3913  11.328  13.491   8.939  0.0850  0.0306 -0.2263
  245loPI   C4A 3914  11.036  13.637   8.629  0.0731 -0.2209  0.0931
  245loPI   C5A 3915  10.710  13.887   8.583  0.1857  0.0522  0.3328
  245loPI   C6A 3916  10.351  13.901   8.851  0.2531 -0.1681 -0.0410
  245loPI   C1B 3917  12.221  13.089   9.458  0.0097 -0.0984 -0.0042
  245loPI   C2B 3918  12.194  13.405   9.181 -0.0080  0.0758 -0.0092
  245loPI   C3B 3919  12.255  13.434   8.841  0.2099 -0.0900 -0.0569
  245loPI   C4B 3920  12.212  13.301   8.514  0.0364  0.3846  0.1197
  246loPI    C1 3921  16.656  10.575  10.445  0.0036  0.0287 -0.0318
  246loPI    C2 3922  16.492  10.350  10.733  0.0009  0.1368  0.0516
  246loPI    C3 3923  16.319  10.694  10.625  0.1112  0.1959  0.0617
  246loPI   PO4 3924  16.675  10.506  10.268  0.1713  0.1111 -0.2023
  246loPI   GL1 3925  16.509  10.555   9.854 -0.0700  0.0984  0.1305
  246loPI   GL2 3926  16.564  10.187   9.878  0.0421  0.2074  0.1599
  246loPI   C1A 3927  16.256  10.630   9.468 -0.2722 -0.1403  0.0106
  246loPI   C2A 3928  15.988  10.419   9.178 -0.0303 -0.1674  0.0192
  246loPI   C3A 3929  15.919  10.524   8.721  0.2566 -0.2412 -0.0673
  246loPI   C4A 3930  16.041  10.650   8.376  0.0968 -0.2212  0.0576
  246loPI   C5A 3931  15.747  10.444   8.148  0.1864 -0.3450 -0.0456
  246loPI   C6A 3932  15.492  10.667   7.982  0.0210  0.1156 -0.3065
  246loPI   C1B 3933  16.668  10.303   9.382  0.1630  0.0691 -0.0483
  246loPI   C2B 3934  16.531  10.397   9.047 -0.3102  0.4176 -0.3460
  246loPI   C3B 3935  16.402  10.479   8.683  0.1058  0.0052 -0.0103
  246loPI   C4B 3936  16.583  10.501   8.292  0.0475  0.1116 -0.2619
  247loPI    C1 3937  13.962   5.288  10.419 -0.1642 -0.0836 -0.0480
  247loPI    C2 3938  14.262   5.401  10.178 -0.0427 -0.0592  0.1132
  247loPI    C3 3939  14.338   5.178  10.502 -0.2100 -0.1238  0.1091
  247loPI   PO4 3940  13.814   5.209  10.198 -0.0242 -0.0239 -0.0648
  247loPI   GL1 3941  13.931   5.584   9.891  0.1764  0.0559 -0.0312
  247loPI   GL2 3942  13.621   5.473   9.789 -0.1593  0.3446  0.3732
  247loPI   C1A 3943  14.107   5.955   9.680 -0.0482  0.0415 -0.0370
  247loPI   C2A 3944  14.203   6.109   9.263  0.1685  0.1559  0.0778
  247loPI   C3A 3945  14.179   6.203   8.821  0.1217 -0.1153  0.0336
  247loPI   C4A 3946  14.285   6.442   8.527 -0.3893 -0.1653 -0.1551
  247loPI   C5A 3947  14.300   6.572   8.089 -0.3240 -0.1266 -0.0130
  247loPI   C6A 3948  14.231   6.834   7.713  0.1214  0.0062 -0.0204
  247loPI   C1B 3949  13.442   5.406   9.359 -0.3273  0.0568  0.0927
  247loPI   C2B 3950  13.300   5.666   9.003  0.1700  0.1307  0.0673
  247loPI   C3B 3951  13.250   5.902   8.664 -0.1253  0.0562  0.0024
  247loPI   C4B 3952  13.302   6.297   8.706 -0.1105 -0.5288 -0.0835
  248loPI    C1 3953  13.320   6.739  10.454  0.1188 -0.0977  0.1045
  248loPI    C2 3954  13.701   6.742  10.331  0.1951 -0.0137  0.3365
  248loPI    C3 3955  13.422   6.554  10.114  0.3221  0.1423  0.0318
  248loPI   PO4 3956  13.235   7.079  10.443 -0.2604  0.1001  0.1339
  248loPI   GL1 3957  13.559   7.227  10.162  0.1424 -0.0023 -0.1114
  248loPI   GL2 3958  13.335   7.368  10.045  0.1546  0.1020 -0.0516
  248loPI   C1A 3959  13.624   6.893   9.828  0.0720 -0.0617 -0.0002
  248loPI   C2A 3960  13.537   6.748   9.329  0.3106  0.1039 -0.0678
  248loPI   C3A 3961  13.368   6.749   8.900  0.0553 -0.0718 -0.5108
  248loPI   C4A 3962  13.439   6.720   8.417 -0.1781  0.0389  0.0018
  248loPI   C5A 3963  13.421   6.340   8.193 -0.0975 -0.0746 -0.0256
  248loPI   C6A 3964  13.102   6.013   8.168 -0.2297  0.0171 -0.2503
  248loPI   C1B 3965  13.275   7.263   9.595 -0.0909 -0.1415 -0.0514
  248loPI   C2B 3966  13.214   7.180   9.195  0.2707 -0.0180 -0.1610
  248loPI   C3B 3967  12.939   7.248   8.780 -0.0352 -0.0467  0.1580
  248loPI   C4B 3968  12.889   7.522   8.443  0.1233  0.0832 -0.4318
  249loPI    C1 3969   3.685   5.902  10.103 -0.0833  0.1372 -0.1549
  249loPI    C2 3970   3.903   6.157  10.321  0.0682 -0.2540  0.1646
  249loPI    C3 3971   3.625   5.931  10.497 -0.1834 -0.1919 -0.1431
  249loPI   PO4 3972   3.841   5.796   9.885 -0.1947 -0.0189 -0.1119
  249loPI   GL1 3973   3.528   5.584   9.567  0.0502 -0.1275  0.1387
  249loPI   GL2 3974   3.816   5.740   9.340 -0.0442 -0.2048  0.0590
  249loPI   C1A 3975   3.560   5.275   9.302  0.1281 -0.4217 -0.1094
  249loPI   C2A 3976   3.544   5.406   8.847  0.3625 -0.0898  0.1887
  249loPI   C3A 3977   3.765   5.626   8.564 -0.0296  0.3254  0.2500
  249loPI   C4A 3978   3.951   5.646   8.126 -0.0395  0.0353 -0.3878
  249loPI   C5A 3979   4.048   5.772   7.770 -0.1178 -0.0062 -0.0257
  249loPI   C6A 3980   4.114   5.646   7.397 -0.0644  0.0823 -0.4824
  249loPI   C1B 3981   4.099   5.792   8.890 -0.0619  0.0328 -0.2829
  249loPI   C2B 3982   4.246   5.753   8.517 -0.0966  0.0521 -0.1051
  249loPI   C3B 3983   4.457   5.842   8.151  0.0890 -0.1167 -0.0876
  249loPI   C4B 3984   4.617   5.990   7.784 -0.1849  0.0622 -0.0124
  250loPI    C1 3985   1.770   7.344   9.696  0.0140 -0.1449  0.0788
  250loPI    C2 3986   1.515   7.048   9.612 -0.1300  0.0037 -0.0122
  250loPI    C3 3987   1.385   7.377   9.798  0.0482 -0.0284  0.1724
  250loPI   PO4 3988   1.869   7.420   9.516 -0.0474  0.1761 -0.0431
  250loPI   GL1 3989   1.967   7.224   9.205 -0.0483 -0.0147 -0.0886
  250loPI   GL2 3990   1.803   7.002   9.195 -0.2864 -0.0424 -0.3169
  250loPI   C1A 3991   2.229   7.271   8.927  0.2875 -0.0003 -0.1838
  250loPI   C2A 3992   2.212   7.294   8.551 -0.0595  0.0983 -0.1057
  250loPI   C3A 3993   2.145   7.307   8.086 -0.0886 -0.1324  0.2560
  250loPI   C4A 3994   2.445   7.389   7.762 -0.1087 -0.0325 -0.1248
  250loPI   C5A 3995   2.607   7.241   7.444 -0.2251  0.0284  0.2606
  250loPI   C6A 3996   2.822   6.793   7.442 -0.0921  0.1804  0.2714
  250loPI   C1B 3997   1.782   7.050   8.757  0.0765 -0.2024 -0.1299
  250loPI   C2B 3998   1.753   6.997   8.324  0.0959 -0.0399 -0.0779
  250loPI   C3B 3999   1.867   6.871   7.881  0.1070  0.1297  0.1375
  250loPI   C4B 4000   1.775   6.631   7.455  0.0446  0.3016  0.0297
  251loPI    C1 4001  12.778  16.559  10.304 -0.0516  0.0856 -0.0509
  251loPI    C2 4002  12.673  16.243  10.526  0.0339  0.0048 -0.1249
  251loPI    C3 4003  12.688  16.607  10.691 -0.2977  0.0088 -0.0972
  251loPI   PO4 4004  12.990  16.419  10.158 -0.3801 -0.1140  0.2666
  251loPI   GL1 4005  13.212  16.417   9.712 -0.4842 -0.1403 -0.1779
  251loPI   GL2 4006  13.061  16.040   9.785 -0.0387  0.0602 -0.2047
  251loPI   C1A 4007  13.368  16.878   9.659  0.2665  0.2088  0.1962
  251loPI   C2A 4008  13.521  17.101   9.389  0.2099  0.0014 -0.0742
  251loPI   C3A 4009  13.525  17.349   9.134  0.2086 -0.0382  0.0955
  251loPI   C4A 4010  13.562  17.413   8.763  0.1828 -0.1632  0.1131
  251loPI   C5A 4011  13.734  17.570   8.401  0.2913  0.2093  0.0382
  251loPI   C6A 4012  14.073  17.641   7.972  0.1036 -0.1259  0.0344
  251loPI   C1B 4013  13.117  16.142   9.332  0.1645 -0.2054  0.1103
  251loPI   C2B 4014  13.056  15.946   8.908  0.3439  0.2751 -0.1339
  251loPI   C3B 4015  13.206  15.966   8.471  0.1112  0.0643  0.1390
  251loPI   C4B 4016  13.294  15.930   8.068 -0.1254  0.3285  0.0227
  252loPI    C1 4017   4.800  10.257  10.170 -0.0991 -0.2317  0.0184
  252loPI    C2 4018   4.567  10.126  10.468  0.0495  0.0154  0.2482
  252loPI    C3 4019   4.749  10.481  10.498  0.0766  0.0385 -0.1350
  252loPI   PO4 4020   4.622  10.277   9.885  0.0310 -0.1632  0.2390
  252loPI   GL1 4021   4.599   9.992   9.565 -0.0372  0.1137  0.0463
  252loPI   GL2 4022   4.342   9.832   9.610 -0.1596  0.0279  0.0254
  252loPI   C1A 4023   4.860  10.151   9.180  0.1942 -0.2540  0.0682
  252loPI   C2A 4024   4.840  10.194   8.730  0.1161  0.2287  0.0944
  252loPI   C3A 4025   4.890  10.219   8.351 -0.3772  0.1630  0.3525
  252loPI   C4A 4026   4.619  10.196   8.033  0.1791  0.2928 -0.1543
  252loPI   C5A 4027   4.214  10.242   7.815 -0.2763  0.0047  0.0092
  252loPI   C6A 4028   3.929  10.028   7.552  0.2417  0.2148  0.0099
  252loPI   C1B 4029   4.143   9.548   9.237 -0.2550  0.1422 -0.1565
  252loPI   C2B 4030   4.159   9.344   8.855 -0.0910  0.0012  0.3288
  252loPI   C3B 4031   4.393   9.141   8.562  0.2006  0.1549  0.1959
  252loPI   C4B 4032   4.628   9.041   8.215  0.1447 -0.1426  0.0402
  253loPI    C1 4033  12.749   9.271  10.570 -0.0583 -0.1329  0.0167
  253loPI    C2 4034  12.583   9.536  10.820  0.0167  0.0552 -0.1298
  253loPI    C3 4035  12.981   9.501  10.801  0.0049 -0.1469 -0.0326
  253loPI   PO4 4036  12.514   9.187  10.450  0.3365  0.1790 -0.1325
  253loPI   GL1 4037  12.826   9.119  10.106 -0.2776 -0.3915 -0.0930
  253loPI   GL2 4038  12.554   9.043   9.958 -0.1195  0.1431 -0.0670
  253loPI   C1A 4039  12.957   9.157   9.645 -0.0772 -0.1413  0.2456
  253loPI   C2A 4040  13.104   9.120   9.247 -0.0727 -0.1335  0.5269
  253loPI   C3A 4041  12.940   9.117   8.803  0.3004 -0.1444 -0.3407
  253loPI   C4A 4042  13.042   9.064   8.369 -0.1067  0.0821 -0.1806
  253loPI   C5A 4043  12.946   9.103   7.986 -0.0249 -0.2776  0.0747
  253loPI   C6A 4044  12.702   9.424   7.755  0.0915  0.1572  0.0889
  253loPI   C1B 4045  12.459   9.068   9.522  0.0659 -0.4647  0.0631
  253loPI   C2B 4046  12.467   9.166   9.044 -0.1733  0.0823 -0.0901
  253loPI   C3B 4047  12.384   9.278   8.646  0.0077  0.5749 -0.0467
  253loPI   C4B 4048  12.493   9.331   8.243 -0.1098  0.0857 -0.2218
  254loPI    C1 4049   2.676  15.047  10.477  0.1443 -0.2553 -0.0324
  254loPI    C2 4050   3.060  15.146  10.532 -0.0124  0.3125  0.1119
  254loPI    C3 4051   2.826  15.070  10.847 -0.0065 -0.1107  0.0209
  254loPI   PO4 4052   2.706  15.006  10.198  0.1831  0.1456 -0.2157
  254loPI   GL1 4053   2.553  15.233   9.775 -0.1861  0.1353 -0.1180
  254loPI   GL2 4054   2.487  14.929   9.748 -0.0274 -0.2291 -0.1959
  254loPI   C1A 4055   2.538  15.152   9.313 -0.0091 -0.3167  0.1093
  254loPI   C2A 4056   2.651  15.123   8.813  0.0876  0.0180 -0.0939
  254loPI   C3A 4057   2.856  15.235   8.423 -0.1571  0.2136  0.1203
  254loPI   C4A 4058   2.971  15.396   7.982  0.1708 -0.0244 -0.0396
  254loPI   C5A 4059   2.710  15.796   7.851  0.1423 -0.1987  0.0578
  254loPI   C6A 4060   2.902  16.187   7.632 -0.1162  0.0112  0.0130
  254loPI   C1B 4061   2.794  14.724   9.499 -0.0906  0.1697 -0.1538
  254loPI   C2B 4062   2.972  14.747   9.019  0.1143  0.1932 -0.0029
  254loPI   C3B 4063   3.217  14.947   8.644 -0.2661 -0.3282  0.1032
  254loPI   C4B 4064   3.317  15.031   8.275 -0.0189  0.0400  0.2525
  255loPI    C1 4065   1.577  15.449  10.566  0.0491  0.0482 -0.0304
  255loPI    C2 4066   1.834  15.531  10.861 -0.2949 -0.1486  0.3360
  255loPI    C3 4067   1.736  15.152  10.782 -0.0374 -0.1153 -0.1892
  255loPI   PO4 4068   1.750  15.547  10.305 -0.0490  0.1589  0.2108
  255loPI   GL1 4069   1.803  15.481   9.960 -0.0658 -0.1305  0.0621
  255loPI   GL2 4070   2.050  15.625   9.809  0.2773  0.0578 -0.0053
  255loPI   C1A 4071   1.759  15.351   9.544 -0.1704 -0.2045 -0.3145
  255loPI   C2A 4072   1.765  15.403   9.139 -0.0328  0.1721 -0.0922
  255loPI   C3A 4073   1.741  15.324   8.701 -0.0786  0.3003  0.1600
  255loPI   C4A 4074   1.849  15.376   8.229  0.2719 -0.1029  0.0134
  255loPI   C5A 4075   1.872  15.443   7.748 -0.0313  0.1796  0.2540
  255loPI   C6A 4076   1.888  15.248   7.375  0.0951 -0.0742  0.2475
  255loPI   C1B 4077   2.191  15.517   9.383  0.0369 -0.2014  0.2827
  255loPI   C2B 4078   2.279  15.474   9.002  0.1784 -0.3366 -0.2196
  255loPI   C3B 4079   2.269  15.543   8.535 -0.0755 -0.0766 -0.3681
  255loPI   C4B 4080   2.517  15.550   8.219 -0.0370 -0.0964  0.0335
  256loPI    C1 4081  15.685   8.806  10.731  0.0975  0.0610 -0.1574
  256loPI    C2 4082  15.536   8.441  10.799  0.1639  0.0606 -0.0111
  256loPI    C3 4083  15.742   8.630  11.085  0.2027  0.1779 -0.1157
  256loPI   PO4 4084  15.867   8.774  10.490  0.1074  0.1628 -0.0647
  256loPI   GL1 4085  16.229   8.886  10.171 -0.1512 -0.1010 -0.0453
  256loPI   GL2 4086  16.020   9.167  10.168  0.0114 -0.2177 -0.0543
  256loPI   C1A 4087  16.352   8.824   9.706  0.1078 -0.0342 -0.3626
  256loPI   C2A 4088  16.356   8.862   9.274 -0.0344  0.1320 -0.0787
  256loPI   C3A 4089  16.296   8.998   8.811 -0.2072 -0.1010  0.2889
  256loPI   C4A 4090  16.160   9.193   8.456 -0.2065 -0.0024  0.1873
  256loPI   C5A 4091  16.319   8.991   8.036 -0.1318  0.1438 -0.3772
  256loPI   C6A 4092  16.719   8.895   7.818 -0.2644  0.0810 -0.0568
  256loPI   C1B 4093  15.896   9.024   9.751 -0.1109 -0.0506 -0.4364
  256loPI   C2B 4094  15.722   8.970   9.430 -0.1180  0.0702  0.0727
  256loPI   C3B 4095  15.842   9.003   8.990  0.2682 -0.1469  0.3152
  256loPI   C4B 4096  15.658   9.132   8.621  0.0165 -0.3539 -0.0306
  257loPI    C1 4097  10.961   3.389  10.409 -0.1493  0.2269 -0.1708
  257loPI    C2 4098  10.782   3.629  10.675 -0.1182  0.1685 -0.0966
  257loPI    C3 4099  10.916   3.778  10.328 -0.0077  0.2785 -0.0074
  257loPI   PO4 4100  10.802   3.044  10.365  0.2664 -0.2812 -0.3534
  257loPI   GL1 4101  10.775   2.742  10.086 -0.1261 -0.2163 -0.0462
  257loPI   GL2 4102  10.453   2.936   9.958 -0.3063 -0.1826  0.1810
  257loPI   C1A 4103  10.668   2.518   9.610  0.1165  0.2198 -0.0560
  257loPI   C2A 4104  10.653   2.403   9.280  0.3386  0.1698 -0.0292
  257loPI   C3A 4105  10.819   2.388   8.855  0.0607 -0.1075  0.2355
  257loPI   C4A 4106  10.663   2.450   8.442  0.1041 -0.1600  0.1855
  257loPI   C5A 4107  10.704   2.560   7.982  0.2036 -0.1379 -0.0325
  257loPI   C6A 4108  11.018   2.782   7.794  0.0152  0.1469  0.2257
  257loPI   C1B 4109  10.564   2.990   9.457 -0.0186  0.0852 -0.1064
  257loPI   C2B 4110  10.758   3.243   9.007  0.1357 -0.2952 -0.2362
  257loPI   C3B 4111  10.892   3.412   8.620  0.0602  0.0833 -0.1097
  257loPI   C4B 4112  11.333   3.423   8.445 -0.0418 -0.1899  0.3278
  258loPI    C1 4113   8.196   7.070  10.319  0.1292 -0.0142  0.1927
  258loPI    C2 4114   8.028   7.004  10.676 -0.3787 -0.0117 -0.0374
  258loPI    C3 4115   7.955   7.345  10.480  0.0113  0.0492 -0.0855
  258loPI   PO4 4116   8.199   6.749  10.135  0.2678 -0.1868  0.2393
  258loPI   GL1 4117   8.288   6.560   9.788 -0.0121  0.0016  0.0408
  258loPI   GL2 4118   8.420   6.165   9.765  0.0765  0.0581  0.0871
  258loPI   C1A 4119   8.269   6.681   9.264 -0.1838 -0.0931  0.0338
  258loPI   C2A 4120   8.317   6.588   8.860 -0.0550 -0.0628 -0.1563
  258loPI   C3A 4121   8.329   6.547   8.449  0.0142  0.0667 -0.3960
  258loPI   C4A 4122   8.335   6.782   8.088  0.0588  0.1325  0.1730
  258loPI   C5A 4123   8.400   7.153   7.869 -0.0068 -0.0101  0.3757
  258loPI   C6A 4124   8.773   7.318   7.889 -0.1659 -0.2731  0.1423
  258loPI   C1B 4125   8.550   6.159   9.330 -0.0803 -0.1619  0.0819
  258loPI   C2B 4126   8.507   6.155   8.829  0.0381 -0.0897 -0.0356
  258loPI   C3B 4127   8.551   6.094   8.424 -0.0382  0.2089  0.1324
  258loPI   C4B 4128   8.549   6.317   8.020 -0.0460 -0.0301 -0.0221
  259loPI    C1 4129   6.287  12.751  10.358  0.1026  0.1826  0.0753
  259loPI    C2 4130   6.643  12.647  10.509  0.0674  0.0259  0.0528
  259loPI    C3 4131   6.307  12.542  10.699  0.0305  0.0883  0.0223
  259loPI   PO4 4132   6.235  12.630  10.126  0.0159 -0.0974  0.1517
  259loPI   GL1 4133   6.099  12.351   9.839 -0.4556 -0.0252  0.3383
  259loPI   GL2 4134   6.424  12.400   9.683 -0.1028  0.0756 -0.0886
  259loPI   C1A 4135   6.103  12.189   9.335  0.2054 -0.0071  0.1425
  259loPI   C2A 4136   6.182  12.214   8.881 -0.1111 -0.1333 -0.0521
  259loPI   C3A 4137   6.153  12.268   8.438  0.3696 -0.2235 -0.0020
  259loPI   C4A 4138   5.869  12.460   8.174  0.1182 -0.2357  0.0969
  259loPI   C5A 4139   5.860  12.561   7.733 -0.0290 -0.2500 -0.1871
  259loPI   C6A 4140   5.965  12.288   7.388  0.3546  0.1575  0.1473
  259loPI   C1B 4141   6.553  12.467   9.231  0.3998  0.1835 -0.2573
  259loPI   C2B 4142   6.695  12.339   8.783 -0.1256  0.1429  0.3519
  259loPI   C3B 4143   6.641  12.527   8.374 -0.0283 -0.0260 -0.0372
  259loPI   C4B 4144   6.355  12.583   8.002  0.3217  0.1038  0.3313
  260loPI    C1 4145   8.920   2.363  10.484 -0.1056 -0.0179  0.1136
  260loPI    C2 4146   8.903   2.763  10.473  0.1574 -0.0028  0.1830
  260loPI    C3 4147   8.831   2.569  10.815  0.1135 -0.0106  0.1695
  260loPI   PO4 4148   9.169   2.332  10.433 -0.2561  0.1446  0.0085
  260loPI   GL1 4149   9.524   2.341  10.213 -0.1374 -0.2367  0.0861
  260loPI   GL2 4150   9.818   2.248  10.244  0.1635 -0.1611 -0.0492
  260loPI   C1A 4151   9.635   2.467   9.797  0.0846 -0.1264 -0.1341
  260loPI   C2A 4152   9.714   2.664   9.439  0.1231  0.3020 -0.1607
  260loPI   C3A 4153   9.542   2.549   9.017 -0.2538  0.0267 -0.0159
  260loPI   C4A 4154   9.681   2.632   8.721  0.3554 -0.0918  0.0872
  260loPI   C5A 4155   9.722   2.677   8.342  0.2465  0.2156 -0.2487
  260loPI   C6A 4156   9.622   2.583   7.917  0.0286  0.0549  0.0619
  260loPI   C1B 4157   9.766   2.014   9.895 -0.0204  0.0892  0.1543
  260loPI   C2B 4158   9.742   2.018   9.561 -0.3615  0.0871  0.3358
  260loPI   C3B 4159   9.835   2.080   9.103  0.0689  0.2431  0.1259
  260loPI   C4B 4160   9.909   2.150   8.636 -0.1460 -0.1854  0.1603
  261loPI    C1 4161  12.663   6.058  10.275  0.0299  0.0079  0.1799
  261loPI    C2 4162  12.450   5.841  10.535 -0.0593  0.0834  0.1704
  261loPI    C3 4163  12.848   5.805  10.523 -0.0499  0.1182  0.3541
  261loPI   PO4 4164  12.445   6.281  10.164  0.1447  0.1899 -0.4878
  261loPI   GL1 4165  12.425   6.164   9.802  0.2955 -0.2317 -0.0835
  261loPI   GL2 4166  12.699   5.940   9.768  0.4351 -0.2011  0.0009
  261loPI   C1A 4167  12.040   6.255   9.539  0.1446 -0.1157  0.3039
  261loPI   C2A 4168  11.727   6.463   9.308 -0.0382  0.2441  0.0330
  261loPI   C3A 4169  11.605   6.445   8.869 -0.0870  0.0191  0.0327
  261loPI   C4A 4170  11.743   6.507   8.425 -0.2854 -0.2350  0.1842
  261loPI   C5A 4171  11.739   6.416   7.986  0.2790  0.2556  0.0387
  261loPI   C6A 4172  11.594   6.414   7.620 -0.0700  0.1203  0.1099
  261loPI   C1B 4173  12.940   6.232   9.588 -0.0883 -0.0067  0.1292
  261loPI   C2B 4174  13.310   6.388   9.645  0.0002  0.1334  0.0360
  261loPI   C3B 4175  13.350   6.219   9.258  0.3276  0.3829  0.1186
  261loPI   C4B 4176  12.969   6.158   9.055  0.0507 -0.0630  0.0544
  262loPI    C1 4177  18.328  15.015  10.381 -0.0777 -0.1596  0.0501
  262loPI    C2 4178  18.275  14.968  10.774  0.3501 -0.2474  0.1026
  262loPI    C3 4179  18.495  14.705  10.570  0.2551 -0.1193 -0.1692
  262loPI   PO4 4180  18.153  14.991  10.284  0.1248 -0.0040  0.0357
  262loPI   GL1 4181  18.079  15.014   9.819  0.0043  0.3544 -0.1157
  262loPI   GL2 4182  18.292  15.288   9.927 -0.2351 -0.1782  0.1177
  262loPI   C1A 4183  17.954  15.171   9.372  0.0567  0.3158  0.0563
  262loPI   C2A 4184  17.548  15.197   9.134  0.2517 -0.2780  0.0499
  262loPI   C3A 4185  17.520  15.101   8.655  0.0831 -0.2372 -0.2706
  262loPI   C4A 4186  17.680  15.234   8.228 -0.1298 -0.3480 -0.0137
  262loPI   C5A 4187  17.557  15.380   7.842 -0.0203  0.2424 -0.0518
  262loPI   C6A 4188  17.352  15.299   7.479  0.1201  0.0912  0.1909
  262loPI   C1B 4189  18.332  15.460   9.524 -0.1653 -0.5395 -0.0252
  262loPI   C2B 4190  18.332  15.606   9.084 -0.0830  0.1385  0.2337
  262loPI   C3B 4191  18.281  15.606   8.701 -0.3161  0.0533 -0.0554
  262loPI   C4B 4192  18.139  15.477   8.312 -0.1290  0.2556  0.2090
  263loPI    C1 4193   7.101  11.957  10.444  0.1919 -0.1198 -0.1089
  263loPI    C2 4194   7.019  12.339  10.360 -0.0531 -0.1295  0.0767
  263loPI    C3 4195   7.255  12.248  10.670  0.0765 -0.1269 -0.0206
  263loPI   PO4 4196   7.193  11.856  10.300  0.0127 -0.0752  0.1006
  263loPI   GL1 4197   7.261  11.634   9.902  0.3972 -0.3845 -0.0751
  263loPI   GL2 4198   6.972  11.559   9.893 -0.1767  0.0303  0.2557
  263loPI   C1A 4199   7.475  11.745   9.616  0.1018  0.0858 -0.2976
  263loPI   C2A 4200   7.497  11.758   9.193  0.0758  0.1231  0.1843
  263loPI   C3A 4201   7.377  11.501   8.808 -0.1442 -0.1823  0.0447
  263loPI   C4A 4202   7.250  11.568   8.381  0.2227 -0.1831  0.0206
  263loPI   C5A 4203   7.085  11.612   8.005 -0.1334  0.0438  0.1340
  263loPI   C6A 4204   6.640  11.642   7.874  0.0932 -0.2755  0.0094
  263loPI   C1B 4205   6.974  11.765   9.533 -0.0318  0.2943 -0.1228
  263loPI   C2B 4206   6.965  11.553   9.175 -0.2088 -0.0755  0.2544
  263loPI   C3B 4207   6.793  11.423   8.782  0.2890  0.1745 -0.2012
  263loPI   C4B 4208   6.788  11.471   8.412 -0.1899  0.2364  0.1376
  264loPI    C1 4209   2.976   4.807  10.492  0.2724 -0.0108 -0.0264
  264loPI    C2 4210   2.653   4.660  10.677  0.2452  0.2039  0.1008
  264loPI    C3 4211   2.987   4.732  10.885  0.4294 -0.1629 -0.0589
  264loPI   PO4 4212   2.958   4.686  10.207  0.0139 -0.0845  0.1389
  264loPI   GL1 4213   3.242   4.468   9.946  0.1233  0.1719  0.1311
  264loPI   GL2 4214   3.002   4.617   9.716  0.3632  0.2431 -0.3279
  264loPI   C1A 4215   3.456   4.402   9.514 -0.0756  0.2370 -0.3569
  264loPI   C2A 4216   3.423   4.442   9.086 -0.0851  0.4754 -0.0487
  264loPI   C3A 4217   3.444   4.378   8.656 -0.2465 -0.1786  0.0068
  264loPI   C4A 4218   3.698   4.560   8.256  0.2119 -0.2526  0.0641
  264loPI   C5A 4219   3.957   4.596   7.907 -0.0678  0.4077 -0.3343
  264loPI   C6A 4220   4.446   4.656   7.766 -0.0616 -0.1555  0.1018
  264loPI   C1B 4221   2.991   4.450   9.261  0.4426  0.1346 -0.3322
  264loPI   C2B 4222   2.958   4.338   8.910  0.3194  0.0469  0.2188
  264loPI   C3B 4223   3.040   4.199   8.430 -0.1946 -0.0504 -0.0313
  264loPI   C4B 4224   3.303   4.291   8.064  0.1168  0.0174 -0.1019
  265loPI    C1 4225  15.680  13.053  10.386  0.1273 -0.1124  0.0048
  265loPI    C2 4226  15.727  12.751  10.645  0.3120 -0.0019  0.1023
  265loPI    C3 4227  15.711  13.128  10.778 -0.1481  0.0199  0.0041
  265loPI   PO4 4228  15.572  12.906  10.179 -0.3086  0.4180 -0.2307
  265loPI   GL1 4229  15.583  12.837   9.763  0.2032  0.1197  0.0432
  265loPI   GL2 4230  15.386  13.121   9.730 -0.1293 -0.0584  0.0357
  265loPI   C1A 4231  15.597  12.747   9.426  0.3142 -0.0782 -0.2486
  265loPI   C2A 4232  15.707  12.719   8.961 -0.1999 -0.0687  0.0073
  265loPI   C3A 4233  15.726  12.552   8.580 -0.0103 -0.3455 -0.0043
  265loPI   C4A 4234  15.639  12.567   8.246 -0.1316 -0.1024  0.1859
  265loPI   C5A 4235  15.586  12.229   7.926  0.1317  0.1897  0.2647
  265loPI   C6A 4236  15.867  11.852   7.849  0.1300  0.1133 -0.1536
  265loPI   C1B 4237  15.297  13.100   9.191  0.0449  0.0920 -0.2340
  265loPI   C2B 4238  15.200  12.965   8.783  0.0221 -0.0430 -0.1630
  265loPI   C3B 4239  15.125  13.014   8.356  0.1749  0.0464 -0.2351
  265loPI   C4B 4240  14.856  13.014   7.944  0.2266  0.1932  0.0259
  266loPI    C1 4241   7.810  16.926  11.015  0.0561 -0.0831  0.0678
  266loPI    C2 4242   7.587  17.167  11.244  0.2107  0.1103  0.0177
  266loPI    C3 4243   7.461  16.796  11.162 -0.0952  0.2193 -0.0170
  266loPI   PO4 4244   7.905  17.114  10.814  0.1120  0.1533 -0.3524
  266loPI   GL1 4245   7.943  17.411  10.414 -0.0256 -0.0623 -0.3179
  266loPI   GL2 4246   7.838  17.098  10.268 -0.2174 -0.1063 -0.2132
  266loPI   C1A 4247   8.306  17.342   9.954 -0.0944 -0.0217  0.2350
  266loPI   C2A 4248   8.510  17.295   9.586 -0.0051 -0.1430 -0.0419
  266loPI   C3A 4249   8.571  17.230   9.242 -0.2494 -0.2544 -0.0861
  266loPI   C4A 4250   8.476  17.208   8.780  0.1548  0.0384 -0.2530
  266loPI   C5A 4251   8.391  17.127   8.288  0.1288 -0.0121 -0.0580
  266loPI   C6A 4252   8.197  17.000   7.846 -0.1325 -0.2442  0.0230
  266loPI   C1B 4253   7.878  17.127   9.797  0.0586  0.0859 -0.1270
  266loPI   C2B 4254   8.053  17.196   9.440 -0.1801 -0.2606  0.1562
  266loPI   C3B 4255   8.018  17.254   8.988 -0.1956 -0.1158 -0.0243
  266loPI   C4B 4256   7.956  17.261   8.533 -0.2392 -0.0694 -0.1533
  267loPI    C1 4257  11.518   0.031  10.549 -0.0169 -0.0994  0.1116
  267loPI    C2 4258  11.908   0.094  10.612 -0.0226  0.1093 -0.0493
  267loPI    C3 4259  11.770  -0.279  10.569  0.1800  0.0416 -0.1241
  267loPI   PO4 4260  11.443   0.133  10.381 -0.2463 -0.0644 -0.1125
  267loPI   GL1 4261  11.193   0.059   9.994 -0.1112  0.2371 -0.0687
  267loPI   GL2 4262  11.007  -0.215   9.957 -0.0356 -0.1356  0.2052
  267loPI   C1A 4263  11.217   0.110   9.533  0.4155  0.0135 -0.4331
  267loPI   C2A 4264  11.416   0.234   9.132 -0.2272 -0.0484  0.1811
  267loPI   C3A 4265  11.437   0.207   8.705  0.1984  0.0210  0.2054
  267loPI   C4A 4266  11.261   0.298   8.304  0.0134 -0.0317 -0.2853
  267loPI   C5A 4267  11.289   0.368   7.822  0.0412 -0.2202  0.2736
  267loPI   C6A 4268  11.277   0.375   7.397  0.1441  0.0118  0.1731
  267loPI   C1B 4269  10.979  -0.307   9.511  0.2066  0.1956  0.0372
  267loPI   C2B 4270  11.117  -0.170   9.011  0.2424 -0.3245 -0.0758
  267loPI   C3B 4271  11.022  -0.084   8.578 -0.0391 -0.0985 -0.0422
  267loPI   C4B 4272  10.821  -0.323   8.305 -0.0804 -0.0593  0.3562
  268loPI    C1 4273   9.109   8.518  10.536 -0.1337 -0.0982  0.1373
  268loPI    C2 4274   9.084   8.648  10.913  0.0630  0.1027  0.0834
  268loPI    C3 4275   9.431   8.672  10.716  0.0072 -0.1672 -0.0522
  268loPI   PO4 4276   8.904   8.576  10.395  0.3208  0.1353 -0.2507
  268loPI   GL1 4277   8.929   8.726  10.089 -0.1437  0.3297 -0.0605
  268loPI   GL2 4278   9.153   8.394  10.023  0.0729 -0.0132  0.0902
  268loPI   C1A 4279   8.819   8.617   9.703 -0.2109 -0.4241 -0.0768
  268loPI   C2A 4280   8.991   8.703   9.310  0.0603 -0.2050 -0.3050
  268loPI   C3A 4281   8.898   8.828   8.971  0.1788  0.1227  0.0807
  268loPI   C4A 4282   8.680   8.854   8.559 -0.0335  0.1802 -0.0169
  268loPI   C5A 4283   8.698   8.736   8.150  0.1651 -0.2144  0.0252
  268loPI   C6A 4284   8.770   8.792   7.716 -0.3128  0.1545  0.0641
  268loPI   C1B 4285   9.321   8.672   9.701 -0.0245  0.1723 -0.1653
  268loPI   C2B 4286   9.508   8.506   9.288 -0.2022 -0.1226  0.1644
  268loPI   C3B 4287   9.479   8.616   9.021  0.0742 -0.0205  0.1290
  268loPI   C4B 4288   9.574   8.813   8.666 -0.2752 -0.3804 -0.1075
  269loPI    C1 4289   4.785   2.139  10.552  0.1532 -0.0613 -0.2512
  269loPI    C2 4290   5.112   1.910  10.525  0.2605  0.0746 -0.1243
  269loPI    C3 4291   4.999   2.057  10.880  0.0276 -0.0190 -0.1578
  269loPI   PO4 4292   4.903   2.330  10.360 -0.0659 -0.0250  0.0896
  269loPI   GL1 4293   5.009   2.564  10.013 -0.0092  0.0469  0.0437
  269loPI   GL2 4294   4.792   2.775  10.047  0.0944  0.0270  0.0119
  269loPI   C1A 4295   4.922   2.410   9.614 -0.1981 -0.0407 -0.0816
  269loPI   C2A 4296   4.999   2.454   9.156  0.4242  0.3892  0.2089
  269loPI   C3A 4297   5.141   2.609   8.780 -0.2337 -0.0813 -0.1752
  269loPI   C4A 4298   5.522   2.627   8.492 -0.1403  0.0856 -0.3547
  269loPI   C5A 4299   5.812   2.941   8.328 -0.0158  0.1397 -0.0424
  269loPI   C6A 4300   6.100   3.094   8.126 -0.0089 -0.0313 -0.0334
  269loPI   C1B 4301   4.687   2.893   9.639  0.0577 -0.1881  0.1906
  269loPI   C2B 4302   4.886   2.993   9.292 -0.0412 -0.0812  0.0605
  269loPI   C3B 4303   4.926   3.112   8.847  0.2197 -0.0161  0.0287
  269loPI   C4B 4304   4.930   3.172   8.493 -0.2474 -0.1536 -0.1347
  270loPI    C1 4305   1.839  16.551  10.484  0.1365  0.3199 -0.1654
  270loPI    C2 4306   1.501  16.747  10.569  0.0028  0.0617 -0.0921
  270loPI    C3 4307   1.822  16.790  10.805 -0.1110 -0.0175  0.0789
  270loPI   PO4 4308   1.886  16.575  10.281 -0.1877 -0.1775 -0.0004
  270loPI   GL1 4309   1.629  16.747  10.020  0.3256 -0.0585  0.2650
  270loPI   GL2 4310   1.764  16.981   9.979  0.0478  0.3837 -0.1217
  270loPI   C1A 4311   1.461  16.709   9.508 -0.0925  0.0318  0.1202
  270loPI   C2A 4312   1.254  16.732   9.103 -0.1222  0.2397 -0.0821
  270loPI   C3A 4313   1.228  16.759   8.676  0.0504 -0.0658  0.0431
  270loPI   C4A 4314   1.149  16.827   8.222 -0.1348 -0.2783  0.1616
  270loPI   C5A 4315   0.910  16.753   7.872  0.2303  0.1047  0.0929
  270loPI   C6A 4316   0.518  16.733   7.638  0.0230  0.1328  0.0695
  270loPI   C1B 4317   1.983  16.820   9.581  0.0376  0.2060 -0.1466
  270loPI   C2B 4318   1.796  16.714   9.161 -0.0822 -0.3079  0.0576
  270loPI   C3B 4319   1.862  16.711   8.696  0.0791 -0.1669  0.0349
  270loPI   C4B 4320   1.766  16.705   8.223  0.0168 -0.0738 -0.1202
  271loPI    C1 4321  13.265   3.032  10.641  0.1255 -0.1074  0.0355
  271loPI    C2 4322  13.403   2.979  11.012  0.0026  0.0243  0.1011
  271loPI    C3 4323  13.073   3.196  10.951  0.0272  0.0104 -0.0862
  271loPI   PO4 4324  13.198   2.820  10.506 -0.0563 -0.1728  0.1806
  271loPI   GL1 4325  13.119   2.562  10.061  0.0334  0.1176  0.0948
  271loPI   GL2 4326  12.935   2.348  10.002 -0.2044  0.1147 -0.2548
  271loPI   C1A 4327  13.404   2.581   9.684  0.1024  0.2113  0.1222
  271loPI   C2A 4328  13.634   2.654   9.257  0.2377  0.0004 -0.0107
  271loPI   C3A 4329  13.614   3.017   8.964  0.0428  0.0977 -0.1039
  271loPI   C4A 4330  13.580   3.187   8.585  0.0165  0.0589 -0.0215
  271loPI   C5A 4331  13.338   3.356   8.200  0.2192  0.1592 -0.3774
  271loPI   C6A 4332  13.415   3.523   7.879  0.0356  0.2366 -0.0156
  271loPI   C1B 4333  12.790   2.484   9.605  0.1435  0.0717 -0.0308
  271loPI   C2B 4334  12.821   2.377   9.131  0.1115 -0.1661  0.0490
  271loPI   C3B 4335  12.808   2.393   8.711 -0.0319  0.0397  0.2468
  271loPI   C4B 4336  12.889   2.386   8.322 -0.0761  0.1325 -0.0858
  272loPI    C1 4337  17.436   7.618  10.529 -0.0365  0.1557  0.0495
  272loPI    C2 4338  17.430   8.018  10.526 -0.0615  0.1547 -0.1196
  272loPI    C3 4339  17.174   7.817  10.758 -0.0836  0.2360 -0.0728
  272loPI   PO4 4340  17.592   7.558  10.347 -0.2012 -0.1545 -0.0938
  272loPI   GL1 4341  17.731   7.808  10.010 -0.2770  0.3178 -0.1320
  272loPI   GL2 4342  17.890   7.886   9.743  0.0362  0.2107 -0.0161
  272loPI   C1A 4343  17.523   7.585   9.754  0.0760  0.1506  0.2968
  272loPI   C2A 4344  17.422   7.360   9.377 -0.1459 -0.0524  0.1509
  272loPI   C3A 4345  17.315   7.396   8.982 -0.1108  0.1167  0.0390
  272loPI   C4A 4346  17.258   7.220   8.599  0.1031  0.0336  0.0167
  272loPI   C5A 4347  17.235   7.363   8.171  0.1322 -0.0429  0.0653
  272loPI   C6A 4348  16.992   7.470   7.762 -0.2467 -0.2023  0.2323
  272loPI   C1B 4349  17.659   7.853   9.350 -0.0806 -0.1243 -0.0269
  272loPI   C2B 4350  17.570   8.128   9.025  0.0960 -0.0580 -0.0636
  272loPI   C3B 4351  17.788   8.039   8.591  0.3519 -0.2406 -0.0816
  272loPI   C4B 4352  18.075   7.853   8.326 -0.0955 -0.0812 -0.1154
  273loPI    C1 4353   5.109   3.303  10.548 -0.0654 -0.2948  0.1251
  273loPI    C2 4354   5.486   3.183  10.489 -0.0371 -0.1855  0.0795
  273loPI    C3 4355   5.373   3.315  10.849  0.0839  0.1884 -0.0147
  273loPI   PO4 4356   4.915   3.195  10.315 -0.0522 -0.1278  0.1577
  273loPI   GL1 4357   4.667   3.487  10.056 -0.1181 -0.0276  0.1657
  273loPI   GL2 4358   4.982   3.313   9.860  0.1040 -0.1212 -0.3837
  273loPI   C1A 4359   4.567   3.445   9.587 -0.1254  0.2125 -0.0980
  273loPI   C2A 4360   4.568   3.427   9.088  0.1292 -0.2642 -0.2029
  273loPI   C3A 4361   4.511   3.469   8.745 -0.0326 -0.1371 -0.0221
  273loPI   C4A 4362   4.594   3.535   8.361 -0.0448 -0.0366 -0.2815
  273loPI   C5A 4363   4.574   3.294   8.097 -0.0480 -0.2925 -0.1952
  273loPI   C6A 4364   4.567   2.899   7.986 -0.4257  0.0771 -0.0538
  273loPI   C1B 4365   5.063   3.401   9.510  0.3265 -0.0789 -0.1260
  273loPI   C2B 4366   5.076   3.459   9.159  0.3564  0.0504 -0.1406
  273loPI   C3B 4367   5.052   3.601   8.697 -0.0566 -0.1292 -0.0280
  273loPI   C4B 4368   5.107   3.839   8.291 -0.1058 -0.0429 -0.1853
  274loPI    C1 4369   6.259   6.389  10.576 -0.0618 -0.0446  0.1820
  274loPI    C2 4370   6.643   6.494  10.536 -0.0966  0.0207  0.0112
  274loPI    C3 4371   6.538   6.110  10.508 -0.0227 -0.0170  0.2284
  274loPI   PO4 4372   6.148   6.580  10.439  0.2041  0.0392  0.1145
  274loPI   GL1 4373   5.994   6.662   9.979  0.2539  0.0601 -0.1126
  274loPI   GL2 4374   5.743   6.397   9.910  0.2738  0.1666 -0.0999
  274loPI   C1A 4375   5.943   6.631   9.513 -0.0030  0.0182 -0.0322
  274loPI   C2A 4376   6.262   6.515   9.282  0.0828 -0.0107  0.0877
  274loPI   C3A 4377   6.254   6.511   8.853 -0.4026 -0.1935 -0.0670
  274loPI   C4A 4378   5.949   6.844   8.609  0.1494 -0.2557 -0.1113
  274loPI   C5A 4379   5.877   7.114   8.284  0.3788 -0.0806 -0.1612
  274loPI   C6A 4380   5.814   7.265   7.888 -0.1210 -0.1131  0.0342
  274loPI   C1B 4381   5.450   6.557   9.526  0.2283  0.0518  0.1090
  274loPI   C2B 4382   5.229   6.652   9.153 -0.0204  0.0164  0.0715
  274loPI   C3B 4383   5.397   6.793   8.741 -0.2036 -0.0564 -0.1676
  274loPI   C4B 4384   5.378   7.119   8.503  0.4895  0.2998  0.0359
  275loPI    C1 4385  10.267   6.554  10.787 -0.2151 -0.0370 -0.1884
  275loPI    C2 4386  10.012   6.448  11.076  0.0294 -0.1907 -0.0253
  275loPI    C3 4387  10.201   6.167  10.863  0.1306 -0.0789 -0.0842
  275loPI   PO4 4388  10.138   6.694  10.608  0.0674  0.1908 -0.1913
  275loPI   GL1 4389  10.096   6.631  10.222  0.2103 -0.0428  0.0121
  275loPI   GL2 4390  10.012   6.259  10.078  0.2808 -0.0875  0.2915
  275loPI   C1A 4391  10.290   6.809   9.829 -0.2872 -0.2305  0.1925
  275loPI   C2A 4392  10.242   6.693   9.357 -0.1142  0.2475 -0.1007
  275loPI   C3A 4393  10.148   6.695   8.940  0.0533  0.0236  0.2410
  275loPI   C4A 4394  10.210   6.731   8.467  0.0300 -0.0133  0.0467
  275loPI   C5A 4395  10.357   6.667   8.158  0.1429  0.0959 -0.2459
  275loPI   C6A 4396  10.623   6.520   7.723  0.0767  0.2979 -0.1037
  275loPI   C1B 4397   9.887   6.236   9.630 -0.1628 -0.2573 -0.2619
  275loPI   C2B 4398   9.866   6.271   9.156  0.1841  0.2557  0.0650
  275loPI   C3B 4399   9.827   6.397   8.721  0.0105  0.0132  0.2019
  275loPI   C4B 4400   9.662   6.309   8.305 -0.4079  0.1909 -0.0191
  276loPI    C1 4401  14.836  14.562  10.667  0.0010  0.0400 -0.0406
  276loPI    C2 4402  14.523  14.615  10.910  0.0861  0.3029  0.0144
  276loPI    C3 4403  14.893  14.692  11.041  0.1739  0.0105 -0.0559
  276loPI   PO4 4404  14.652  14.744  10.456  0.3740 -0.1409  0.2307
  276loPI   GL1 4405  14.628  14.850  10.019 -0.3666  0.1919 -0.0695
  276loPI   GL2 4406  14.675  14.466  10.048  0.1473 -0.0761  0.2382
  276loPI   C1A 4407  14.553  14.957   9.613  0.0150  0.1706 -0.0184
  276loPI   C2A 4408  14.548  14.970   9.166 -0.0896 -0.1189 -0.0319
  276loPI   C3A 4409  14.371  14.977   8.809 -0.1840 -0.1250  0.0515
  276loPI   C4A 4410  14.166  14.925   8.370 -0.0328 -0.2205 -0.0155
  276loPI   C5A 4411  14.281  14.847   7.922  0.2950 -0.1880  0.1104
  276loPI   C6A 4412  14.366  14.698   7.454  0.1268 -0.1046 -0.0182
  276loPI   C1B 4413  14.826  14.413   9.642  0.0338 -0.0559 -0.0455
  276loPI   C2B 4414  14.811  14.545   9.175 -0.1358  0.2800  0.0699
  276loPI   C3B 4415  14.784  14.403   8.703 -0.1487  0.3046 -0.2011
  276loPI   C4B 4416  14.443  14.532   8.400 -0.4770  0.0015 -0.2922
  277loPI    C1 4417   9.658  15.794  10.805  0.1307  0.1214  0.0149
  277loPI    C2 4418   9.923  15.512  10.909  0.1147  0.0781 -0.0607
  277loPI    C3 4419   9.621  15.604  11.155  0.2336  0.1697  0.0525
  277loPI   PO4 4420   9.573  15.750  10.569  0.0507  0.0090  0.2066
  277loPI   GL1 4421   9.611  16.012  10.152 -0.1428 -0.1956 -0.1624
  277loPI   GL2 4422   9.510  15.707  10.053 -0.0360  0.1082  0.4213
  277loPI   C1A 4423   9.472  16.082   9.813 -0.2241 -0.0573  0.2291
  277loPI   C2A 4424   9.467  16.096   9.348 -0.3676  0.1372  0.1982
  277loPI   C3A 4425   9.441  16.151   8.914  0.0474  0.0303  0.2737
  277loPI   C4A 4426   9.394  15.978   8.498  0.1002  0.2757  0.3769
  277loPI   C5A 4427   9.422  15.980   8.076 -0.5016  0.2651  0.0348
  277loPI   C6A 4428   9.257  16.321   7.965 -0.0844  0.1168  0.1286
  277loPI   C1B 4429   9.561  15.637   9.588  0.0645  0.2243  0.1742
  277loPI   C2B 4430   9.501  15.582   9.079 -0.0579 -0.1547  0.3172
  277loPI   C3B 4431   9.686  15.634   8.700 -0.1677  0.0784  0.2777
  277loPI   C4B 4432   9.730  15.638   8.275 -0.0306  0.3259  0.1271
  278loPI    C1 4433  15.663   1.153  10.525 -0.1543 -0.3038 -0.0673
  278loPI    C2 4434  15.493   1.385  10.803  0.0235 -0.0173 -0.1918
  278loPI    C3 4435  15.869   1.258  10.852  0.0411 -0.0002 -0.2815
  278loPI   PO4 4436  15.600   1.296  10.329 -0.1925  0.0965  0.1644
  278loPI   GL1 4437  15.631   1.365   9.939  0.2000  0.0692  0.2168
  278loPI   GL2 4438  15.583   1.746   9.837 -0.2576  0.1190  0.1837
  278loPI   C1A 4439  15.747   1.292   9.585 -0.2142 -0.1492 -0.0171
  278loPI   C2A 4440  15.758   1.357   9.113  0.2127 -0.0047  0.4064
  278loPI   C3A 4441  16.033   1.651   8.821 -0.0722 -0.3432  0.0465
  278loPI   C4A 4442  16.055   1.702   8.363  0.2394 -0.1614 -0.2636
  278loPI   C5A 4443  16.178   1.900   7.830 -0.0536  0.2253  0.0249
  278loPI   C6A 4444  16.657   1.957   7.817  0.0724  0.2019  0.0558
  278loPI   C1B 4445  15.567   1.726   9.391 -0.1167  0.0269 -0.0772
  278loPI   C2B 4446  15.666   1.978   8.978 -0.1728 -0.2279  0.1163
  278loPI   C3B 4447  15.633   1.916   8.504  0.2421  0.1030  0.0008
  278loPI   C4B 4448  15.730   2.034   8.082 -0.1697  0.1083 -0.0566
  279loPI    C1 4449   0.043  15.864  10.256 -0.0460 -0.2005  0.0911
  279loPI    C2 4450   0.160  15.812  10.635 -0.1984 -0.0419  0.1616
  279loPI    C3 4451   0.122  16.181  10.486  0.0569 -0.1064 -0.0723
  279loPI   PO4 4452   0.101  15.618  10.141 -0.0980 -0.4597 -0.1389
  279loPI   GL1 4453   0.386  15.663   9.672 -0.3096 -0.2350  0.0294
  279loPI   GL2 4454   0.122  15.869   9.695  0.0066 -0.0553 -0.0568
  279loPI   C1A 4455   0.333  15.489   9.305  0.3804  0.1954 -0.0375
  279loPI   C2A 4456   0.291  15.649   8.854  0.1195  0.0868  0.0715
  279loPI   C3A 4457   0.174  15.521   8.320 -0.3508 -0.0356 -0.1690
  279loPI   C4A 4458   0.425  15.474   7.940  0.0529 -0.1189  0.2125
  279loPI   C5A 4459   0.839  15.306   7.857  0.0099  0.1282 -0.1084
  279loPI   C6A 4460   0.934  14.989   7.609 -0.2336 -0.2712  0.0625
  279loPI   C1B 4461   0.175  15.981   9.279  0.4157  0.0251 -0.0500
  279loPI   C2B 4462   0.057  16.136   8.875  0.1718 -0.2100  0.3120
  279loPI   C3B 4463   0.033  15.945   8.439 -0.1920 -0.1748 -0.1976
  279loPI   C4B 4464   0.324  15.984   8.015  0.1551  0.0345  0.1267
  280loPI    C1 4465  16.961   0.317  10.799 -0.0145 -0.3494 -0.1535
  280loPI    C2 4466  16.605   0.492  10.746  0.0835 -0.1414 -0.1341
  280loPI    C3 4467  16.858   0.633  11.021  0.0075 -0.5567  0.1580
  280loPI   PO4 4468  17.129   0.307  10.506  0.0433 -0.1035  0.1469
  280loPI   GL1 4469  17.369   0.289  10.047 -0.1791  0.0720  0.1932
  280loPI   GL2 4470  17.105   0.460  10.008  0.1314  0.1095  0.2632
  280loPI   C1A 4471  17.530   0.134   9.648 -0.2112 -0.1706 -0.1151
  280loPI   C2A 4472  17.680  -0.111   9.298  0.1621 -0.1865 -0.0066
  280loPI   C3A 4473  17.682  -0.123   8.860 -0.1673 -0.0024 -0.1909
  280loPI   C4A 4474  17.543   0.142   8.488  0.0427  0.2496  0.0030
  280loPI   C5A 4475  17.761   0.336   8.163  0.1228  0.1261 -0.1468
  280loPI   C6A 4476  18.079   0.013   8.051 -0.0657  0.0440 -0.0067
  280loPI   C1B 4477  17.001   0.431   9.605 -0.0458 -0.1051  0.0764
  280loPI   C2B 4478  16.918   0.427   9.243  0.2728  0.2400  0.0264
  280loPI   C3B 4479  16.654   0.355   8.829  0.0284  0.1609 -0.0762
  280loPI   C4B 4480  16.402   0.293   8.505 -0.0437  0.0543  0.1887
  281loPI    C1 4481  16.865   2.440  10.188  0.0907  0.0607  0.1303
  281loPI    C2 4482  16.773   2.653  10.514 -0.1936  0.0973  0.0288
  281loPI    C3 4483  17.067   2.775  10.272  0.0438  0.0497  0.2889
  281loPI   PO4 4484  16.702   2.389  10.071 -0.1316 -0.1377  0.0294
  281loPI   GL1 4485  16.594   2.375   9.688 -0.1851 -0.1222 -0.0138
  281loPI   GL2 4486  16.233   2.328   9.521 -0.3730  0.0146  0.0142
  281loPI   C1A 4487  16.629   2.647   9.343  0.2320  0.1669  0.0068
  281loPI   C2A 4488  16.848   2.738   8.944 -0.0774  0.1854 -0.0070
  281loPI   C3A 4489  17.113   2.569   8.634  0.0805  0.4007 -0.1095
  281loPI   C4A 4490  17.356   2.156   8.571  0.2712 -0.1130 -0.0035
  281loPI   C5A 4491  17.573   1.953   8.327 -0.1629  0.0899 -0.1935
  281loPI   C6A 4492  17.830   2.028   7.964  0.0169  0.3504  0.0178
  281loPI   C1B 4493  16.134   2.184   9.053 -0.2522 -0.2649  0.0605
  281loPI   C2B 4494  16.372   2.175   8.622  0.0493  0.2303 -0.3484
  281loPI   C3B 4495  16.483   2.233   8.194 -0.0094  0.0709 -0.1389
  281loPI   C4B 4496  16.852   2.375   8.062 -0.6054  0.2551 -0.1417
  282loPI    C1 4497   1.677  15.007  10.350 -0.3593  0.2071 -0.1186
  282loPI    C2 4498   1.341  14.990  10.567 -0.1051  0.1880  0.2846
  282loPI    C3 4499   1.632  14.721  10.626 -0.0477  0.1547 -0.1183
  282loPI   PO4 4500   1.505  15.092  10.124 -0.0639 -0.0806  0.0093
  282loPI   GL1 4501   1.366  15.026   9.819 -0.2740 -0.0285  0.1480
  282loPI   GL2 4502   1.563  14.943   9.583  0.4329  0.0706  0.2336
  282loPI   C1A 4503   1.144  15.207   9.552  0.0031  0.0873  0.0508
  282loPI   C2A 4504   1.216  15.145   9.128 -0.1514  0.0424 -0.1254
  282loPI   C3A 4505   1.039  15.041   8.821 -0.0345 -0.0257  0.1271
  282loPI   C4A 4506   0.714  14.651   8.597  0.0482 -0.1304 -0.0975
  282loPI   C5A 4507   0.843  14.187   8.611  0.1821  0.0745  0.1413
  282loPI   C6A 4508   0.924  13.837   8.939  0.1959  0.0238  0.1110
  282loPI   C1B 4509   1.579  14.819   9.070 -0.0959 -0.1327 -0.3202
  282loPI   C2B 4510   1.676  14.829   8.615  0.1944 -0.4343  0.2518
  282loPI   C3B 4511   1.810  14.868   8.182 -0.2687  0.0401 -0.0973
  282loPI   C4B 4512   1.905  14.930   7.777 -0.0191 -0.2609 -0.0131
  283loPI    C1 4513   5.431  18.411  10.616 -0.2132 -0.0756 -0.2538
  283loPI    C2 4514   5.090  18.582  10.735 -0.0745  0.0565 -0.0376
  283loPI    C3 4515   5.226  18.256  10.923  0.0014  0.0997 -0.0174
  283loPI   PO4 4516   5.427  18.318  10.416  0.0944  0.0798  0.1540
  283loPI   GL1 4517   5.611  18.203   9.977 -0.0355 -0.1740 -0.1600
  283loPI   GL2 4518   5.396  18.492   9.908  0.0500  0.2775 -0.2601
  283loPI   C1A 4519   5.718  18.150   9.450  0.3182  0.2166 -0.0969
  283loPI   C2A 4520   5.648  18.139   9.026  0.2058 -0.0866 -0.0802
  283loPI   C3A 4521   5.604  18.014   8.628 -0.3641  0.0039 -0.4385
  283loPI   C4A 4522   5.542  18.248   8.347  0.2652  0.0909  0.1146
  283loPI   C5A 4523   5.348  18.195   8.037  0.0062 -0.0760  0.0090
  283loPI   C6A 4524   4.963  18.055   7.859 -0.2950 -0.3391  0.1531
  283loPI   C1B 4525   5.460  18.551   9.603 -0.0233 -0.1758  0.1136
  283loPI   C2B 4526   5.608  18.687   9.284 -0.2148  0.1374  0.1262
  283loPI   C3B 4527   5.634  18.550   8.804  0.1038 -0.2200 -0.1361
  283loPI   C4B 4528   5.609  18.719   8.340  0.0163 -0.1426  0.2901
  284loPI    C1 4529  14.935  15.425  10.582 -0.1108 -0.0454  0.1481
  284loPI    C2 4530  14.729  15.139  10.771 -0.3255 -0.0079 -0.0251
  284loPI    C3 4531  14.639  15.525  10.833 -0.1317  0.0187  0.0983
  284loPI   PO4 4532  15.238  15.357  10.562 -0.0910 -0.1695 -0.0705
  284loPI   GL1 4533  15.489  15.394  10.171 -0.1839 -0.1266 -0.2983
  284loPI   GL2 4534  15.483  15.132  10.130 -0.1400  0.0035  0.1211
  284loPI   C1A 4535  15.284  15.496   9.851  0.1601  0.0381 -0.1845
  284loPI   C2A 4536  15.238  15.488   9.462  0.0543 -0.3986 -0.3739
  284loPI   C3A 4537  15.240  15.439   9.056 -0.3075 -0.1620 -0.1509
  284loPI   C4A 4538  15.161  15.341   8.567  0.0740 -0.0717 -0.0514
  284loPI   C5A 4539  15.144  15.263   8.064 -0.0462 -0.1390 -0.0078
  284loPI   C6A 4540  15.204  15.421   7.621  0.1341  0.1740 -0.0809
  284loPI   C1B 4541  15.571  15.110   9.652 -0.0361 -0.2859  0.0822
  284loPI   C2B 4542  15.546  15.007   9.215  0.1775  0.0804 -0.1125
  284loPI   C3B 4543  15.476  14.958   8.755 -0.0173  0.1946 -0.0235
  284loPI   C4B 4544  15.372  14.898   8.264 -0.0422 -0.0347  0.0433
  285loPI    C1 4545   8.606   4.284  10.392  0.0218 -0.1118 -0.0033
  285loPI    C2 4546   8.677   4.377  10.010  0.3333 -0.1815  0.0347
  285loPI    C3 4547   8.832   4.601  10.303  0.0595 -0.1026  0.1225
  285loPI   PO4 4548   8.439   4.074  10.339  0.1588 -0.2285  0.0213
  285loPI   GL1 4549   8.301   4.065   9.889  0.1748 -0.2053  0.0174
  285loPI   GL2 4550   8.170   3.952   9.624 -0.0792 -0.0387 -0.0719
  285loPI   C1A 4551   8.695   4.000   9.649  0.1620  0.0705 -0.1682
  285loPI   C2A 4552   8.812   3.757   9.314 -0.1091 -0.1452  0.1373
  285loPI   C3A 4553   8.818   3.676   8.846 -0.0129  0.4649 -0.1028
  285loPI   C4A 4554   8.787   3.671   8.406 -0.0539  0.1015  0.0156
  285loPI   C5A 4555   8.700   3.639   7.986  0.2459 -0.0782 -0.1484
  285loPI   C6A 4556   8.280   3.521   7.749 -0.0164 -0.0781 -0.1537
  285loPI   C1B 4557   8.309   3.865   9.270 -0.0386  0.3786  0.2737
  285loPI   C2B 4558   8.279   3.892   8.789 -0.3235  0.2167  0.1826
  285loPI   C3B 4559   8.120   3.969   8.480  0.0952  0.1790 -0.0028
  285loPI   C4B 4560   8.134   3.773   8.155 -0.1689  0.0799 -0.2561
  286loPI    C1 4561   2.421   6.047   9.931 -0.0781 -0.0779 -0.0550
  286loPI    C2 4562   2.251   5.896  10.260 -0.0093  0.1000  0.0635
  286loPI    C3 4563   2.403   6.266  10.265 -0.0459  0.1200 -0.1814
  286loPI   PO4 4564   2.501   5.854   9.860 -0.3816 -0.0250 -0.1512
  286loPI   GL1 4565   2.710   5.644   9.477  0.2463  0.0483 -0.1115
  286loPI   GL2 4566   2.926   5.495   9.483 -0.0995 -0.0153 -0.0601
  286loPI   C1A 4567   2.744   5.806   9.124 -0.2602 -0.4585  0.1623
  286loPI   C2A 4568   2.776   5.923   8.786  0.3428 -0.1082  0.3049
  286loPI   C3A 4569   2.798   5.789   8.470  0.0835 -0.2178  0.2239
  286loPI   C4A 4570   2.839   5.776   8.052 -0.3634 -0.0687 -0.2665
  286loPI   C5A 4571   2.753   5.526   7.719  0.1087  0.1619 -0.1928
  286loPI   C6A 4572   2.408   5.359   7.646 -0.0152 -0.0492  0.0003
  286loPI   C1B 4573   3.036   5.339   9.132 -0.1370 -0.1279 -0.2281
  286loPI   C2B 4574   3.032   5.379   8.700  0.0467 -0.1110 -0.1960
  286loPI   C3B 4575   2.892   5.294   8.155 -0.1724  0.0605 -0.3196
  286loPI   C4B 4576   3.200   5.165   7.731 -0.3327  0.1684  0.7948
  287loPI    C1 4577   6.488   1.991  10.594 -0.2252  0.2681 -0.2196
  287loPI    C2 4578   6.172   2.029  10.836  0.0247  0.1802  0.1290
  287loPI    C3 4579   6.540   2.101  10.975  0.2267 -0.4199 -0.0630
  287loPI   PO4 4580   6.317   2.058  10.380 -0.1275  0.0326 -0.0411
  287loPI   GL1 4581   6.074   2.040   9.995 -0.0691  0.1070  0.0134
  287loPI   GL2 4582   5.924   2.310   9.923 -0.0445  0.0514  0.2137
  287loPI   C1A 4583   6.168   1.734   9.634 -0.1589  0.2220 -0.1585
  287loPI   C2A 4584   6.219   1.479   9.264  0.1650 -0.0417  0.2246
  287loPI   C3A 4585   6.134   1.566   8.844 -0.1309 -0.0563  0.2547
  287loPI   C4A 4586   6.307   1.608   8.358  0.2927 -0.1054 -0.4375
  287loPI   C5A 4587   6.082   1.672   8.064  0.1087  0.0953 -0.3490
  287loPI   C6A 4588   5.921   1.809   7.672  0.0698 -0.2425  0.0463
  287loPI   C1B 4589   6.039   2.167   9.423 -0.1341  0.4517  0.2760
  287loPI   C2B 4590   6.150   2.372   9.049 -0.0791  0.3518 -0.0598
  287loPI   C3B 4591   5.962   2.423   8.624  0.1520  0.0421 -0.0955
  287loPI   C4B 4592   6.066   2.561   8.194  0.0673 -0.2373  0.1412
  288loPI    C1 4593   9.369   3.471  10.519 -0.1064  0.0369  0.0309
  288loPI    C2 4594   9.449   3.841  10.649  0.3870 -0.0556  0.0120
  288loPI    C3 4595   9.144   3.636  10.805  0.0262  0.4019 -0.0681
  288loPI   PO4 4596   9.329   3.493  10.281 -0.0682  0.1362 -0.2463
  288loPI   GL1 4597   9.571   3.609   9.911 -0.0605 -0.1022 -0.0153
  288loPI   GL2 4598   9.688   3.475   9.648 -0.0272 -0.1969  0.4159
  288loPI   C1A 4599   9.266   3.660   9.465 -0.2668 -0.2065  0.5816
  288loPI   C2A 4600   9.225   3.706   9.050 -0.0579  0.3300  0.2005
  288loPI   C3A 4601   9.308   3.602   8.595  0.0999  0.0106  0.0745
  288loPI   C4A 4602   9.307   3.606   8.127  0.4641  0.3514  0.0235
  288loPI   C5A 4603   9.461   3.631   7.753  0.0461  0.1078  0.0062
  288loPI   C6A 4604   9.812   3.705   7.412 -0.0810 -0.1753  0.3486
  288loPI   C1B 4605   9.877   3.497   9.211  0.0555 -0.2715  0.1109
  288loPI   C2B 4606   9.862   3.515   8.742 -0.0834 -0.0693 -0.1252
  288loPI   C3B 4607   9.821   3.549   8.390 -0.1102 -0.1004  0.1358
  288loPI   C4B 4608   9.943   3.549   7.969  0.1054  0.2537  0.2514
  289loPI    C1 4609   2.312  14.190  10.421 -0.0306 -0.0449  0.0767
  289loPI    C2 4610   1.983  14.333  10.596  0.0766  0.2780  0.0206
  289loPI    C3 4611   2.320  14.293  10.807  0.0285  0.0349  0.0544
  289loPI   PO4 4612   2.265  14.043  10.187 -0.0673  0.3443 -0.0196
  289loPI   GL1 4613   1.982  14.111   9.807  0.0898  0.0716 -0.1025
  289loPI   GL2 4614   1.791  14.381   9.712  0.2023 -0.2227  0.1728
  289loPI   C1A 4615   2.180  14.082   9.468 -0.2742  0.0574 -0.4453
  289loPI   C2A 4616   2.426  14.083   9.079 -0.2087 -0.1606  0.1311
  289loPI   C3A 4617   2.527  14.167   8.750  0.0811 -0.1138 -0.0975
  289loPI   C4A 4618   2.570  14.254   8.365 -0.2085 -0.2367  0.0271
  289loPI   C5A 4619   2.794  14.387   7.838  0.0667  0.3949  0.1575
  289loPI   C6A 4620   2.919  14.107   7.544  0.2536 -0.2242 -0.1976
  289loPI   C1B 4621   1.898  14.480   9.311 -0.3923  0.0216 -0.0177
  289loPI   C2B 4622   2.088  14.413   8.879 -0.1749 -0.2134  0.0644
  289loPI   C3B 4623   2.154  14.632   8.482 -0.2756 -0.0306  0.1648
  289loPI   C4B 4624   2.332  14.599   7.934  0.1346 -0.1038 -0.1194
  290loPI    C1 4625   3.814  15.898  10.292 -0.3240 -0.0165  0.3627
  290loPI    C2 4626   3.924  15.891  10.677  0.0154 -0.0495  0.2681
  290loPI    C3 4627   3.954  15.560  10.454 -0.0119  0.0154  0.1674
  290loPI   PO4 4628   3.934  16.155  10.199 -0.0481 -0.1350  0.1249
  290loPI   GL1 4629   3.819  16.473   9.947  0.1093 -0.0387  0.0739
  290loPI   GL2 4630   4.043  16.728  10.040  0.0921 -0.1075 -0.1306
  290loPI   C1A 4631   3.767  16.715   9.462  0.0654  0.1909  0.0414
  290loPI   C2A 4632   3.744  16.689   8.995 -0.1304 -0.1166  0.1508
  290loPI   C3A 4633   3.897  16.562   8.566 -0.2262 -0.3306  0.1366
  290loPI   C4A 4634   3.808  16.778   8.167  0.1087  0.0126 -0.1370
  290loPI   C5A 4635   3.835  17.160   7.852  0.0241  0.3077  0.1623
  290loPI   C6A 4636   3.921  17.157   7.509 -0.0561 -0.0065  0.2097
  290loPI   C1B 4637   4.273  17.037   9.759 -0.1176 -0.4296 -0.0528
  290loPI   C2B 4638   4.282  17.242   9.415 -0.0461  0.1204 -0.0232
  290loPI   C3B 4639   4.271  17.194   9.060  0.0723 -0.0862  0.1418
  290loPI   C4B 4640   4.460  17.249   8.675 -0.1481 -0.2651 -0.2148
  291loPI    C1 4641   9.060  10.056  10.919  0.0748 -0.1797 -0.0466
  291loPI    C2 4642   8.790  10.325  11.041  0.1911 -0.0131 -0.1523
  291loPI    C3 4643   8.729   9.936  11.108  0.0016  0.0357 -0.0347
  291loPI   PO4 4644   9.212  10.281  10.689  0.0747 -0.0936  0.0693
  291loPI   GL1 4645   9.262  10.571  10.360 -0.0990 -0.1123  0.2897
  291loPI   GL2 4646   9.129  10.295  10.148 -0.1010 -0.0594  0.0240
  291loPI   C1A 4647   9.329  10.849  10.070  0.2381 -0.1223 -0.2924
  291loPI   C2A 4648   9.417  10.994   9.755 -0.0440 -0.2854  0.2230
  291loPI   C3A 4649   9.593  11.207   9.348 -0.1106 -0.0157  0.0690
  291loPI   C4A 4650   9.894  11.424   9.202  0.1379  0.2575  0.0323
  291loPI   C5A 4651  10.171  11.485   8.897  0.1238  0.0301  0.0423
  291loPI   C6A 4652  10.500  11.207   8.872  0.0617  0.2730 -0.4509
  291loPI   C1B 4653   9.022  10.482   9.687  0.1475 -0.1160 -0.1578
  291loPI   C2B 4654   8.793  10.431   9.295 -0.0616 -0.2220  0.1244
  291loPI   C3B 4655   8.621  10.486   8.952  0.0135  0.1513  0.0526
  291loPI   C4B 4656   8.602  10.413   8.485  0.1224  0.3526 -0.4481
  292loPI    C1 4657  16.214   2.388  10.149 -0.0704  0.3048 -0.1022
  292loPI    C2 4658  16.415   2.316  10.488  0.0593 -0.0401 -0.2476
  292loPI    C3 4659  16.171   2.632  10.463  0.1798  0.0855  0.1078
  292loPI   PO4 4660  16.074   2.255  10.043 -0.1179 -0.1480 -0.2012
  292loPI   GL1 4661  15.711   2.476   9.875  0.0771  0.2820  0.1007
  292loPI   GL2 4662  15.722   2.246   9.700  0.3024  0.0081  0.2790
  292loPI   C1A 4663  15.902   2.687   9.518  0.2034 -0.1675  0.2318
  292loPI   C2A 4664  16.213   2.795   9.196  0.0931 -0.2700  0.1752
  292loPI   C3A 4665  16.387   2.587   8.895  0.1187  0.1328  0.0315
  292loPI   C4A 4666  16.616   2.645   8.464 -0.0918 -0.1959 -0.2801
  292loPI   C5A 4667  16.877   2.869   8.183  0.0966  0.3682  0.1344
  292loPI   C6A 4668  16.842   3.085   7.778 -0.0591 -0.0373 -0.0977
  292loPI   C1B 4669  15.688   2.209   9.396  0.2462  0.0098 -0.1511
  292loPI   C2B 4670  15.776   2.530   9.019 -0.1814  0.0278  0.1022
  292loPI   C3B 4671  15.566   2.568   8.671 -0.1168  0.0118  0.1145
  292loPI   C4B 4672  15.442   2.485   8.204  0.1267  0.1281  0.0087
  293loPI    C1 4673  10.140  10.919  11.052 -0.1765  0.0615 -0.1671
  293loPI    C2 4674  10.180  11.314  11.102 -0.2991  0.1045 -0.3957
  293loPI    C3 4675  10.059  11.085  11.407  0.4057  0.1471 -0.0644
  293loPI   PO4 4676  10.095  10.891  10.791  0.1478  0.1052 -0.0467
  293loPI   GL1 4677  10.282  10.798  10.411 -0.1924  0.3658 -0.1206
  293loPI   GL2 4678  10.222  10.544  10.207 -0.0794 -0.0875  0.0553
  293loPI   C1A 4679  10.120  11.128  10.083 -0.0365  0.1154  0.0774
  293loPI   C2A 4680  10.080  11.160   9.636  0.1108  0.1872  0.3069
  293loPI   C3A 4681  10.409  11.320   9.358  0.2810  0.0355  0.0776
  293loPI   C4A 4682  10.523  11.674   9.179 -0.0544  0.4366 -0.1801
  293loPI   C5A 4683  10.573  11.746   8.733 -0.0308 -0.1121  0.0304
  293loPI   C6A 4684  10.578  11.442   8.435 -0.4111  0.0176  0.0515
  293loPI   C1B 4685   9.879  10.745   9.847 -0.1817  0.3544  0.2448
  293loPI   C2B 4686  10.026  10.813   9.308 -0.0102 -0.0282 -0.0897
  293loPI   C3B 4687  10.109  10.973   8.968  0.2511  0.2551  0.0705
  293loPI   C4B 4688  10.190  11.145   8.458 -0.3063  0.0063  0.2266
  294loPI    C1 4689   2.987   2.757  10.242 -0.0832 -0.0144 -0.0484
  294loPI    C2 4690   2.614   2.746  10.388 -0.0093  0.2120  0.1641
  294loPI    C3 4691   2.770   3.092  10.261 -0.0693  0.0227 -0.4592
  294loPI   PO4 4692   3.145   2.622  10.405  0.1235 -0.0684  0.0328
  294loPI   GL1 4693   3.369   2.449  10.064 -0.2526 -0.1849  0.0080
  294loPI   GL2 4694   3.608   2.169   9.907  0.2435  0.1099  0.0280
  294loPI   C1A 4695   3.142   2.462   9.647 -0.1030  0.3693 -0.0211
  294loPI   C2A 4696   3.116   2.307   9.151  0.1418 -0.0362  0.0320
  294loPI   C3A 4697   3.003   2.221   8.782  0.0589  0.0432 -0.1007
  294loPI   C4A 4698   3.079   2.188   8.385 -0.1167 -0.0165 -0.1491
  294loPI   C5A 4699   2.861   2.233   7.975  0.0145  0.0245  0.0056
  294loPI   C6A 4700   3.033   2.430   7.683 -0.0733 -0.2645 -0.3051
  294loPI   C1B 4701   3.567   2.279   9.480 -0.0384  0.0258  0.1102
  294loPI   C2B 4702   3.699   2.378   9.092  0.3560  0.6130 -0.5911
  294loPI   C3B 4703   3.538   2.243   8.717  0.2782  0.0133  0.1261
  294loPI   C4B 4704   3.485   2.564   8.352  0.1430 -0.0474  0.0961
  295loPI    C1 4705  13.422  17.630  10.182 -0.0354 -0.2900 -0.1629
  295loPI    C2 4706  13.542  17.467  10.527 -0.1152  0.1979  0.1045
  295loPI    C3 4707  13.200  17.348  10.358 -0.2218  0.1563  0.3451
  295loPI   PO4 4708  13.696  17.637  10.012 -0.0567  0.0082  0.4724
  295loPI   GL1 4709  13.779  17.458   9.703 -0.0805  0.2916 -0.0530
  295loPI   GL2 4710  14.033  17.264   9.522  0.4205  0.0764 -0.1326
  295loPI   C1A 4711  13.755  17.692   9.366  0.1495  0.0771 -0.0056
  295loPI   C2A 4712  13.706  17.852   8.996  0.2628  0.1813  0.1441
  295loPI   C3A 4713  13.562  17.925   8.690  0.3399  0.1986 -0.0507
  295loPI   C4A 4714  13.239  18.008   8.489 -0.2812 -0.0203 -0.0400
  295loPI   C5A 4715  13.045  18.082   8.148 -0.0203 -0.0641  0.0321
  295loPI   C6A 4716  12.717  18.052   7.865 -0.1859  0.2106  0.1650
  295loPI   C1B 4717  13.997  17.141   9.099  0.0324  0.1353 -0.1783
  295loPI   C2B 4718  13.940  17.134   8.702  0.0491  0.2118 -0.1876
  295loPI   C3B 4719  14.046  17.157   8.278  0.2479  0.4197 -0.0672
  295loPI   C4B 4720  14.276  17.260   7.855  0.1124  0.3198  0.2722
  296loPI    C1 4721   0.102  17.763  10.371  0.0333 -0.0031 -0.0788
  296loPI    C2 4722   0.138  17.394  10.220  0.0323 -0.0525  0.0406
  296loPI    C3 4723   0.384  17.517  10.511  0.1404  0.0991 -0.1127
  296loPI   PO4 4724   0.013  17.848  10.206  0.0439 -0.1331  0.2579
  296loPI   GL1 4725   0.240  17.869   9.793 -0.0910 -0.0237  0.0248
  296loPI   GL2 4726   0.249  17.574   9.679  0.2510 -0.2030 -0.3105
  296loPI   C1A 4727   0.379  18.026   9.434  0.2949  0.1574 -0.0870
  296loPI   C2A 4728   0.438  18.065   8.944  0.1775  0.1378  0.0290
  296loPI   C3A 4729   0.459  18.006   8.419 -0.2208  0.0374  0.2155
  296loPI   C4A 4730   0.273  17.812   8.057  0.1183 -0.0097  0.0022
  296loPI   C5A 4731   0.325  17.534   7.760  0.0384 -0.0424  0.1785
  296loPI   C6A 4732   0.376  17.410   7.396 -0.0076 -0.2881 -0.2275
  296loPI   C1B 4733   0.165  17.470   9.253 -0.0445  0.0623 -0.0329
  296loPI   C2B 4734   0.193  17.451   8.753 -0.0439  0.1477  0.1136
  296loPI   C3B 4735   0.376  17.345   8.315  0.4712  0.0947 -0.0902
  296loPI   C4B 4736   0.529  17.205   8.006  0.1877 -0.2997  0.0188
  297loPI    C1 4737   8.909  13.826  10.415  0.2048 -0.1021  0.1299
  297loPI    C2 4738   8.759  14.000  10.742 -0.0176  0.1728 -0.1136
  297loPI    C3 4739   9.155  13.981  10.691  0.0183  0.1611  0.1517
  297loPI   PO4 4740   8.701  13.660  10.337 -0.0651 -0.1707  0.0320
  297loPI   GL1 4741   8.461  13.651   9.975  0.0515  0.1519  0.0186
  297loPI   GL2 4742   8.389  13.909   9.770 -0.1241  0.3899  0.1470
  297loPI   C1A 4743   8.571  13.487   9.550 -0.1588  0.0270  0.0341
  297loPI   C2A 4744   8.655  13.171   9.273  0.0810 -0.0448  0.2642
  297loPI   C3A 4745   8.879  12.887   9.014 -0.0775  0.2889 -0.3850
  297loPI   C4A 4746   8.873  12.471   8.660  0.2520 -0.2543 -0.2194
  297loPI   C5A 4747   8.566  12.410   8.322 -0.1371  0.2554 -0.1223
  297loPI   C6A 4748   8.407  12.562   7.993  0.1040  0.1772  0.1854
  297loPI   C1B 4749   8.189  13.857   9.507 -0.3270  0.2244  0.0545
  297loPI   C2B 4750   7.808  14.062   9.442 -0.0680 -0.0701 -0.0693
  297loPI   C3B 4751   7.486  14.305   9.224  0.1711  0.1428 -0.0039
  297loPI   C4B 4752   7.398  14.671   9.093 -0.0282  0.1400 -0.0476
  298loPI    C1 4753   7.503  10.113  10.668  0.1583  0.0009  0.2066
  298loPI    C2 4754   7.508   9.881  10.995 -0.1608 -0.2483  0.0411
  298loPI    C3 4755   7.160  10.005  10.843 -0.0131 -0.0913 -0.1768
  298loPI   PO4 4756   7.699   9.917  10.435 -0.0536 -0.3818 -0.1591
  298loPI   GL1 4757   7.867   9.933  10.039  0.2835  0.0251  0.0940
  298loPI   GL2 4758   8.063  10.098  10.111 -0.1491 -0.2170 -0.0544
  298loPI   C1A 4759   7.921   9.990   9.559  0.0151 -0.1091 -0.0440
  298loPI   C2A 4760   7.951   9.891   9.172 -0.3588 -0.2634 -0.0679
  298loPI   C3A 4761   7.907   9.789   8.662  0.0110 -0.0042 -0.2463
  298loPI   C4A 4762   8.126   9.582   8.368  0.2534  0.1861  0.0534
  298loPI   C5A 4763   8.212   9.111   8.256 -0.2774 -0.1246  0.0510
  298loPI   C6A 4764   8.202   8.725   8.101  0.0424 -0.1745 -0.2000
  298loPI   C1B 4765   8.284  10.226   9.732 -0.0689  0.0169 -0.0890
  298loPI   C2B 4766   8.281  10.294   9.227  0.1556 -0.2494  0.0187
  298loPI   C3B 4767   8.325  10.043   8.818  0.0126 -0.1159 -0.1242
  298loPI   C4B 4768   8.506   9.920   8.515 -0.0715  0.0965  0.1052
  299loPI    C1 4769  13.156   0.310  10.616  0.0499  0.1003 -0.2031
  299loPI    C2 4770  13.298   0.674  10.532  0.2190  0.0828 -0.0023
  299loPI    C3 4771  13.500   0.433  10.778 -0.0496 -0.0283  0.1137
  299loPI   PO4 4772  13.047   0.308  10.284  0.2575  0.0266 -0.0477
  299loPI   GL1 4773  12.772   0.484   9.913  0.1742 -0.0145  0.1219
  299loPI   GL2 4774  12.858   0.799   9.698 -0.0704 -0.0076 -0.5861
  299loPI   C1A 4775  12.737   0.357   9.462 -0.0039  0.2554  0.0670
  299loPI   C2A 4776  12.538   0.590   9.135 -0.0138  0.0470  0.3674
  299loPI   C3A 4777  12.383   0.790   8.890  0.3135  0.1292 -0.0254
  299loPI   C4A 4778  12.582   0.985   8.540 -0.1447 -0.0616 -0.0118
  299loPI   C5A 4779  12.853   1.014   8.168  0.3114 -0.2184 -0.1921
  299loPI   C6A 4780  13.067   1.330   8.039  0.1354  0.0843 -0.0721
  299loPI   C1B 4781  12.987   0.752   9.305 -0.1025 -0.1845 -0.2091
  299loPI   C2B 4782  12.943   0.688   8.870  0.2282  0.2057  0.0244
  299loPI   C3B 4783  13.156   0.543   8.421 -0.4711  0.0515 -0.0964
  299loPI   C4B 4784  13.486   0.399   8.088 -0.0026  0.1929 -0.5361
  300loPI    C1 4785  15.859   3.967  10.349  0.1794  0.2277 -0.0780
  300loPI    C2 4786  15.870   4.288  10.588 -0.0617  0.1243  0.0765
  300loPI    C3 4787  15.519   4.145  10.462  0.0654  0.2817 -0.4887
  300loPI   PO4 4788  16.051   4.064  10.167  0.2014 -0.3580  0.0440
  300loPI   GL1 4789  16.138   3.830   9.819 -0.0165 -0.1909 -0.0216
  300loPI   GL2 4790  16.459   3.733   9.648  0.1409  0.0874 -0.1073
  300loPI   C1A 4791  15.925   3.914   9.342 -0.2075  0.0374  0.1958
  300loPI   C2A 4792  15.779   3.782   8.970  0.3336 -0.1308  0.0433
  300loPI   C3A 4793  15.826   3.428   8.675  0.1896 -0.0214 -0.1265
  300loPI   C4A 4794  15.834   3.197   8.303 -0.0262 -0.0151  0.1207
  300loPI   C5A 4795  15.821   2.887   8.110 -0.0124 -0.0393  0.1906
  300loPI   C6A 4796  15.617   2.737   7.768 -0.1010 -0.2632  0.1430
  300loPI   C1B 4797  16.352   3.707   9.235 -0.1022  0.0034 -0.0215
  300loPI   C2B 4798  16.297   3.738   8.797  0.3071 -0.0406  0.0889
  300loPI   C3B 4799  16.365   3.939   8.384  0.0408 -0.3733 -0.1601
  300loPI   C4B 4800  16.386   4.329   8.157  0.1380  0.1458  0.0257
  301loPI    C1 4801  12.087   9.107  10.750  0.2878 -0.1833  0.3251
  301loPI    C2 4802  11.772   8.957  10.946 -0.0507 -0.0424 -0.0950
  301loPI    C3 4803  11.912   9.320  11.039  0.0119 -0.1184  0.1143
  301loPI   PO4 4804  12.006   9.092  10.502 -0.1119 -0.2020  0.3977
  301loPI   GL1 4805  12.176   9.368  10.102  0.0009 -0.0731 -0.0834
  301loPI   GL2 4806  12.565   9.616  10.232  0.1415 -0.1535 -0.0158
  301loPI   C1A 4807  12.276   9.451   9.783 -0.0801  0.4141  0.2662
  301loPI   C2A 4808  12.223   9.601   9.413  0.1330  0.0865 -0.2855
  301loPI   C3A 4809  12.305   9.640   9.060 -0.0120 -0.0647 -0.0313
  301loPI   C4A 4810  12.196   9.712   8.645 -0.2164 -0.2670  0.2165
  301loPI   C5A 4811  12.168   9.889   8.281  0.1776  0.4864  0.2572
  301loPI   C6A 4812  12.265   9.672   7.939  0.2226 -0.0650  0.1790
  301loPI   C1B 4813  12.769   9.581   9.810 -0.0054  0.2808 -0.0815
  301loPI   C2B 4814  12.763   9.534   9.402 -0.0301 -0.0558  0.3046
  301loPI   C3B 4815  12.810   9.514   8.984 -0.0091  0.0561 -0.1224
  301loPI   C4B 4816  12.700   9.649   8.599 -0.2740  0.0703 -0.0380
  302loPI    C1 4817   7.061   7.852  10.586  0.0334 -0.1160 -0.1328
  302loPI    C2 4818   7.012   7.459  10.642  0.1508 -0.1056  0.0499
  302loPI    C3 4819   6.932   7.715  10.939 -0.0417  0.0191 -0.1071
  302loPI   PO4 4820   6.933   7.861  10.370  0.0497 -0.1161  0.2067
  302loPI   GL1 4821   7.110   7.691  10.045  0.0047  0.0123  0.0565
  302loPI   GL2 4822   7.317   7.535  10.220 -0.0181 -0.0001 -0.1888
  302loPI   C1A 4823   7.242   7.613   9.665 -0.0353 -0.0528 -0.2001
  302loPI   C2A 4824   7.311   7.666   9.246 -0.1851  0.0917 -0.0700
  302loPI   C3A 4825   7.358   7.747   8.797 -0.1805 -0.0148 -0.2273
  302loPI   C4A 4826   7.383   7.880   8.398 -0.1487  0.1666  0.2531
  302loPI   C5A 4827   7.398   8.189   8.159 -0.2218 -0.3148  0.3067
  302loPI   C6A 4828   7.290   8.587   8.033 -0.1531  0.1702  0.1529
  302loPI   C1B 4829   7.745   7.478   9.897 -0.1411  0.0523  0.4291
  302loPI   C2B 4830   7.860   7.513   9.445 -0.0591 -0.0691  0.0624
  302loPI   C3B 4831   8.167   7.541   9.065 -0.1857 -0.0685 -0.1916
  302loPI   C4B 4832   8.502   7.618   8.788 -0.3622  0.2811  0.0758
  303loPI    C1 4833   7.410  14.222  10.200  0.0177  0.1108 -0.0035
  303loPI    C2 4834   7.493  14.053   9.847 -0.0580 -0.1199  0.0869
  303loPI    C3 4835   7.573  13.857  10.186  0.1676  0.1680  0.2051
  303loPI   PO4 4836   7.534  14.471  10.151  0.0892  0.4038  0.0193
  303loPI   GL1 4837   7.337  14.811   9.865 -0.1391  0.1874 -0.1489
  303loPI   GL2 4838   7.413  15.102   9.812 -0.0393 -0.1864 -0.1783
  303loPI   C1A 4839   7.211  14.605   9.526  0.1146  0.1391  0.2486
  303loPI   C2A 4840   7.025  14.353   9.114 -0.1668  0.2280  0.1620
  303loPI   C3A 4841   6.979  14.417   8.660 -0.1342  0.0637 -0.1151
  303loPI   C4A 4842   7.202  14.417   8.320 -0.1814  0.2159  0.1738
  303loPI   C5A 4843   7.188  14.046   7.973 -0.1104 -0.1104  0.5408
  303loPI   C6A 4844   7.314  14.071   7.509 -0.3196 -0.0068  0.2689
  303loPI   C1B 4845   7.357  15.138   9.467 -0.1799 -0.0005 -0.0712
  303loPI   C2B 4846   7.570  15.086   8.986 -0.3867  0.4740  0.0381
  303loPI   C3B 4847   7.629  15.340   8.606 -0.0433 -0.4019  0.0913
  303loPI   C4B 4848   7.271  15.567   8.329 -0.0777  0.0350  0.0635
  304loPI    C1 4849   1.805  13.638  10.468 -0.2978 -0.1886  0.2018
  304loPI    C2 4850   1.651  13.937  10.685 -0.0931  0.1137 -0.0593
  304loPI    C3 4851   2.037  13.841  10.723 -0.0449  0.1980 -0.3168
  304loPI   PO4 4852   1.840  13.760  10.200  0.1009 -0.0620 -0.2503
  304loPI   GL1 4853   1.601  13.689   9.889  0.2900  0.1447 -0.0394
  304loPI   GL2 4854   1.375  13.983   9.846  0.0224 -0.1023 -0.2258
  304loPI   C1A 4855   1.712  13.876   9.464 -0.3509 -0.2253 -0.0935
  304loPI   C2A 4856   1.911  13.889   9.032  0.0810  0.2243 -0.0332
  304loPI   C3A 4857   1.938  13.961   8.657 -0.0122 -0.1846  0.0205
  304loPI   C4A 4858   1.929  14.151   8.287 -0.0465  0.2503 -0.1652
  304loPI   C5A 4859   2.252  14.074   7.954  0.1508  0.0996  0.3546
  304loPI   C6A 4860   2.596  13.875   7.854 -0.0846 -0.0226  0.0833
  304loPI   C1B 4861   1.211  13.624   9.582  0.0408  0.3990 -0.0851
  304loPI   C2B 4862   1.319  13.567   9.159  0.1507  0.1111  0.1301
  304loPI   C3B 4863   1.361  13.620   8.736  0.1444 -0.1056 -0.1263
  304loPI   C4B 4864   1.420  13.982   8.498  0.0135 -0.1977 -0.0611
  305loPI    C1 4865  18.291  13.253   9.949 -0.1339 -0.1007 -0.1043
  305loPI    C2 4866  18.350  12.918  10.160 -0.2914  0.0077  0.1158
  305loPI    C3 4867  18.444  13.274  10.318  0.0769  0.0570 -0.1984
  305loPI   PO4 4868  18.401  13.230   9.729 -0.0695  0.0866 -0.1114
  305loPI   GL1 4869  18.348  13.224   9.332  0.0004  0.0131 -0.0198
  305loPI   GL2 4870  18.241  12.840   9.453 -0.1900  0.1560 -0.3013
  305loPI   C1A 4871  18.301  13.223   8.853 -0.1777 -0.1442 -0.0225
  305loPI   C2A 4872  18.144  13.165   8.397 -0.1456 -0.0604 -0.0005
  305loPI   C3A 4873  18.335  13.242   7.982 -0.0209  0.0185  0.2128
  305loPI   C4A 4874  18.769  13.233   7.860  0.2749  0.1727  0.2462
  305loPI   C5A 4875  18.992  13.180   7.462 -0.2813  0.2855 -0.1039
  305loPI   C6A 4876  19.444  12.994   7.305  0.3162  0.2119 -0.0146
  305loPI   C1B 4877  18.027  12.770   9.130  0.1214  0.0305  0.1594
  305loPI   C2B 4878  17.954  12.790   8.728  0.1362  0.0997 -0.1510
  305loPI   C3B 4879  17.658  12.867   8.354 -0.3009  0.3807 -0.2115
  305loPI   C4B 4880  17.820  13.051   7.953 -0.1648 -0.0752 -0.2932
  306loPI    C1 4881   1.032  16.034  10.226 -0.1913 -0.0883 -0.1070
  306loPI    C2 4882   1.288  16.334  10.292  0.0104 -0.2284 -0.2397
  306loPI    C3 4883   1.368  15.969  10.434 -0.1195 -0.2717 -0.2767
  306loPI   PO4 4884   1.039  16.019   9.959  0.0222 -0.0389  0.2025
  306loPI   GL1 4885   1.198  15.930   9.621 -0.0513 -0.0182  0.0110
  306loPI   GL2 4886   1.448  15.775   9.623  0.0262 -0.0468  0.1781
  306loPI   C1A 4887   0.975  15.758   9.170  0.3065 -0.1222 -0.2663
  306loPI   C2A 4888   0.837  15.522   8.770  0.3222 -0.0672 -0.0053
  306loPI   C3A 4889   0.991  15.346   8.402 -0.2942 -0.0077  0.0396
  306loPI   C4A 4890   1.396  15.087   8.174  0.1298 -0.0102  0.0060
  306loPI   C5A 4891   1.379  14.730   7.871 -0.3577  0.2508  0.0378
  306loPI   C6A 4892   1.318  14.290   7.734 -0.0992 -0.1206 -0.3515
  306loPI   C1B 4893   1.446  15.825   9.168  0.1609  0.0039  0.2949
  306loPI   C2B 4894   1.372  15.621   8.789  0.3597 -0.0421  0.2327
  306loPI   C3B 4895   1.442  15.576   8.341  0.0482  0.0835  0.0573
  306loPI   C4B 4896   1.496  15.704   7.905 -0.2509 -0.1212  0.2725
  307loPI    C1 4897   6.803   6.319  10.108  0.1078  0.0150  0.0746
  307loPI    C2 4898   6.807   6.704   9.999  0.0795 -0.1056 -0.3704
  307loPI    C3 4899   6.459   6.512  10.042  0.0836 -0.0203  0.0968
  307loPI   PO4 4900   7.004   6.159  10.056  0.0741  0.1544 -0.0063
  307loPI   GL1 4901   7.062   5.894   9.740  0.2939  0.0472 -0.2813
  307loPI   GL2 4902   6.992   5.629   9.586  0.3739 -0.0553 -0.0612
  307loPI   C1A 4903   6.920   6.001   9.280 -0.0288  0.1572  0.0455
  307loPI   C2A 4904   6.949   6.012   8.801  0.2780  0.1413 -0.1603
  307loPI   C3A 4905   6.921   5.949   8.402 -0.0784  0.0781 -0.2334
  307loPI   C4A 4906   6.727   6.048   8.010  0.1992  0.2449  0.1924
  307loPI   C5A 4907   6.820   6.005   7.677 -0.0535  0.5187 -0.0974
  307loPI   C6A 4908   6.816   6.338   7.487 -0.0134  0.2676  0.0694
  307loPI   C1B 4909   6.838   5.543   9.155  0.0472  0.2968  0.0245
  307loPI   C2B 4910   6.610   5.506   8.677 -0.0166 -0.5570  0.0993
  307loPI   C3B 4911   6.568   5.572   8.257 -0.2073  0.1664  0.0272
  307loPI   C4B 4912   6.244   5.471   7.992 -0.0261  0.0607  0.0328
  308loPI    C1 4913   6.420  14.314  10.432 -0.0613 -0.2031 -0.0434
  308loPI    C2 4914   6.068  14.445  10.572 -0.0551 -0.1343 -0.0917
  308loPI    C3 4915   6.216  14.095  10.697 -0.0877 -0.1109  0.0131
  308loPI   PO4 4916   6.384  14.338  10.113 -0.4270 -0.0950  0.3582
  308loPI   GL1 4917   6.250  14.124   9.841 -0.2689 -0.2925  0.1783
  308loPI   GL2 4918   6.590  14.094   9.706  0.0391 -0.0010 -0.2067
  308loPI   C1A 4919   6.185  14.190   9.395  0.0830  0.2132 -0.0966
  308loPI   C2A 4920   6.189  14.045   8.974  0.1157 -0.1504 -0.2556
  308loPI   C3A 4921   6.368  13.899   8.602  0.1508 -0.1041 -0.1223
  308loPI   C4A 4922   6.551  13.627   8.324  0.0116  0.0291  0.3187
  308loPI   C5A 4923   6.379  13.440   7.949  0.0806 -0.0379 -0.2100
  308loPI   C6A 4924   6.211  13.252   7.552 -0.2097  0.1161  0.1144
  308loPI   C1B 4925   6.687  14.016   9.299  0.0690 -0.2278  0.2107
  308loPI   C2B 4926   6.802  13.982   8.867 -0.0275 -0.1759 -0.2491
  308loPI   C3B 4927   6.819  14.014   8.373  0.1905 -0.0180 -0.0759
  308loPI   C4B 4928   6.719  13.956   8.000 -0.0906  0.1607  0.2608
  309loPI    C1 4929   5.033   8.033  10.353 -0.1128  0.0929 -0.0581
  309loPI    C2 4930   4.813   7.723  10.477 -0.1356  0.0820 -0.1252
  309loPI    C3 4931   4.760   8.084  10.640 -0.1685  0.0687 -0.1063
  309loPI   PO4 4932   5.031   7.956  10.089  0.2029 -0.0994  0.1228
  309loPI   GL1 4933   5.252   8.017   9.678  0.3206 -0.0636 -0.0630
  309loPI   GL2 4934   5.565   8.110   9.642  0.0476  0.5064  0.0273
  309loPI   C1A 4935   5.192   8.005   9.176  0.1915  0.1074 -0.0027
  309loPI   C2A 4936   5.083   8.105   8.771 -0.0468 -0.0542  0.0142
  309loPI   C3A 4937   5.068   8.036   8.401  0.0960  0.1848  0.1805
  309loPI   C4A 4938   5.313   7.944   7.937 -0.1563  0.2141  0.2714
  309loPI   C5A 4939   5.057   7.897   7.552 -0.1514  0.0404 -0.1355
  309loPI   C6A 4940   4.579   7.908   7.444  0.0730 -0.2939  0.0402
  309loPI   C1B 4941   5.665   7.999   9.204 -0.1748 -0.2020 -0.1517
  309loPI   C2B 4942   5.588   7.794   8.830  0.0447  0.1367  0.1202
  309loPI   C3B 4943   5.428   7.663   8.426 -0.2736  0.1047 -0.1055
  309loPI   C4B 4944   5.454   7.496   8.174 -0.0397  0.1982  0.3970
  310loPI    C1 4945  16.903   6.949  10.469 -0.0023 -0.0307  0.0772
  310loPI    C2 4946  16.894   6.797  10.839 -0.0295  0.2128  0.1785
  310loPI    C3 4947  17.222   6.757  10.614 -0.0965 -0.1418  0.1389
  310loPI   PO4 4948  16.731   6.847  10.323 -0.0345 -0.1334 -0.3227
  310loPI   GL1 4949  16.680   6.607  10.001 -0.0143  0.1537 -0.2363
  310loPI   GL2 4950  16.273   6.627   9.820 -0.0198 -0.1778 -0.3430
  310loPI   C1A 4951  16.711   6.643   9.540 -0.1049  0.0425  0.0186
  310loPI   C2A 4952  16.622   6.494   9.216  0.0235  0.1851  0.0895
  310loPI   C3A 4953  16.544   6.557   8.765 -0.1241 -0.3301 -0.0183
  310loPI   C4A 4954  16.596   6.647   8.372 -0.2017 -0.2933 -0.2265
  310loPI   C5A 4955  16.606   6.786   7.903  0.2544 -0.3060  0.1075
  310loPI   C6A 4956  16.540   6.749   7.611  0.1895  0.1025  0.0318
  310loPI   C1B 4957  16.142   6.372   9.355 -0.0361 -0.0595  0.3241
  310loPI   C2B 4958  16.041   6.538   8.932  0.0612  0.6155  0.4006
  310loPI   C3B 4959  16.017   6.661   8.503  0.3341  0.2544 -0.2692
  310loPI   C4B 4960  16.053   6.663   8.090 -0.0879  0.2474 -0.2809
  311loPI    C1 4961   1.904   9.878  10.027  0.0422 -0.3639 -0.0890
  311loPI    C2 4962   2.221   9.784  10.252  0.1658  0.1317 -0.0441
  311loPI    C3 4963   1.941  10.031  10.395 -0.0237  0.0349 -0.2434
  311loPI   PO4 4964   2.036   9.715   9.807 -0.0944  0.1610 -0.1589
  311loPI   GL1 4965   2.021   9.493   9.305 -0.1115 -0.1076  0.0023
  311loPI   GL2 4966   2.076   9.843   9.302 -0.2920  0.2127 -0.1302
  311loPI   C1A 4967   1.837   9.240   8.880  0.0400  0.0895  0.0109
  311loPI   C2A 4968   1.755   9.073   8.491  0.0233 -0.1113 -0.0643
  311loPI   C3A 4969   1.868   8.783   8.155  0.2006  0.2209 -0.3045
  311loPI   C4A 4970   1.958   9.015   7.877  0.0773  0.0308 -0.0617
  311loPI   C5A 4971   1.784   9.275   7.585  0.0656 -0.0071 -0.0010
  311loPI   C6A 4972   1.498   9.689   7.600 -0.1808  0.1707  0.1049
  311loPI   C1B 4973   2.236   9.709   8.920  0.0537 -0.0533 -0.1523
  311loPI   C2B 4974   2.338   9.850   8.470  0.2203  0.0242  0.1047
  311loPI   C3B 4975   2.210   9.734   8.170  0.0285  0.0789  0.0922
  311loPI   C4B 4976   2.045   9.829   7.765 -0.0894 -0.3314 -0.1600
  312loPI    C1 4977   5.531  17.368  10.432  0.2396  0.1024 -0.1397
  312loPI    C2 4978   5.405  17.367  10.811 -0.0482 -0.3591 -0.2292
  312loPI    C3 4979   5.736  17.568  10.711  0.0040 -0.1923  0.2541
  312loPI   PO4 4980   5.338  17.423  10.291  0.0350  0.0412 -0.2249
  312loPI   GL1 4981   5.161  17.867  10.141  0.3110 -0.0615 -0.2047
  312loPI   GL2 4982   4.892  17.693  10.217 -0.0446 -0.2661  0.2215
  312loPI   C1A 4983   5.488  17.754   9.741 -0.1704 -0.3293 -0.0328
  312loPI   C2A 4984   5.449  17.694   9.327 -0.0239 -0.0098 -0.0087
  312loPI   C3A 4985   5.598  17.606   8.922  0.0764  0.0617  0.0514
  312loPI   C4A 4986   5.753  17.475   8.501 -0.2518  0.0966 -0.0358
  312loPI   C5A 4987   5.971  17.459   8.152 -0.0699 -0.1424 -0.1015
  312loPI   C6A 4988   6.357  17.379   7.943  0.1514 -0.0271 -0.0831
  312loPI   C1B 4989   4.881  17.770   9.746  0.3366 -0.0774 -0.0272
  312loPI   C2B 4990   5.140  18.083   9.556  0.0123 -0.1187 -0.0146
  312loPI   C3B 4991   5.158  18.275   9.325 -0.2811 -0.2798 -0.0489
  312loPI   C4B 4992   5.162  18.446   8.983 -0.0898  0.1534  0.1769
  313loPI    C1 4993  10.106  18.215  10.722 -0.0269 -0.4353  0.1690
  313loPI    C2 4994  10.380  18.214  11.014  0.0305 -0.0017  0.1225
  313loPI    C3 4995   9.993  18.261  11.103  0.0484  0.1344  0.1315
  313loPI   PO4 4996  10.191  18.413  10.495 -0.1338 -0.0020  0.1420
  313loPI   GL1 4997  10.120  18.564  10.107  0.2372 -0.1610  0.3759
  313loPI   GL2 4998   9.862  18.650  10.185  0.0133 -0.0880 -0.1853
  313loPI   C1A 4999  10.182  18.418   9.565 -0.3555 -0.1570  0.4117
  313loPI   C2A 5000  10.092  18.352   9.101 -0.1970  0.0258 -0.0873
  313loPI   C3A 5001   9.888  18.288   8.723  0.4101  0.0022  0.4316
  313loPI   C4A 5002   9.966  18.170   8.287  0.0812 -0.1409 -0.0509
  313loPI   C5A 5003  10.372  18.199   8.101 -0.2975  0.0014 -0.0519
  313loPI   C6A 5004  10.547  18.305   7.757  0.0139 -0.1876 -0.2498
  313loPI   C1B 5005   9.827  18.808   9.650 -0.2507  0.2656 -0.1202
  313loPI   C2B 5006   9.817  18.799   9.232 -0.0611  0.1832  0.0145
  313loPI   C3B 5007   9.700  18.835   8.864 -0.1327  0.1339 -0.0645
  313loPI   C4B 5008   9.726  18.784   8.454  0.1929 -0.2231 -0.3797
  314loPI    C1 5009   6.872   4.946  10.387 -0.1274 -0.1545 -0.1300
  314loPI    C2 5010   6.690   5.289  10.483  0.1014 -0.1041  0.1373
  314loPI    C3 5011   6.540   4.941  10.611  0.1596 -0.0667  0.3102
  314loPI   PO4 5012   6.998   5.006  10.150 -0.2830  0.0039  0.0656
  314loPI   GL1 5013   6.835   5.100   9.729  0.2331 -0.1401  0.1127
  314loPI   GL2 5014   7.172   5.183   9.733  0.0171 -0.2001  0.0735
  314loPI   C1A 5015   6.706   5.142   9.341 -0.1055 -0.1043 -0.0778
  314loPI   C2A 5016   6.920   5.074   8.895  0.3594  0.2245  0.0032
  314loPI   C3A 5017   6.851   5.030   8.488  0.0206 -0.2845  0.0407
  314loPI   C4A 5018   6.823   5.113   8.124  0.1153 -0.2320  0.0615
  314loPI   C5A 5019   7.080   5.072   7.758  0.2705 -0.0535  0.0069
  314loPI   C6A 5020   7.345   4.960   7.424  0.0905  0.0303 -0.1647
  314loPI   C1B 5021   7.213   5.223   9.317 -0.2388 -0.1865 -0.3413
  314loPI   C2B 5022   7.427   5.047   9.035  0.3243  0.0117 -0.1339
  314loPI   C3B 5023   7.394   5.015   8.529 -0.1551 -0.0673 -0.1653
  314loPI   C4B 5024   7.387   4.974   8.153  0.1568  0.2951 -0.1184
  315loPI    C1 5025  11.078   6.430  10.589  0.0923  0.1109 -0.0171
  315loPI    C2 5026  10.724   6.588  10.689  0.0650 -0.0620  0.1648
  315loPI    C3 5027  10.788   6.196  10.734  0.2870 -0.0287  0.1523
  315loPI   PO4 5028  11.104   6.554  10.374 -0.1827  0.2407 -0.0924
  315loPI   GL1 5029  11.059   6.618   9.933 -0.1081  0.1277  0.1429
  315loPI   GL2 5030  11.152   6.948   9.783  0.1731 -0.2742 -0.2863
  315loPI   C1A 5031  10.753   6.713   9.807 -0.0490 -0.0102 -0.0028
  315loPI   C2A 5032  10.676   6.520   9.447  0.1448 -0.0711 -0.2936
  315loPI   C3A 5033  10.621   6.724   9.032 -0.1144  0.0239  0.2092
  315loPI   C4A 5034  10.657   6.821   8.629  0.1092 -0.0961 -0.1869
  315loPI   C5A 5035  10.651   7.038   8.317  0.1899  0.0549 -0.0539
  315loPI   C6A 5036  10.853   7.164   7.997 -0.0500 -0.0169 -0.0276
  315loPI   C1B 5037  11.059   6.898   9.318 -0.0055  0.2033  0.1165
  315loPI   C2B 5038  11.221   7.028   8.927  0.2359 -0.0793 -0.1131
  315loPI   C3B 5039  11.095   7.210   8.569  0.2855 -0.0328  0.4196
  315loPI   C4B 5040  11.321   7.275   8.218 -0.0283  0.0388  0.0322
  316loPI    C1 5041   1.314   1.026  10.528  0.0665 -0.0667 -0.1181
  316loPI    C2 5042   1.103   0.686  10.528 -0.0092 -0.0201 -0.0747
  316loPI    C3 5043   1.316   0.790  10.850  0.1631 -0.1177 -0.1560
  316loPI   PO4 5044   1.236   1.214  10.423  0.1147  0.0262  0.0094
  316loPI   GL1 5045   1.125   1.149   9.969 -0.1351 -0.0377 -0.0982
  316loPI   GL2 5046   1.247   1.381   9.950 -0.0737 -0.1051 -0.2485
  316loPI   C1A 5047   1.106   1.004   9.440  0.1946  0.0501  0.0161
  316loPI   C2A 5048   1.269   1.091   9.065  0.0257  0.2416 -0.0781
  316loPI   C3A 5049   1.346   1.144   8.695  0.0689 -0.0162 -0.0280
  316loPI   C4A 5050   1.308   1.183   8.254  0.3393 -0.1442 -0.0492
  316loPI   C5A 5051   1.434   1.474   7.838 -0.0992  0.1052 -0.3245
  316loPI   C6A 5052   1.829   1.643   7.692  0.0009  0.0649 -0.0711
  316loPI   C1B 5053   1.595   1.109   9.703  0.2029  0.2151  0.3328
  316loPI   C2B 5054   1.783   0.913   9.332  0.3248 -0.0061  0.0241
  316loPI   C3B 5055   1.826   0.932   8.869  0.0654  0.0867  0.0805
  316loPI   C4B 5056   1.745   0.908   8.388 -0.1225  0.2805  0.1193
  317loPI    C1 5057   4.326   4.690  10.345 -0.3019  0.3914 -0.3554
  317loPI    C2 5058   4.003   4.652  10.578 -0.1068  0.0335 -0.1335
  317loPI    C3 5059   4.309   4.883  10.694 -0.1618  0.1453 -0.2092
  317loPI   PO4 5060   4.163   4.472  10.143  0.1040 -0.0307  0.2075
  317loPI   GL1 5061   4.238   4.254   9.804 -0.1805  0.0571 -0.1144
  317loPI   GL2 5062   4.140   4.457   9.616  0.1863 -0.2211  0.0678
  317loPI   C1A 5063   4.214   3.977   9.406  0.0005 -0.0771 -0.3532
  317loPI   C2A 5064   4.232   3.928   8.946 -0.0118 -0.0884  0.0315
  317loPI   C3A 5065   4.146   3.755   8.538  0.4563  0.1083 -0.2670
  317loPI   C4A 5066   4.151   3.605   8.166 -0.1599 -0.2859  0.1765
  317loPI   C5A 5067   4.481   3.782   7.940  0.2277 -0.0799  0.1723
  317loPI   C6A 5068   4.765   4.201   7.948 -0.1906 -0.0877 -0.0439
  317loPI   C1B 5069   3.933   4.392   9.283 -0.0636  0.1421  0.1663
  317loPI   C2B 5070   3.891   4.433   8.839 -0.1067 -0.3986 -0.3002
  317loPI   C3B 5071   4.125   4.423   8.523  0.1197  0.1341  0.0952
  317loPI   C4B 5072   4.314   4.295   8.180  0.2074 -0.1882  0.4630
  318loPI    C1 5073   7.334   8.766  10.759  0.1871 -0.0141  0.0659
  318loPI    C2 5074   7.347   8.670  11.147  0.0063  0.1934  0.1253
  318loPI    C3 5075   7.244   9.040  11.036 -0.5924 -0.0399 -0.1385
  318loPI   PO4 5076   7.625   8.767  10.669  0.3705  0.1951  0.3340
  318loPI   GL1 5077   7.844   8.777  10.311  0.0639  0.2515  0.0438
  318loPI   GL2 5078   7.585   8.473  10.165  0.0408  0.1727 -0.1953
  318loPI   C1A 5079   8.059   9.165  10.125 -0.1024 -0.0717  0.0241
  318loPI   C2A 5080   8.203   9.205   9.683  0.2413 -0.2509  0.0996
  318loPI   C3A 5081   8.198   9.386   9.245 -0.0259  0.2459 -0.0649
  318loPI   C4A 5082   8.304   9.565   8.917  0.0131  0.2710  0.1365
  318loPI   C5A 5083   8.610   9.373   8.593  0.2755 -0.2191  0.2489
  318loPI   C6A 5084   8.921   9.163   8.251  0.2771  0.2614 -0.0221
  318loPI   C1B 5085   7.457   8.491   9.667  0.3220  0.1201  0.2750
  318loPI   C2B 5086   7.454   8.543   9.157 -0.0690 -0.1669 -0.0853
  318loPI   C3B 5087   7.683   8.598   8.771  0.1222  0.0156  0.1542
  318loPI   C4B 5088   7.746   8.883   8.465 -0.1081 -0.1357 -0.0944
  319loPI    C1 5089   9.673   5.007  10.417  0.1116 -0.1607  0.1477
  319loPI    C2 5090   9.754   4.800  10.750 -0.0494 -0.1981  0.1644
  319loPI    C3 5091   9.396   4.766  10.575 -0.0389 -0.0165  0.1056
  319loPI   PO4 5092   9.936   4.981  10.312 -0.2452  0.1507  0.0838
  319loPI   GL1 5093  10.146   5.009   9.956 -0.0635  0.0721 -0.0244
  319loPI   GL2 5094  10.028   5.243   9.762 -0.1139  0.0561  0.0790
  319loPI   C1A 5095  10.344   4.901   9.617  0.0160  0.0479 -0.1021
  319loPI   C2A 5096  10.284   4.811   9.212 -0.0076  0.3726  0.1367
  319loPI   C3A 5097  10.518   4.783   8.854  0.0660  0.0375 -0.0494
  319loPI   C4A 5098  10.638   4.786   8.449  0.0957 -0.0360  0.1111
  319loPI   C5A 5099  10.966   4.878   8.285 -0.1148 -0.2836 -0.2570
  319loPI   C6A 5100  11.180   4.866   8.051 -0.0162 -0.1643 -0.0164
  319loPI   C1B 5101  10.078   5.293   9.326 -0.0344  0.1681  0.0121
  319loPI   C2B 5102  10.214   5.216   8.903 -0.0178 -0.0773 -0.0652
  319loPI   C3B 5103  10.309   5.218   8.562  0.0912  0.2499  0.1545
  319loPI   C4B 5104  10.442   5.266   8.177  0.0101 -0.2898 -0.5208
  320loPI    C1 5105   8.388   4.851  10.178  0.1876 -0.2271 -0.0307
  320loPI    C2 5106   8.188   4.515  10.099 -0.1090  0.0158 -0.3427
  320loPI    C3 5107   8.005   4.817  10.286  0.2671 -0.1320  0.2927
  320loPI   PO4 5108   8.510   4.860   9.959  0.1473  0.1743 -0.1710
  320loPI   GL1 5109   8.855   4.933   9.851  0.1173 -0.1620  0.2210
  320loPI   GL2 5110   8.888   4.631   9.627  0.1118  0.0840 -0.2079
  320loPI   C1A 5111   8.861   5.092   9.403 -0.1539 -0.2116 -0.3333
  320loPI   C2A 5112   8.773   5.140   8.967  0.1427  0.1675  0.1568
  320loPI   C3A 5113   8.907   5.150   8.503 -0.1687  0.3399 -0.0763
  320loPI   C4A 5114   9.232   4.961   8.117 -0.1089  0.0307  0.3609
  320loPI   C5A 5115   9.140   4.677   7.850  0.1515  0.1731 -0.0276
  320loPI   C6A 5116   9.021   4.403   7.473  0.0701 -0.0517 -0.0019
  320loPI   C1B 5117   8.976   4.682   9.209 -0.1613 -0.1150  0.1519
  320loPI   C2B 5118   8.983   4.705   8.788 -0.1491  0.1254  0.0899
  320loPI   C3B 5119   8.957   4.559   8.276  0.0753  0.0089 -0.1277
  320loPI   C4B 5120   8.734   4.387   7.845 -0.4407 -0.1957  0.1704
  321loPI    C1 5121   9.942   4.033  10.493  0.1617 -0.2625 -0.1242
  321loPI    C2 5122  10.043   4.170  10.855 -0.0354 -0.2662 -0.0668
  321loPI    C3 5123   9.680   4.248  10.706  0.0332 -0.2933 -0.2499
  321loPI   PO4 5124  10.094   4.134  10.347 -0.1060  0.2475  0.1857
  321loPI   GL1 5125  10.013   4.007   9.966 -0.1412 -0.0709  0.1592
  321loPI   GL2 5126  10.131   3.744   9.959  0.0436 -0.1948  0.1346
  321loPI   C1A 5127   9.645   4.022   9.689 -0.0276 -0.0289  0.1101
  321loPI   C2A 5128   9.656   3.987   9.259  0.1640  0.0177  0.0009
  321loPI   C3A 5129   9.620   3.946   8.917 -0.2110  0.1266  0.0544
  321loPI   C4A 5130   9.667   4.016   8.476  0.1878 -0.1903 -0.2119
  321loPI   C5A 5131   9.693   3.975   8.042  0.1261  0.3354 -0.0959
  321loPI   C6A 5132   9.962   4.177   7.806 -0.1400 -0.1535  0.3484
  321loPI   C1B 5133  10.084   3.839   9.522  0.0868  0.2237 -0.1434
  321loPI   C2B 5134  10.142   3.881   9.044 -0.2253 -0.3374 -0.1048
  321loPI   C3B 5135  10.128   3.897   8.565  0.0459 -0.1283 -0.0797
  321loPI   C4B 5136  10.179   3.948   8.172  0.2364 -0.1106 -0.1091
  322loPI    C1 5137   5.872  11.733  10.480 -0.1002 -0.0155  0.1832
  322loPI    C2 5138   5.970  11.464  10.759 -0.1346 -0.1407  0.0752
  322loPI    C3 5139   5.601  11.467  10.605 -0.1081 -0.0881  0.0130
  322loPI   PO4 5140   6.182  11.701  10.359  0.1661  0.1168 -0.2474
  322loPI   GL1 5141   6.451  11.345  10.024  0.4290 -0.0601  0.0109
  322loPI   GL2 5142   6.167  11.485   9.869  0.1351 -0.0426  0.0580
  322loPI   C1A 5143   6.492  11.419   9.525 -0.3210  0.4661  0.0548
  322loPI   C2A 5144   6.426  11.436   9.167 -0.1810  0.0995  0.0205
  322loPI   C3A 5145   6.324  11.323   8.749 -0.0022  0.0921 -0.1457
  322loPI   C4A 5146   6.268  11.295   8.417 -0.2066 -0.1316 -0.0214
  322loPI   C5A 5147   6.255  11.500   8.130  0.0527 -0.3198 -0.0277
  322loPI   C6A 5148   5.950  11.413   7.808  0.0848  0.0503  0.2783
  322loPI   C1B 5149   6.125  11.661   9.404  0.0893  0.0701  0.1219
  322loPI   C2B 5150   6.079  11.756   8.975 -0.0173  0.2090  0.0663
  322loPI   C3B 5151   6.012  11.644   8.607  0.2206 -0.1391 -0.0079
  322loPI   C4B 5152   5.913  11.860   8.205 -0.0213 -0.0113 -0.1129
  323loPI    C1 5153  11.040   0.871  10.263 -0.0611  0.4018 -0.2301
  323loPI    C2 5154  10.954   0.925  10.650  0.1394 -0.0857 -0.1091
  323loPI    C3 5155  10.660   0.908  10.379 -0.0207 -0.0139  0.0586
  323loPI   PO4 5156  11.301   1.057  10.223  0.1851  0.1318  0.1393
  323loPI   GL1 5157  11.605   0.993   9.854  0.2149  0.0520  0.4327
  323loPI   GL2 5158  11.903   0.875   9.716 -0.2071  0.0501 -0.1678
  323loPI   C1A 5159  11.481   0.970   9.470 -0.0164  0.0366  0.1980
  323loPI   C2A 5160  11.532   1.154   9.096 -0.2888  0.4105 -0.3830
  323loPI   C3A 5161  11.357   1.079   8.673 -0.0859  0.2365 -0.2357
  323loPI   C4A 5162  11.456   1.252   8.280 -0.0419 -0.2320 -0.0535
  323loPI   C5A 5163  11.547   1.315   7.937  0.0915 -0.0625  0.0137
  323loPI   C6A 5164  11.757   1.302   7.589 -0.0510  0.1234  0.2730
  323loPI   C1B 5165  11.984   1.144   9.357 -0.0403 -0.3877  0.0255
  323loPI   C2B 5166  12.032   1.114   9.022  0.0634 -0.3141 -0.0074
  323loPI   C3B 5167  11.967   1.147   8.578 -0.2876  0.3668 -0.0039
  323loPI   C4B 5168  11.913   1.068   8.173  0.1483 -0.0016  0.1298
  324loPI    C1 5169   4.896   4.549  10.360  0.0260 -0.0162 -0.0353
  324loPI    C2 5170   4.776   4.868  10.569  0.0946 -0.0299  0.0255
  324loPI    C3 5171   4.970   4.570  10.753  0.1505 -0.0445 -0.0566
  324loPI   PO4 5172   4.683   4.482  10.087 -0.0748 -0.1127  0.0055
  324loPI   GL1 5173   4.818   4.479   9.723  0.0938 -0.0789  0.0106
  324loPI   GL2 5174   5.085   4.250   9.672  0.1337 -0.0690 -0.0388
  324loPI   C1A 5175   4.587   4.459   9.299 -0.2293 -0.0240  0.0527
  324loPI   C2A 5176   4.528   4.407   8.900 -0.2356 -0.2416  0.0837
  324loPI   C3A 5177   4.663   4.525   8.475 -0.0975  0.0095  0.0434
  324loPI   C4A 5178   4.808   4.707   8.061 -0.4451  0.0359 -0.0676
  324loPI   C5A 5179   5.188   4.564   7.814  0.0060  0.0601  0.4894
  324loPI   C6A 5180   5.256   4.134   7.788 -0.1850  0.2707 -0.0281
  324loPI   C1B 5181   5.088   4.396   9.297 -0.0553 -0.1663  0.1208
  324loPI   C2B 5182   5.043   4.399   8.766 -0.0170  0.2309  0.0379
  324loPI   C3B 5183   5.104   4.433   8.303 -0.0231  0.2850 -0.1763
  324loPI   C4B 5184   5.571   4.311   8.134 -0.1397  0.0322 -0.3163
  325loPI    C1 5185  17.700   6.587  10.464 -0.0144 -0.1131  0.1479
  325loPI    C2 5186  18.096   6.641  10.467 -0.0217 -0.0451 -0.0140
  325loPI    C3 5187  17.920   6.434  10.760  0.1513 -0.2003 -0.0180
  325loPI   PO4 5188  17.589   6.497  10.180  0.0650  0.0246 -0.0538
  325loPI   GL1 5189  17.417   6.483   9.720 -0.3168  0.2281 -0.1310
  325loPI   GL2 5190  17.695   6.492   9.691  0.0636 -0.1615 -0.0527
  325loPI   C1A 5191  17.138   6.422   9.453 -0.0043  0.2117 -0.0587
  325loPI   C2A 5192  17.148   6.309   9.065 -0.2649  0.2201 -0.2428
  325loPI   C3A 5193  16.913   6.231   8.894 -0.0279 -0.0857 -0.0149
  325loPI   C4A 5194  16.883   6.256   8.378  0.5173  0.1765  0.2356
  325loPI   C5A 5195  17.089   6.065   8.035 -0.1374 -0.2894  0.0046
  325loPI   C6A 5196  17.364   5.925   7.636  0.1237  0.3051 -0.2458
  325loPI   C1B 5197  17.544   6.693   9.319 -0.1622 -0.4055  0.1305
  325loPI   C2B 5198  17.438   6.720   8.815  0.0009  0.1701  0.2594
  325loPI   C3B 5199  17.095   6.664   8.601  0.0706  0.4619  0.3363
  325loPI   C4B 5200  17.043   6.821   8.175 -0.3267  0.1280 -0.1082
  326loPI    C1 5201   6.325  10.330  10.455  0.4848  0.0130  0.3181
  326loPI    C2 5202   6.029  10.268  10.717  0.0985  0.1371 -0.0775
  326loPI    C3 5203   6.409  10.242  10.836 -0.0662 -0.0170  0.4422
  326loPI   PO4 5204   6.235  10.133  10.229  0.0489 -0.2049 -0.0225
  326loPI   GL1 5205   6.332  10.038   9.756  0.1890 -0.1474  0.1591
  326loPI   GL2 5206   6.025   9.715   9.732 -0.4191  0.0016 -0.0334
  326loPI   C1A 5207   6.217  10.303   9.555 -0.0035  0.3940  0.0727
  326loPI   C2A 5208   6.213  10.445   9.199 -0.1698 -0.0726 -0.2310
  326loPI   C3A 5209   6.208  10.542   8.764 -0.0203  0.1096 -0.0790
  326loPI   C4A 5210   6.299  10.802   8.420  0.0773  0.0609  0.0946
  326loPI   C5A 5211   6.048  11.003   8.104  0.0228 -0.1188  0.2299
  326loPI   C6A 5212   5.725  10.996   7.834  0.1243  0.0729  0.2558
  326loPI   C1B 5213   5.884   9.385   9.426  0.1460 -0.0244  0.3034
  326loPI   C2B 5214   5.686   9.249   8.987  0.0773 -0.1421  0.2329
  326loPI   C3B 5215   5.567   9.201   8.504 -0.2540 -0.2646  0.0227
  326loPI   C4B 5216   5.810   9.096   8.224  0.2040 -0.1731  0.1150
  327loPI    C1 5217   3.119   5.452   9.948  0.1494 -0.0319  0.2055
  327loPI    C2 5218   2.759   5.499  10.115  0.0373 -0.0731 -0.0216
  327loPI    C3 5219   3.018   5.238  10.270 -0.1207 -0.2170  0.0019
  327loPI   PO4 5220   3.235   5.696   9.959 -0.0067 -0.2299 -0.2709
  327loPI   GL1 5221   3.103   5.942   9.666  0.2965  0.1495  0.0519
  327loPI   GL2 5222   3.408   6.041   9.568 -0.0404 -0.0727 -0.0614
  327loPI   C1A 5223   3.051   6.225   9.268  0.0618 -0.4406 -0.3702
  327loPI   C2A 5224   3.082   6.295   8.826 -0.0567 -0.1982 -0.0898
  327loPI   C3A 5225   3.057   6.270   8.441  0.0367  0.0487 -0.1022
  327loPI   C4A 5226   3.000   6.265   8.011 -0.1181  0.2801 -0.0366
  327loPI   C5A 5227   2.653   6.480   7.781  0.4254 -0.1101 -0.1471
  327loPI   C6A 5228   2.332   6.696   7.448 -0.0951  0.1771  0.2657
  327loPI   C1B 5229   3.309   5.788   9.189 -0.0485  0.0103 -0.0913
  327loPI   C2B 5230   3.287   5.852   8.708 -0.0259 -0.2140 -0.1893
  327loPI   C3B 5231   3.290   5.800   8.265  0.1726 -0.1742  0.2056
  327loPI   C4B 5232   3.501   5.505   7.981 -0.0810 -0.0427 -0.1922
  328loPI    C1 5233  14.278   6.092  10.541 -0.0630 -0.2321  0.0532
  328loPI    C2 5234  14.055   6.407  10.439  0.1270 -0.1231 -0.0315
  328loPI    C3 5235  13.926   6.154  10.721 -0.1269 -0.0926 -0.1172
  328loPI   PO4 5236  14.392   6.075  10.304 -0.1771  0.3886 -0.2340
  328loPI   GL1 5237  14.479   5.863   9.986  0.0168  0.1862 -0.2251
  328loPI   GL2 5238  14.574   6.112   9.858 -0.3003 -0.1974 -0.1009
  328loPI   C1A 5239  14.643   5.575   9.650  0.1096  0.0064  0.0650
  328loPI   C2A 5240  14.893   5.667   9.260  0.0537 -0.1290 -0.1233
  328loPI   C3A 5241  14.980   5.776   8.891 -0.1950 -0.1456  0.0704
  328loPI   C4A 5242  15.224   5.587   8.573 -0.0540  0.0501  0.0056
  328loPI   C5A 5243  15.265   5.552   8.131  0.0770 -0.2582 -0.3613
  328loPI   C6A 5244  15.396   5.602   7.794 -0.2177  0.3107 -0.3533
  328loPI   C1B 5245  14.652   6.077   9.473  0.0809  0.1448 -0.0953
  328loPI   C2B 5246  14.684   6.118   9.062  0.1824 -0.0934 -0.0204
  328loPI   C3B 5247  14.714   6.153   8.669  0.1453 -0.1956  0.1030
  328loPI   C4B 5248  14.922   5.934   8.429  0.0382 -0.1094  0.0397
  329loPI    C1 5249   8.267  14.055  10.493  0.0460  0.0202 -0.0037
  329loPI    C2 5250   8.071  13.733  10.359  0.0612 -0.0291  0.0913
  329loPI    C3 5251   8.251  13.723  10.716  0.0975  0.0710  0.0761
  329loPI   PO4 5252   8.449  14.119  10.238 -0.2676 -0.2735 -0.4897
  329loPI   GL1 5253   8.506  14.510  10.046  0.0744  0.1603  0.1444
  329loPI   GL2 5254   8.751  14.440   9.992  0.1008 -0.0633  0.0752
  329loPI   C1A 5255   8.332  14.668   9.678 -0.0801 -0.1039  0.3068
  329loPI   C2A 5256   8.248  14.827   9.345  0.4100 -0.0707  0.1717
  329loPI   C3A 5257   8.080  15.066   9.079 -0.0295 -0.0225 -0.0584
  329loPI   C4A 5258   8.174  15.142   8.712 -0.0935 -0.0680 -0.1817
  329loPI   C5A 5259   8.269  15.077   8.258  0.1254  0.2468  0.3961
  329loPI   C6A 5260   8.077  14.837   7.979  0.2353 -0.2639 -0.1407
  329loPI   C1B 5261   8.641  14.236   9.516 -0.0578  0.1672  0.0822
  329loPI   C2B 5262   8.693  13.989   9.264 -0.2172  0.2421 -0.1567
  329loPI   C3B 5263   8.940  13.803   9.055  0.0766 -0.0508  0.0175
  329loPI   C4B 5264   9.457  13.745   9.115 -0.2325  0.0708  0.0882
  330loPI    C1 5265  15.812  11.377  10.688  0.1030  0.1507 -0.1989
  330loPI    C2 5266  15.595  11.700  10.781 -0.0339 -0.0024  0.0206
  330loPI    C3 5267  15.535  11.356  10.976  0.2827 -0.0947 -0.0407
  330loPI   PO4 5268  15.778  11.407  10.410 -0.3097 -0.2004 -0.1369
  330loPI   GL1 5269  16.089  11.305  10.015  0.0399  0.0565  0.0876
  330loPI   GL2 5270  15.988  11.540   9.791 -0.1115  0.0324  0.1698
  330loPI   C1A 5271  16.356  11.070   9.694 -0.1123  0.1286 -0.0615
  330loPI   C2A 5272  16.288  11.093   9.253 -0.2158  0.0211 -0.1038
  330loPI   C3A 5273  16.430  10.911   8.950 -0.1612 -0.2632 -0.2216
  330loPI   C4A 5274  16.714  10.955   8.539  0.0322  0.0267 -0.1908
  330loPI   C5A 5275  16.860  10.836   8.101  0.0429  0.3075 -0.2544
  330loPI   C6A 5276  17.158  10.723   7.751 -0.0282  0.1727 -0.1821
  330loPI   C1B 5277  15.896  11.416   9.417 -0.3152 -0.0253  0.1075
  330loPI   C2B 5278  15.931  11.362   9.006 -0.2738 -0.3563  0.2535
  330loPI   C3B 5279  15.834  11.348   8.604  0.1968  0.0978 -0.1986
  330loPI   C4B 5280  15.833  11.558   8.313 -0.2456  0.2030  0.2047
  331loPI    C1 5281  16.689   5.196  10.672 -0.0522  0.0535 -0.2272
  331loPI    C2 5282  16.480   5.358  10.973  0.0363 -0.0251 -0.1225
  331loPI    C3 5283  16.877   5.407  10.955  0.0459 -0.1163 -0.1641
  331loPI   PO4 5284  16.628   5.323  10.417  0.0173 -0.0958 -0.3005
  331loPI   GL1 5285  16.461   5.296   9.956 -0.0100  0.1086 -0.1017
  331loPI   GL2 5286  16.745   5.260   9.768 -0.2566  0.0026 -0.1608
  331loPI   C1A 5287  16.294   5.167   9.549 -0.3105  0.1944  0.0707
  331loPI   C2A 5288  16.226   5.155   9.127  0.0675 -0.0129  0.4132
  331loPI   C3A 5289  16.230   5.142   8.674 -0.1388  0.0768  0.1126
  331loPI   C4A 5290  16.024   5.140   8.326 -0.2644  0.1702  0.0066
  331loPI   C5A 5291  15.592   5.154   8.161 -0.1390  0.1674 -0.2204
  331loPI   C6A 5292  15.271   5.033   7.876  0.0880  0.3792  0.2417
  331loPI   C1B 5293  16.760   5.489   9.492  0.1051 -0.0612 -0.0186
  331loPI   C2B 5294  16.687   5.391   9.039  0.3775  0.1828  0.2971
  331loPI   C3B 5295  16.772   5.213   8.701 -0.0302  0.0298 -0.1808
  331loPI   C4B 5296  16.975   5.222   8.258  0.2069 -0.0176 -0.2416
  332loPI    C1 5297  12.600  10.004  10.726  0.0377 -0.0908  0.0624
  332loPI    C2 5298  12.620  10.161  10.359 -0.0646 -0.1319  0.0390
  332loPI    C3 5299  12.877   9.875  10.469 -0.0409 -0.1272 -0.0042
  332loPI   PO4 5300  12.268  10.047  10.716 -0.1068  0.0338  0.1457
  332loPI   GL1 5301  12.153   9.988  10.320  0.0468 -0.1840 -0.3484
  332loPI   GL2 5302  12.165  10.304  10.233  0.1724 -0.0959 -0.1999
  332loPI   C1A 5303  12.238   9.909   9.881 -0.0954 -0.0181  0.0088
  332loPI   C2A 5304  12.537   9.986   9.465 -0.0858  0.1961  0.1918
  332loPI   C3A 5305  12.624  10.044   8.973 -0.3464 -0.1456 -0.1197
  332loPI   C4A 5306  12.493  10.147   8.557  0.1610  0.0544 -0.1564
  332loPI   C5A 5307  12.450  10.329   8.145 -0.1151 -0.0141 -0.3523
  332loPI   C6A 5308  12.204  10.426   7.862 -0.2128  0.2978 -0.0646
  332loPI   C1B 5309  11.962  10.289   9.905 -0.3870 -0.5305 -0.0850
  332loPI   C2B 5310  11.962  10.083   9.447  0.3461 -0.2241  0.1117
  332loPI   C3B 5311  12.089  10.109   9.048  0.1985  0.8622  0.0520
  332loPI   C4B 5312  11.984  10.220   8.632 -0.1252  0.0038 -0.0202
  333loPI    C1 5313   9.285  15.340  10.426 -0.1936  0.2507  0.0205
  333loPI    C2 5314   9.513  15.253  10.743 -0.0585  0.0233 -0.1365
  333loPI    C3 5315   9.185  15.477  10.789 -0.0902 -0.0822  0.1787
  333loPI   PO4 5316   9.423  15.206  10.211  0.1397  0.1196 -0.2926
  333loPI   GL1 5317   9.816  15.151   9.975  0.2230  0.2216  0.1877
  333loPI   GL2 5318   9.627  15.138   9.678  0.0094  0.1570  0.0032
  333loPI   C1A 5319  10.095  14.980   9.736 -0.0624 -0.0488  0.3234
  333loPI   C2A 5320  10.139  14.964   9.273 -0.0759  0.3313 -0.0551
  333loPI   C3A 5321  10.108  14.862   8.866  0.1185 -0.1447 -0.2998
  333loPI   C4A 5322  10.042  14.808   8.436  0.0212  0.1464  0.0086
  333loPI   C5A 5323  10.301  14.591   8.089  0.1351  0.1497  0.1946
  333loPI   C6A 5324  10.562  14.768   7.792 -0.1842  0.0378  0.0389
  333loPI   C1B 5325   9.662  15.141   9.292  0.1345  0.1848  0.2469
  333loPI   C2B 5326   9.658  15.129   8.814  0.0596  0.1340 -0.0548
  333loPI   C3B 5327   9.575  15.050   8.349 -0.2835  0.1400  0.1733
  333loPI   C4B 5328   9.605  14.923   7.958  0.0694  0.0630  0.1053
  334loPI    C1 5329   2.296  12.589  10.351 -0.0580  0.1246 -0.0422
  334loPI    C2 5330   2.642  12.661  10.164 -0.1024 -0.0367 -0.1886
  334loPI    C3 5331   2.589  12.316  10.360 -0.1277  0.0495 -0.0427
  334loPI   PO4 5332   2.132  12.717  10.062 -0.2513 -0.0045  0.0442
  334loPI   GL1 5333   2.146  12.740   9.609  0.0261  0.2173  0.2031
  334loPI   GL2 5334   2.070  12.410   9.433 -0.0996  0.2868  0.0199
  334loPI   C1A 5335   2.255  12.931   9.230  0.1441 -0.3188  0.1753
  334loPI   C2A 5336   2.335  13.049   8.829  0.0418  0.1403  0.0917
  334loPI   C3A 5337   2.214  13.217   8.475  0.1585  0.0979  0.1232
  334loPI   C4A 5338   1.986  13.106   8.133 -0.1679  0.1563  0.3577
  334loPI   C5A 5339   1.837  13.091   7.701 -0.1326  0.1997 -0.2655
  334loPI   C6A 5340   1.871  12.699   7.454 -0.0135  0.0497  0.1760
  334loPI   C1B 5341   2.278  12.512   9.010  0.1138 -0.0517 -0.0009
  334loPI   C2B 5342   2.266  12.554   8.687 -0.1509  0.0244 -0.1234
  334loPI   C3B 5343   2.222  12.711   8.292  0.1364  0.1741 -0.1266
  334loPI   C4B 5344   2.219  12.779   7.796  0.0133  0.1771 -0.1938
  335loPI    C1 5345   9.485   5.442  10.320  0.0827 -0.0308  0.0592
  335loPI    C2 5346   9.423   5.723  10.598  0.0022 -0.0114  0.0220
  335loPI    C3 5347   9.369   5.337  10.688 -0.1528  0.0036 -0.0036
  335loPI   PO4 5348   9.717   5.450  10.166 -0.2688 -0.1016  0.0245
  335loPI   GL1 5349   9.514   5.442   9.783 -0.0524 -0.0225  0.0821
  335loPI   GL2 5350   9.188   5.475   9.548 -0.0465 -0.1654  0.0842
  335loPI   C1A 5351   9.635   5.500   9.282  0.1428 -0.0995  0.3232
  335loPI   C2A 5352   9.669   5.381   8.893  0.2792 -0.2227 -0.0374
  335loPI   C3A 5353   9.823   5.425   8.458  0.0795 -0.1675  0.0060
  335loPI   C4A 5354   9.717   5.226   8.040  0.2940 -0.1115  0.3002
  335loPI   C5A 5355   9.525   5.098   7.687 -0.1231  0.0980 -0.0278
  335loPI   C6A 5356   9.185   5.022   7.497  0.0661  0.1201  0.0592
  335loPI   C1B 5357   9.170   5.519   9.116 -0.1439 -0.0549 -0.2961
  335loPI   C2B 5358   9.127   5.445   8.821 -0.3405  0.0863  0.3032
  335loPI   C3B 5359   9.207   5.559   8.355  0.3363  0.1807  0.0090
  335loPI   C4B 5360   9.091   5.467   7.966 -0.1499  0.1157 -0.3985
  336loPI    C1 5361   1.596  12.758  10.158  0.0050 -0.1848  0.0942
  336loPI    C2 5362   1.883  12.839  10.425 -0.0026 -0.1181  0.0820
  336loPI    C3 5363   1.551  13.062  10.414  0.0153 -0.0956 -0.0094
  336loPI   PO4 5364   1.662  12.859   9.824 -0.3340  0.0775 -0.1340
  336loPI   GL1 5365   1.809  13.116   9.581 -0.2362  0.1106 -0.3183
  336loPI   GL2 5366   1.694  13.366   9.460  0.1239  0.1434  0.0580
  336loPI   C1A 5367   1.802  12.777   9.217  0.0783 -0.3667 -0.1627
  336loPI   C2A 5368   1.853  12.785   8.799 -0.2703  0.2187 -0.0652
  336loPI   C3A 5369   1.643  12.873   8.373 -0.0333  0.1181 -0.0466
  336loPI   C4A 5370   1.547  13.213   8.076  0.0350 -0.1771 -0.1434
  336loPI   C5A 5371   1.345  13.617   8.102 -0.1472  0.1306 -0.1174
  336loPI   C6A 5372   1.204  13.803   7.902 -0.1278 -0.1056  0.1118
  336loPI   C1B 5373   1.738  13.355   9.005  0.0713 -0.1301  0.2545
  336loPI   C2B 5374   1.753  13.328   8.501  0.0208  0.1416 -0.0289
  336loPI   C3B 5375   1.838  13.668   8.180  0.0876  0.1959  0.0420
  336loPI   C4B 5376   1.699  13.938   7.850  0.1089  0.2180 -0.0937
  337loPI    C1 5377  15.132   4.812  10.269  0.2327 -0.1954 -0.1467
  337loPI    C2 5378  15.092   4.520  10.540  0.3323  0.0831  0.1752
  337loPI    C3 5379  15.431   4.731  10.523  0.3515  0.0272 -0.2131
  337loPI   PO4 5380  15.040   4.672  10.080 -0.0734  0.2350  0.0645
  337loPI   GL1 5381  15.269   4.811   9.798  0.0915 -0.1790 -0.3284
  337loPI   GL2 5382  15.042   5.087   9.781  0.1713 -0.0316 -0.0011
  337loPI   C1A 5383  15.315   4.759   9.341 -0.1830  0.1033  0.1531
  337loPI   C2A 5384  15.393   4.629   8.838  0.1797  0.0836 -0.1764
  337loPI   C3A 5385  15.490   4.661   8.413  0.0998 -0.0201 -0.0162
  337loPI   C4A 5386  15.736   4.408   8.260 -0.1782  0.0666 -0.2316
  337loPI   C5A 5387  15.912   4.230   7.801  0.3814 -0.1456 -0.2321
  337loPI   C6A 5388  15.927   4.218   7.353 -0.0339 -0.3514 -0.2942
  337loPI   C1B 5389  14.843   5.186   9.392 -0.1334 -0.1008 -0.0644
  337loPI   C2B 5390  14.631   5.281   8.985 -0.1739 -0.0432  0.1825
  337loPI   C3B 5391  14.771   5.422   8.616  0.0706  0.1568  0.0522
  337loPI   C4B 5392  14.828   5.380   8.227 -0.1565 -0.1706  0.0237
  338loPI    C1 5393   2.477   6.666   9.880 -0.2213  0.0264 -0.0729
  338loPI    C2 5394   2.238   6.715  10.197 -0.0493 -0.1963  0.0939
  338loPI    C3 5395   2.636   6.714  10.244 -0.0217 -0.1895 -0.1287
  338loPI   PO4 5396   2.319   6.480   9.741  0.1010 -0.1694  0.0590
  338loPI   GL1 5397   2.283   6.286   9.375 -0.1038  0.1322 -0.0390
  338loPI   GL2 5398   2.563   6.165   9.446 -0.2693 -0.0237  0.0282
  338loPI   C1A 5399   2.068   6.263   9.104  0.0577 -0.1770  0.1799
  338loPI   C2A 5400   1.715   6.472   8.886 -0.1024  0.1989 -0.0808
  338loPI   C3A 5401   1.430   6.655   8.663  0.0868 -0.1264 -0.0043
  338loPI   C4A 5402   1.379   6.735   8.186  0.1325 -0.1672  0.1359
  338loPI   C5A 5403   1.331   7.037   7.907 -0.2843 -0.0544  0.1081
  338loPI   C6A 5404   1.189   7.336   7.597 -0.0209  0.3031 -0.0032
  338loPI   C1B 5405   2.575   6.327   8.950 -0.0524 -0.2366 -0.1033
  338loPI   C2B 5406   2.664   6.484   8.552 -0.2477  0.0074  0.0338
  338loPI   C3B 5407   2.521   6.178   8.200 -0.3346  0.1231 -0.0608
  338loPI   C4B 5408   2.560   5.990   7.689 -0.6346  0.2926  0.1685
  339loPI    C1 5409   6.668  13.486  10.287  0.0701 -0.0263 -0.0706
  339loPI    C2 5410   6.317  13.651  10.386  0.0009 -0.2485  0.0610
  339loPI    C3 5411   6.580  13.858  10.167 -0.2457 -0.1110 -0.1106
  339loPI   PO4 5412   6.606  13.168  10.270 -0.0370 -0.0157  0.1730
  339loPI   GL1 5413   6.489  12.963   9.848  0.2386 -0.2031  0.0392
  339loPI   GL2 5414   6.092  12.813   9.614 -0.3232 -0.0711 -0.0626
  339loPI   C1A 5415   6.783  12.794   9.592 -0.2094  0.0184 -0.2922
  339loPI   C2A 5416   6.981  12.617   9.215 -0.1414  0.0496  0.1911
  339loPI   C3A 5417   7.236  12.489   8.867  0.0448  0.1433 -0.0303
  339loPI   C4A 5418   7.166  12.510   8.459  0.0351  0.1475  0.1569
  339loPI   C5A 5419   7.089  12.571   8.057  0.4341 -0.1353 -0.2298
  339loPI   C6A 5420   6.788  12.444   7.765 -0.0092  0.2396 -0.0369
  339loPI   C1B 5421   6.079  12.668   9.186 -0.0863  0.1759 -0.0957
  339loPI   C2B 5422   6.338  12.691   8.783 -0.0455 -0.0900  0.2347
  339loPI   C3B 5423   6.188  12.885   8.331 -0.0981 -0.0845  0.1896
  339loPI   C4B 5424   5.945  13.070   7.952 -0.0114 -0.0930 -0.1692
  340loPI    C1 5425   2.598  16.947  10.394  0.1556 -0.0207 -0.1516
  340loPI    C2 5426   2.571  17.009  10.789 -0.1527  0.2150 -0.2062
  340loPI    C3 5427   2.310  16.768  10.606 -0.0426  0.1477 -0.2755
  340loPI   PO4 5428   2.671  17.260  10.349  0.1988  0.3948 -0.0070
  340loPI   GL1 5429   2.479  17.443   9.995  0.3077 -0.0778 -0.1401
  340loPI   GL2 5430   2.379  17.655   9.838 -0.0192 -0.2211 -0.2145
  340loPI   C1A 5431   2.736  17.416   9.620 -0.1585  0.0476  0.2162
  340loPI   C2A 5432   2.820  17.394   9.150  0.0087  0.0998  0.0418
  340loPI   C3A 5433   3.031  17.340   8.767 -0.0885 -0.0651  0.1315
  340loPI   C4A 5434   2.968  17.431   8.331  0.1454 -0.2408 -0.2126
  340loPI   C5A 5435   2.932  17.577   7.937 -0.1868  0.0355 -0.1784
  340loPI   C6A 5436   3.141  17.830   7.605 -0.1149  0.1757  0.1158
  340loPI   C1B 5437   2.414  17.746   9.344 -0.0383 -0.2901  0.4241
  340loPI   C2B 5438   2.474  17.749   8.969  0.0263  0.0937  0.1641
  340loPI   C3B 5439   2.491  17.613   8.524 -0.2355  0.0645 -0.1655
  340loPI   C4B 5440   2.341  17.604   8.102 -0.1563 -0.0893  0.1785
  341loPI    C1 5441   4.835  11.333  10.214 -0.1421  0.1605  0.0442
  341loPI    C2 5442   5.029  11.681  10.178 -0.0588  0.0931 -0.1702
  341loPI    C3 5443   5.173  11.397  10.419  0.0389  0.0933 -0.2276
  341loPI   PO4 5444   4.811  11.204   9.946  0.0987  0.1796  0.0175
  341loPI   GL1 5445   4.696  11.172   9.493 -0.1255 -0.0242 -0.3442
  341loPI   GL2 5446   4.475  11.019   9.310 -0.0517 -0.1983 -0.0901
  341loPI   C1A 5447   4.880  11.441   9.203 -0.3367  0.0710 -0.1121
  341loPI   C2A 5448   4.752  11.645   8.795  0.2573 -0.0399  0.0692
  341loPI   C3A 5449   4.523  11.539   8.453 -0.0245 -0.0049  0.0960
  341loPI   C4A 5450   4.309  11.381   8.102 -0.1931 -0.0496 -0.0953
  341loPI   C5A 5451   4.132  11.159   7.653  0.0500 -0.0200  0.1902
  341loPI   C6A 5452   3.925  11.129   7.311  0.1085  0.2550 -0.2499
  341loPI   C1B 5453   4.520  11.151   8.831 -0.2241  0.1693 -0.1247
  341loPI   C2B 5454   4.618  11.003   8.419  0.2012  0.0500 -0.1980
  341loPI   C3B 5455   4.766  11.124   8.009  0.0385 -0.2235 -0.1239
  341loPI   C4B 5456   5.212  11.152   7.928  0.1154  0.4265 -0.5141
  342loPI    C1 5457   4.351  15.900  10.267  0.3765 -0.0029 -0.1501
  342loPI    C2 5458   4.415  15.712  10.614 -0.0746  0.1317  0.0126
  342loPI    C3 5459   4.608  16.052  10.533 -0.0528  0.1607  0.1830
  342loPI   PO4 5460   4.300  15.742  10.056 -0.1385  0.0798  0.2980
  342loPI   GL1 5461   4.025  15.804   9.739  0.1939  0.0860 -0.2399
  342loPI   GL2 5462   3.773  16.019   9.736 -0.1629  0.0031  0.0478
  342loPI   C1A 5463   4.088  15.865   9.390  0.0685 -0.1100  0.0699
  342loPI   C2A 5464   4.286  15.666   8.975 -0.0455  0.1807 -0.1756
  342loPI   C3A 5465   4.184  15.238   8.819  0.0642 -0.0941 -0.0925
  342loPI   C4A 5466   4.237  15.009   8.512  0.1840 -0.3947  0.1297
  342loPI   C5A 5467   4.230  14.981   8.093  0.2361 -0.1529 -0.0893
  342loPI   C6A 5468   4.542  15.013   7.744  0.1043  0.1360 -0.1109
  342loPI   C1B 5469   3.713  16.194   9.349 -0.0299 -0.2299  0.1832
  342loPI   C2B 5470   3.858  16.115   8.922 -0.2119 -0.0906 -0.0883
  342loPI   C3B 5471   4.266  16.251   8.825  0.3677 -0.2733  0.2106
  342loPI   C4B 5472   4.382  16.327   8.386  0.3105  0.2677 -0.2872
  343loPI    C1 5473  12.887  15.006  10.353  0.1693  0.0730  0.0499
  343loPI    C2 5474  13.004  15.133  10.713  0.0752  0.3406 -0.0116
  343loPI    C3 5475  12.695  14.881  10.681  0.1663  0.2131  0.1021
  343loPI   PO4 5476  12.987  15.144  10.214 -0.2431 -0.0248  0.1336
  343loPI   GL1 5477  13.225  15.124   9.885  0.2512 -0.1196  0.1698
  343loPI   GL2 5478  13.210  15.383   9.602 -0.0749 -0.1028 -0.1394
  343loPI   C1A 5479  13.409  14.936   9.549  0.0236 -0.1146  0.1280
  343loPI   C2A 5480  13.222  14.684   9.166  0.6613  0.2877 -0.1308
  343loPI   C3A 5481  13.044  14.599   8.741 -0.0149  0.2214  0.1548
  343loPI   C4A 5482  13.056  14.351   8.290  0.0927 -0.0763  0.2323
  343loPI   C5A 5483  12.828  14.074   7.947 -0.2852 -0.0005  0.0810
  343loPI   C6A 5484  12.747  13.530   7.958  0.0783 -0.0886 -0.4305
  343loPI   C1B 5485  12.978  15.131   9.407 -0.0135 -0.0735  0.0325
  343loPI   C2B 5486  12.809  15.102   8.954  0.1730  0.0328 -0.2226
  343loPI   C3B 5487  12.605  15.293   8.567 -0.3605  0.1246 -0.0698
  343loPI   C4B 5488  12.657  15.158   8.147 -0.0468 -0.2492  0.0987
  344loPI    C1 5489  10.882   8.546  10.516  0.0876  0.1405  0.0034
  344loPI    C2 5490  10.638   8.561  10.200 -0.2322  0.1154  0.2444
  344loPI    C3 5491  10.956   8.319  10.196 -0.1003  0.2878 -0.1464
  344loPI   PO4 5492  11.077   8.741  10.520 -0.1353 -0.0965 -0.1447
  344loPI   GL1 5493  10.991   8.936  10.090  0.1362  0.2280 -0.3169
  344loPI   GL2 5494  11.192   9.166   9.966  0.0095 -0.1832 -0.2379
  344loPI   C1A 5495  11.018   8.642   9.785  0.1281 -0.0636  0.1625
  344loPI   C2A 5496  11.184   8.926   9.440  0.2933  0.0164  0.1028
  344loPI   C3A 5497  11.256   8.716   8.964  0.0461  0.0575 -0.1160
  344loPI   C4A 5498  11.034   8.835   8.691 -0.0302  0.1378 -0.0400
  344loPI   C5A 5499  11.089   8.802   8.233 -0.1443  0.0531 -0.2284
  344loPI   C6A 5500  10.750   8.933   7.976 -0.2337  0.4476  0.1589
  344loPI   C1B 5501  11.527   9.219   9.658 -0.1684 -0.1506  0.0365
  344loPI   C2B 5502  11.528   9.183   9.232 -0.0834 -0.3601  0.0180
  344loPI   C3B 5503  11.385   9.231   8.900  0.0399  0.2453 -0.1836
  344loPI   C4B 5504  11.414   9.484   8.571 -0.0101 -0.0527 -0.1166
  345loPI    C1 5505   6.425   7.017  10.581  0.0477 -0.0702  0.0943
  345loPI    C2 5506   6.217   7.359  10.572  0.0757 -0.0543  0.0518
  345loPI    C3 5507   6.563   7.341  10.772  0.0897 -0.0487  0.0280
  345loPI   PO4 5508   6.479   6.926  10.317 -0.0729  0.1800 -0.1848
  345loPI   GL1 5509   6.523   7.087   9.905 -0.2813  0.0546 -0.2225
  345loPI   GL2 5510   6.381   6.888   9.706 -0.2118 -0.2908 -0.2211
  345loPI   C1A 5511   6.833   7.302   9.746 -0.2318 -0.0486 -0.0367
  345loPI   C2A 5512   6.939   7.268   9.302 -0.1323 -0.0575  0.2643
  345loPI   C3A 5513   7.134   7.331   8.932 -0.0225  0.0720 -0.1950
  345loPI   C4A 5514   7.381   7.070   8.713  0.0250  0.0589 -0.1500
  345loPI   C5A 5515   7.386   6.940   8.208 -0.0771 -0.0452 -0.2804
  345loPI   C6A 5516   7.141   6.614   7.932  0.0733 -0.2512  0.0421
  345loPI   C1B 5517   6.579   6.871   9.361  0.0170  0.0296 -0.1257
  345loPI   C2B 5518   6.542   6.930   8.899 -0.2009 -0.0870  0.0239
  345loPI   C3B 5519   6.442   6.946   8.484  0.0963 -0.1810 -0.3268
  345loPI   C4B 5520   6.327   6.934   8.091 -0.3408  0.1377 -0.2426
  346loPI    C1 5521  14.073  12.928  10.545  0.0554 -0.0861  0.1333
  346loPI    C2 5522  14.295  12.737  10.817 -0.3398 -0.4642  0.2006
  346loPI    C3 5523  13.910  12.817  10.893 -0.2679  0.0780  0.0385
  346loPI   PO4 5524  14.179  13.008  10.333 -0.1047 -0.1471 -0.1771
  346loPI   GL1 5525  13.984  13.063   9.944  0.0762 -0.1634  0.2510
  346loPI   GL2 5526  13.956  12.773   9.850  0.0409  0.5407 -0.2225
  346loPI   C1A 5527  14.156  13.181   9.535  0.3262 -0.3404 -0.1861
  346loPI   C2A 5528  14.299  13.111   9.134  0.1929  0.2683 -0.0425
  346loPI   C3A 5529  14.357  13.062   8.712  0.2103  0.0889 -0.1641
  346loPI   C4A 5530  14.483  13.062   8.314 -0.3737 -0.2896  0.1109
  346loPI   C5A 5531  14.394  12.997   7.828 -0.0261 -0.0274  0.0698
  346loPI   C6A 5532  14.543  13.258   7.404  0.1870  0.0289 -0.0717
  346loPI   C1B 5533  13.933  12.776   9.363 -0.0572 -0.0738 -0.0143
  346loPI   C2B 5534  13.881  12.877   8.898  0.0367 -0.0136  0.1255
  346loPI   C3B 5535  13.936  12.886   8.514  0.0080  0.1974  0.2262
  346loPI   C4B 5536  13.964  12.784   8.050  0.3128 -0.1120 -0.1862
  347loPI    C1 5537   3.042  17.793  10.734 -0.1846 -0.1326 -0.0376
  347loPI    C2 5538   3.099  17.436  10.562  0.0796  0.0312 -0.2992
  347loPI    C3 5539   3.243  17.506  10.928  0.2391 -0.0542 -0.3446
  347loPI   PO4 5540   2.792  17.817  10.401  0.0973  0.1649  0.3431
  347loPI   GL1 5541   2.712  18.006   9.943  0.1336  0.0850 -0.0052
  347loPI   GL2 5542   2.987  17.835   9.842  0.0569 -0.1365 -0.0722
  347loPI   C1A 5543   2.523  18.202   9.588 -0.2302 -0.3911 -0.5280
  347loPI   C2A 5544   2.567  18.183   9.099 -0.0510  0.0215 -0.1457
  347loPI   C3A 5545   2.594  18.119   8.623 -0.3325  0.1699 -0.1215
  347loPI   C4A 5546   2.751  18.005   8.249 -0.1021 -0.2214 -0.1733
  347loPI   C5A 5547   2.833  18.129   7.862  0.3422  0.1144 -0.0494
  347loPI   C6A 5548   2.981  18.312   7.534  0.2880  0.0409  0.2838
  347loPI   C1B 5549   2.904  17.889   9.420  0.2501 -0.0912  0.1675
  347loPI   C2B 5550   3.019  17.800   8.921  0.1069 -0.1026 -0.0363
  347loPI   C3B 5551   3.200  17.889   8.504  0.5183  0.3786  0.2714
  347loPI   C4B 5552   3.314  17.805   8.048  0.1677  0.1771  0.2373
  348loPI    C1 5553   5.486  15.616  10.878 -0.0773 -0.1155 -0.1150
  348loPI    C2 5554   5.753  15.824  11.091 -0.0326  0.0801 -0.3579
  348loPI    C3 5555   5.758  15.424  11.100 -0.0668  0.0847  0.0480
  348loPI   PO4 5556   5.484  15.730  10.585  0.0380  0.0015 -0.2763
  348loPI   GL1 5557   5.731  15.667  10.176  0.0381  0.0600 -0.0426
  348loPI   GL2 5558   5.713  15.477   9.947 -0.1579 -0.1157  0.2043
  348loPI   C1A 5559   5.288  15.679   9.873  0.1518 -0.0349 -0.1517
  348loPI   C2A 5560   5.057  15.817   9.511 -0.0766 -0.0304  0.0345
  348loPI   C3A 5561   5.133  16.067   9.205  0.1955  0.0551  0.0362
  348loPI   C4A 5562   5.164  16.304   8.756  0.2484  0.1245 -0.2217
  348loPI   C5A 5563   4.995  16.163   8.395  0.0571 -0.0585  0.3677
  348loPI   C6A 5564   4.749  15.910   8.287  0.0985  0.3592  0.3021
  348loPI   C1B 5565   5.845  15.422   9.488  0.3241  0.0747 -0.0887
  348loPI   C2B 5566   5.683  15.535   9.087  0.0954  0.0730  0.3891
  348loPI   C3B 5567   5.858  15.619   8.646  0.0450  0.2875 -0.1290
  348loPI   C4B 5568   5.889  15.662   8.298  0.3077  0.1749 -0.3888
  349loPI    C1 5569   3.462   1.201  10.531  0.0827  0.1451 -0.0601
  349loPI    C2 5570   3.694   1.028  10.807  0.1669 -0.2057 -0.3434
  349loPI    C3 5571   3.297   1.031  10.853  0.1931 -0.0601 -0.1106
  349loPI   PO4 5572   3.659   1.106  10.247 -0.0525  0.1204  0.1939
  349loPI   GL1 5573   3.981   0.973   9.929 -0.0127 -0.0699  0.4521
  349loPI   GL2 5574   3.931   1.277   9.804 -0.2206  0.0384 -0.0636
  349loPI   C1A 5575   4.129   0.750   9.569  0.0571 -0.2782 -0.1247
  349loPI   C2A 5576   4.007   0.563   9.084  0.2736  0.1354  0.0472
  349loPI   C3A 5577   3.740   0.424   8.678  0.0909  0.4188  0.2792
  349loPI   C4A 5578   3.604   0.268   8.224 -0.4042  0.1899 -0.1548
  349loPI   C5A 5579   3.845   0.204   7.914  0.1393  0.0465 -0.1483
  349loPI   C6A 5580   4.036   0.149   7.503  0.1624 -0.1259 -0.1241
  349loPI   C1B 5581   3.923   1.234   9.449 -0.1306  0.1434 -0.1176
  349loPI   C2B 5582   3.991   1.343   8.988 -0.2426 -0.0222  0.0034
  349loPI   C3B 5583   3.833   1.466   8.502  0.2359  0.2610  0.1205
  349loPI   C4B 5584   3.561   1.394   8.226  0.2819  0.2548  0.2891
  350loPI    C1 5585   9.450   8.184  10.706  0.0180  0.0203 -0.0818
  350loPI    C2 5586   9.082   8.132  10.855  0.0442  0.0897  0.0078
  350loPI    C3 5587   9.386   8.225  11.098  0.1316 -0.0188 -0.0588
  350loPI   PO4 5588   9.505   8.085  10.489  0.2324  0.3422  0.2470
  350loPI   GL1 5589   9.483   8.015   9.995 -0.1137  0.1362 -0.0795
  350loPI   GL2 5590   9.550   8.170   9.739 -0.1607 -0.2928  0.0135
  350loPI   C1A 5591   9.242   7.741   9.707 -0.2632 -0.2447 -0.0654
  350loPI   C2A 5592   9.318   7.704   9.336 -0.2891 -0.1494  0.3344
  350loPI   C3A 5593   9.339   7.814   8.962 -0.1623  0.3174 -0.3463
  350loPI   C4A 5594   9.289   7.929   8.491 -0.2341  0.1594 -0.1472
  350loPI   C5A 5595   9.321   7.749   8.102  0.0695  0.1009 -0.4183
  350loPI   C6A 5596   9.662   7.629   7.836 -0.1873  0.0741 -0.1907
  350loPI   C1B 5597   9.682   8.032   9.266  0.0493  0.0157  0.2181
  350loPI   C2B 5598   9.639   8.168   8.881  0.0307  0.2432  0.2341
  350loPI   C3B 5599   9.611   8.328   8.550  0.3688  0.0555  0.3241
  350loPI   C4B 5600   9.739   8.622   8.107  0.1239  0.1826  0.1808
  351loPI    C1 5601   0.417  13.173   9.942  0.0889  0.1144 -0.1109
  351loPI    C2 5602   0.608  12.998  10.247 -0.0854 -0.0605 -0.0995
  351loPI    C3 5603   0.816  13.154   9.943  0.0970  0.2400  0.1720
  351loPI   PO4 5604   0.267  12.901   9.865  0.1876 -0.2462 -0.0458
  351loPI   GL1 5605   0.183  12.621   9.597 -0.3162 -0.0004 -0.1680
  351loPI   GL2 5606   0.119  12.372   9.422  0.3616  0.0951  0.0281
  351loPI   C1A 5607   0.223  12.806   9.198  0.3194 -0.1446  0.0225
  351loPI   C2A 5608   0.088  12.809   8.789 -0.1661 -0.1774  0.2432
  351loPI   C3A 5609  -0.118  12.577   8.440 -0.0249  0.0732  0.0977
  351loPI   C4A 5610  -0.421  12.601   8.080  0.2461  0.0088  0.3433
  351loPI   C5A 5611  -0.844  12.624   7.840 -0.0453  0.0714  0.0323
  351loPI   C6A 5612  -1.145  12.572   7.585 -0.0448 -0.1709 -0.0938
  351loPI   C1B 5613  -0.017  12.357   9.056 -0.1269  0.1519  0.0334
  351loPI   C2B 5614   0.084  12.181   8.736 -0.0814  0.0115  0.1436
  351loPI   C3B 5615   0.181  12.016   8.446 -0.4041 -0.2220 -0.1728
  351loPI   C4B 5616   0.554  11.903   8.221 -0.1207  0.0710 -0.1421
  352loPI    C1 5617   3.930   0.025  10.720 -0.0468  0.1918  0.0899
  352loPI    C2 5618   4.200   0.201  10.957  0.1236 -0.0196  0.0561
  352loPI    C3 5619   4.229  -0.190  10.876  0.0655  0.0487 -0.3091
  352loPI   PO4 5620   3.949   0.088  10.452 -0.0560  0.0403  0.2360
  352loPI   GL1 5621   4.094   0.092  10.044 -0.0613  0.0026  0.0277
  352loPI   GL2 5622   4.391   0.022   9.801  0.1604  0.1028 -0.0773
  352loPI   C1A 5623   3.897   0.338   9.696 -0.0765  0.2665 -0.0069
  352loPI   C2A 5624   3.857   0.038   9.298  0.1100  0.3755 -0.0732
  352loPI   C3A 5625   3.711  -0.066   8.888 -0.1379 -0.1674 -0.0671
  352loPI   C4A 5626   3.878  -0.010   8.521  0.0833 -0.1198  0.4887
  352loPI   C5A 5627   3.962  -0.254   8.105 -0.1163 -0.3312 -0.0485
  352loPI   C6A 5628   3.960  -0.339   7.730  0.0438 -0.1250 -0.2188
  352loPI   C1B 5629   4.272   0.274   9.401  0.0476  0.0049 -0.0171
  352loPI   C2B 5630   4.263   0.074   9.014 -0.1365 -0.1361  0.0149
  352loPI   C3B 5631   4.340   0.098   8.646  0.0842 -0.0880 -0.1790
  352loPI   C4B 5632   4.233   0.178   8.272 -0.0315 -0.0456 -0.0594
  353loPI    C1 5633  10.868   5.560  10.580  0.1428 -0.1203  0.0173
  353loPI    C2 5634  11.157   5.832  10.532  0.1786 -0.1365  0.1381
  353loPI    C3 5635  11.088   5.675  10.893 -0.1725  0.0796  0.1705
  353loPI   PO4 5636  10.762   5.517  10.328  0.0197  0.0977 -0.2968
  353loPI   GL1 5637  10.546   5.391   9.952 -0.2033  0.1232  0.0387
  353loPI   GL2 5638  10.750   5.227   9.869  0.2158  0.2231 -0.0364
  353loPI   C1A 5639  10.430   5.511   9.594 -0.0076  0.3054  0.0741
  353loPI   C2A 5640  10.515   5.674   9.157  0.3245 -0.3224  0.0845
  353loPI   C3A 5641  10.525   5.718   8.766  0.0727  0.1351 -0.0716
  353loPI   C4A 5642  10.472   5.774   8.269 -0.2531 -0.2338  0.0351
  353loPI   C5A 5643  10.067   5.580   8.025 -0.2556 -0.2573 -0.0054
  353loPI   C6A 5644   9.878   5.561   7.639 -0.3224 -0.3246  0.0198
  353loPI   C1B 5645  10.670   5.157   9.359 -0.0421  0.0807 -0.0599
  353loPI   C2B 5646  10.729   5.253   8.936  0.0283 -0.0645 -0.1214
  353loPI   C3B 5647  10.878   5.349   8.574 -0.1241 -0.2020  0.0401
  353loPI   C4B 5648  10.899   5.442   8.151  0.1842 -0.1651  0.1117
  354loPI    C1 5649  14.893   0.113  10.627 -0.0048 -0.1542 -0.3680
  354loPI    C2 5650  14.604   0.332  10.796  0.2608  0.0704 -0.1955
  354loPI    C3 5651  14.531  -0.045  10.687 -0.1006  0.1300 -0.1716
  354loPI   PO4 5652  14.970   0.271  10.411 -0.0842 -0.1363 -0.0590
  354loPI   GL1 5653  15.071   0.517  10.041  0.0325  0.0762 -0.2248
  354loPI   GL2 5654  14.941   0.245   9.915 -0.0258  0.0729  0.0914
  354loPI   C1A 5655  15.267   0.845   9.826 -0.0248 -0.1455  0.2812
  354loPI   C2A 5656  15.461   0.940   9.315  0.1422  0.2077  0.2789
  354loPI   C3A 5657  15.513   0.871   8.891  0.1763  0.1506  0.5277
  354loPI   C4A 5658  15.717   1.182   8.578 -0.1961  0.0289 -0.1262
  354loPI   C5A 5659  15.652   1.425   8.185  0.0566 -0.3298 -0.1526
  354loPI   C6A 5660  15.398   1.348   7.816 -0.0900  0.0556  0.0049
  354loPI   C1B 5661  14.945   0.099   9.507  0.1859 -0.1864 -0.2130
  354loPI   C2B 5662  15.039   0.139   9.095 -0.0374 -0.1970 -0.1440
  354loPI   C3B 5663  15.380   0.159   8.877  0.0757 -0.1170  0.1612
  354loPI   C4B 5664  15.724   0.467   9.100  0.2901 -0.2248 -0.1567
  355loPI    C1 5665   9.911   5.794  10.593 -0.0598  0.2032  0.2119
  355loPI    C2 5666   9.858   5.401  10.646 -0.1328  0.1792 -0.0287
  355loPI    C3 5667  10.071   5.611  10.911  0.1325 -0.0723 -0.0367
  355loPI   PO4 5668   9.972   5.866  10.375  0.2930  0.2696  0.1181
  355loPI   GL1 5669  10.339   5.856  10.029 -0.0835 -0.1327  0.1479
  355loPI   GL2 5670  10.028   5.773   9.872 -0.3959 -0.2421  0.2453
  355loPI   C1A 5671  10.441   6.043   9.585  0.0005  0.2087  0.1214
  355loPI   C2A 5672  10.366   6.188   9.156 -0.0571  0.1042 -0.0057
  355loPI   C3A 5673  10.460   6.337   8.726  0.3061 -0.1151 -0.2289
  355loPI   C4A 5674  10.700   6.355   8.304 -0.1726  0.0657 -0.0784
  355loPI   C5A 5675  10.820   6.095   8.016  0.0013 -0.1340 -0.3163
  355loPI   C6A 5676  11.036   5.839   7.878 -0.1835  0.1423  0.2427
  355loPI   C1B 5677  10.057   5.790   9.362 -0.0775 -0.1638 -0.0317
  355loPI   C2B 5678   9.958   5.784   9.017 -0.1616 -0.0981 -0.0098
  355loPI   C3B 5679  10.087   5.998   8.698 -0.2460 -0.1152  0.0004
  355loPI   C4B 5680  10.231   6.225   8.315 -0.1058 -0.3692 -0.0582
  356loPI    C1 5681   0.611  10.720   9.856  0.2687  0.2873 -0.1449
  356loPI    C2 5682   0.755  10.673  10.226  0.2551 -0.0706 -0.1824
  356loPI    C3 5683   0.386  10.817  10.172  0.2154 -0.1211 -0.0519
  356loPI   PO4 5684   0.886  10.938   9.727  0.2219  0.0366 -0.1061
  356loPI   GL1 5685   0.927  11.200   9.345 -0.0108  0.1142 -0.2489
  356loPI   GL2 5686   0.852  10.974   9.200 -0.1106  0.0522 -0.1205
  356loPI   C1A 5687   1.262  11.564   9.364 -0.2555  0.1181 -0.1475
  356loPI   C2A 5688   1.337  11.867   9.115 -0.1475  0.0382  0.3360
  356loPI   C3A 5689   1.293  12.039   8.622  0.2297  0.0329 -0.3791
  356loPI   C4A 5690   1.318  12.037   8.216 -0.0213  0.0327  0.2257
  356loPI   C5A 5691   1.421  12.262   7.849  0.1882 -0.0617  0.3684
  356loPI   C6A 5692   1.272  12.534   7.633 -0.0121  0.0062  0.2853
  356loPI   C1B 5693   1.173  11.259   8.929 -0.1971  0.1954  0.1783
  356loPI   C2B 5694   1.363  11.546   8.642 -0.2204 -0.0203 -0.1725
  356loPI   C3B 5695   1.447  11.489   8.185  0.2235 -0.1858 -0.1559
  356loPI   C4B 5696   1.542  11.204   7.791 -0.1318  0.2217 -0.0065
  357loPI    C1 5697  16.660  13.061  10.224 -0.1653  0.0009 -0.0143
  357loPI    C2 5698  16.635  13.079  10.622 -0.0038  0.1010 -0.0076
  357loPI    C3 5699  16.747  13.402  10.414  0.0951 -0.0043 -0.1194
  357loPI   PO4 5700  16.833  12.850  10.121 -0.2157 -0.2106  0.1702
  357loPI   GL1 5701  16.930  12.991   9.722 -0.4075 -0.0487 -0.0697
  357loPI   GL2 5702  16.636  12.877   9.634  0.0393 -0.1290  0.0943
  357loPI   C1A 5703  16.899  13.305   9.327  0.1886  0.0655  0.1387
  357loPI   C2A 5704  16.779  13.310   8.882 -0.0744 -0.0158 -0.3788
  357loPI   C3A 5705  16.878  13.238   8.449  0.0313  0.2141 -0.2131
  357loPI   C4A 5706  17.011  13.185   8.090  0.1978 -0.1662  0.0015
  357loPI   C5A 5707  17.351  13.091   7.804  0.0028  0.0911  0.1011
  357loPI   C6A 5708  17.587  12.969   7.491 -0.0629 -0.0145 -0.1312
  357loPI   C1B 5709  16.695  12.874   9.156 -0.0094 -0.0700  0.2588
  357loPI   C2B 5710  16.647  12.836   8.736 -0.1274  0.0303 -0.2520
  357loPI   C3B 5711  16.635  12.774   8.298 -0.0278  0.0980 -0.0566
  357loPI   C4B 5712  16.581  13.037   7.999  0.1209 -0.0614 -0.2209
  358loPI    C1 5713  17.541   2.582  10.467 -0.1497  0.0272  0.1756
  358loPI    C2 5714  17.347   2.233  10.435 -0.0927  0.0063  0.0519
  358loPI    C3 5715  17.239   2.497  10.715 -0.1425 -0.1066  0.1395
  358loPI   PO4 5716  17.620   2.621  10.249  0.0132  0.0917  0.0097
  358loPI   GL1 5717  17.581   2.475   9.966  0.3444 -0.2072 -0.1098
  358loPI   GL2 5718  17.778   2.623   9.732  0.0882  0.0016  0.3892
  358loPI   C1A 5719  17.482   2.202   9.589 -0.3190 -0.1989  0.3640
  358loPI   C2A 5720  17.040   2.233   9.416  0.1377 -0.1385 -0.0440
  358loPI   C3A 5721  16.858   2.178   8.960  0.1134  0.1877 -0.2426
  358loPI   C4A 5722  16.840   2.110   8.568  0.1040  0.3649 -0.0078
  358loPI   C5A 5723  17.044   1.916   8.220  0.0886  0.1068 -0.0463
  358loPI   C6A 5724  17.339   2.096   7.937 -0.0006  0.3737  0.0253
  358loPI   C1B 5725  17.969   2.620   9.250 -0.4353  0.3071 -0.0002
  358loPI   C2B 5726  18.281   2.618   8.983  0.3381 -0.0060  0.1429
  358loPI   C3B 5727  18.199   2.606   8.585 -0.2567  0.1194 -0.1187
  358loPI   C4B 5728  18.386   2.642   8.203  0.1648 -0.1067 -0.1961
  359loPI    C1 5729   2.580   1.297  10.422  0.0430 -0.1746  0.2474
  359loPI    C2 5730   2.942   1.202  10.563  0.0728  0.0142  0.2997
  359loPI    C3 5731   2.721   1.478  10.750  0.0213  0.1079  0.1037
  359loPI   PO4 5732   2.672   1.348  10.172  0.0765 -0.1902  0.0268
  359loPI   GL1 5733   2.832   1.129   9.792  0.1917 -0.1844  0.0268
  359loPI   GL2 5734   3.108   0.956   9.736 -0.0345  0.2961  0.1699
  359loPI   C1A 5735   2.733   1.044   9.366 -0.0306  0.2700  0.3430
  359loPI   C2A 5736   2.375   0.931   9.046  0.1092 -0.1444  0.0129
  359loPI   C3A 5737   2.255   0.956   8.629  0.0839 -0.1323 -0.1932
  359loPI   C4A 5738   2.209   1.228   8.214  0.3185 -0.0619  0.4122
  359loPI   C5A 5739   2.144   1.735   8.078 -0.1906 -0.4332 -0.1449
  359loPI   C6A 5740   2.212   2.048   7.763 -0.2149 -0.0002  0.0439
  359loPI   C1B 5741   3.209   0.796   9.341  0.1117  0.3917 -0.0430
  359loPI   C2B 5742   3.084   0.872   8.957  0.1277  0.1024 -0.1977
  359loPI   C3B 5743   2.820   0.902   8.558 -0.0170 -0.1142 -0.2293
  359loPI   C4B 5744   2.628   0.913   8.112  0.1265 -0.0917 -0.0631
  360loPI    C1 5745   0.994   2.115  10.413 -0.0535  0.2917  0.0727
  360loPI    C2 5746   0.926   1.777  10.615  0.0967  0.1339 -0.1370
  360loPI    C3 5747   1.187   2.044  10.756  0.0846  0.0965 -0.0434
  360loPI   PO4 5748   1.062   1.995  10.176  0.0304 -0.1236  0.0558
  360loPI   GL1 5749   1.032   1.827   9.797 -0.1576 -0.1964  0.1093
  360loPI   GL2 5750   1.182   2.052   9.638 -0.0919  0.0323  0.0248
  360loPI   C1A 5751   0.729   1.979   9.499  0.1695  0.0386 -0.0793
  360loPI   C2A 5752   0.533   2.005   9.022  0.3733  0.0546 -0.2505
  360loPI   C3A 5753   0.551   1.919   8.596  0.2879 -0.0720  0.1899
  360loPI   C4A 5754   0.615   1.924   8.197 -0.2507  0.0286 -0.0691
  360loPI   C5A 5755   0.852   1.831   7.849 -0.1451 -0.4559  0.1465
  360loPI   C6A 5756   0.951   1.501   7.607  0.0359  0.2995 -0.0608
  360loPI   C1B 5757   1.254   1.997   9.169  0.2876 -0.0842  0.0583
  360loPI   C2B 5758   1.005   2.085   8.798  0.0345  0.1026  0.2054
  360loPI   C3B 5759   0.982   2.203   8.345  0.1586 -0.1393 -0.3929
  360loPI   C4B 5760   0.825   2.396   8.040  0.1795 -0.1491 -0.0991
  361loPI    C1 5761  18.202  14.514  10.189  0.2436 -0.0224 -0.0678
  361loPI    C2 5762  18.226  14.150  10.352  0.2058  0.0345  0.0667
  361loPI    C3 5763  18.555  14.329  10.213  0.2183 -0.0666 -0.0362
  361loPI   PO4 5764  18.034  14.505  10.007  0.0345  0.0516  0.1380
  361loPI   GL1 5765  17.940  14.517   9.567  0.0969 -0.0603 -0.0963
  361loPI   GL2 5766  18.080  14.197   9.531  0.1265 -0.0965 -0.0298
  361loPI   C1A 5767  17.952  14.650   9.216 -0.2221 -0.0957  0.2853
  361loPI   C2A 5768  17.908  14.882   8.884  0.0572  0.3110 -0.1130
  361loPI   C3A 5769  17.885  14.840   8.422 -0.4145  0.0598  0.0588
  361loPI   C4A 5770  17.725  14.474   8.222 -0.0869 -0.0161 -0.1976
  361loPI   C5A 5771  17.767  14.079   8.014 -0.2411 -0.1946 -0.1501
  361loPI   C6A 5772  17.557  13.900   7.668  0.0248 -0.1188 -0.1760
  361loPI   C1B 5773  17.802  14.086   9.427 -0.2360 -0.0205 -0.0801
  361loPI   C2B 5774  17.513  14.289   9.204  0.0648 -0.2237 -0.1798
  361loPI   C3B 5775  17.158  14.239   8.911 -0.2003  0.1090 -0.2699
  361loPI   C4B 5776  17.137  14.222   8.493 -0.3192 -0.2358 -0.1522
  362loPI    C1 5777  17.132  13.430  10.048  0.1498  0.1987  0.1425
  362loPI    C2 5778  16.996  13.739   9.833 -0.2978  0.0228  0.1614
  362loPI    C3 5779  16.757  13.426   9.907  0.0566 -0.2025  0.3834
  362loPI   PO4 5780  17.368  13.289   9.876 -0.2713 -0.1086 -0.0113
  362loPI   GL1 5781  17.418  13.395   9.519  0.0565  0.1675 -0.0333
  362loPI   GL2 5782  17.486  13.696   9.508 -0.0261  0.0798  0.0811
  362loPI   C1A 5783  17.259  13.496   9.052  0.0769  0.0554  0.1046
  362loPI   C2A 5784  17.278  13.506   8.717 -0.0552 -0.1974  0.0908
  362loPI   C3A 5785  17.441  13.353   8.401  0.2513 -0.2190 -0.0418
  362loPI   C4A 5786  17.604  13.488   8.024  0.1732 -0.4521 -0.0373
  362loPI   C5A 5787  17.926  13.485   7.652 -0.2381  0.1081 -0.1304
  362loPI   C6A 5788  18.093  13.719   7.309  0.1764 -0.1103  0.0902
  362loPI   C1B 5789  17.595  13.823   9.104  0.1186  0.0928 -0.3887
  362loPI   C2B 5790  17.578  13.922   8.712 -0.3223 -0.2851 -0.1962
  362loPI   C3B 5791  17.477  13.878   8.351 -0.0574 -0.3573 -0.0247
  362loPI   C4B 5792  17.187  13.871   8.040  0.4800  0.0980  0.3926
  363loPI    C1 5793   2.827  15.854  10.321  0.0785  0.2420 -0.0851
  363loPI    C2 5794   3.027  15.980  10.644  0.2477  0.0106 -0.0973
  363loPI    C3 5795   2.910  15.598  10.617  0.0990  0.0652 -0.2419
  363loPI   PO4 5796   2.987  15.989  10.108  0.6115  0.3559  0.0754
  363loPI   GL1 5797   2.834  16.191   9.751 -0.1110 -0.2235  0.0456
  363loPI   GL2 5798   2.628  16.425   9.625 -0.0070 -0.1146  0.0545
  363loPI   C1A 5799   2.909  16.069   9.382  0.0123 -0.0083  0.4346
  363loPI   C2A 5800   2.937  16.062   8.927 -0.1865  0.3607  0.3099
  363loPI   C3A 5801   2.983  16.148   8.477 -0.1328 -0.0677 -0.0582
  363loPI   C4A 5802   2.941  16.346   8.094 -0.1176 -0.0298 -0.0458
  363loPI   C5A 5803   2.788  16.608   7.765  0.2537 -0.0111  0.0431
  363loPI   C6A 5804   2.389  16.586   7.551 -0.2369 -0.3798 -0.0990
  363loPI   C1B 5805   2.680  16.419   9.141 -0.1424  0.1266  0.2904
  363loPI   C2B 5806   2.687  16.442   8.683  0.1612 -0.1427  0.1509
  363loPI   C3B 5807   2.938  16.661   8.471 -0.1274  0.2300 -0.0976
  363loPI   C4B 5808   2.984  16.949   8.143 -0.2696  0.1323  0.4948
  364loPI    C1 5809  10.621   4.264  10.319  0.1777 -0.0679 -0.2102
  364loPI    C2 5810  10.503   4.131  10.677 -0.0882  0.0611 -0.2469
  364loPI    C3 5811  10.639   4.505  10.637 -0.1683  0.0845 -0.3014
  364loPI   PO4 5812  10.514   4.044  10.120 -0.0708 -0.1740 -0.1056
  364loPI   GL1 5813  10.445   4.148   9.773  0.3476 -0.1352  0.0256
  364loPI   GL2 5814  10.601   3.839   9.616 -0.1251  0.1256 -0.2559
  364loPI   C1A 5815  10.364   4.312   9.475 -0.0417  0.2334 -0.1381
  364loPI   C2A 5816  10.315   4.343   9.019  0.1020 -0.0604  0.0458
  364loPI   C3A 5817  10.408   4.366   8.598  0.3508 -0.2152  0.1093
  364loPI   C4A 5818  10.525   4.331   8.194  0.0108 -0.2329 -0.1839
  364loPI   C5A 5819  10.366   4.551   7.869 -0.0299  0.0210 -0.1067
  364loPI   C6A 5820  10.561   4.958   7.777  0.0007  0.2110 -0.1390
  364loPI   C1B 5821  10.621   3.863   9.263  0.2213  0.0049 -0.0921
  364loPI   C2B 5822  10.588   3.943   8.794  0.2015 -0.1752 -0.0860
  364loPI   C3B 5823  10.653   3.934   8.384 -0.0954  0.1350  0.0934
  364loPI   C4B 5824  10.770   3.956   7.958 -0.0899  0.2403 -0.1922
  365loPI    C1 5825  15.365   6.023  10.276 -0.0902 -0.0403 -0.3060
  365loPI    C2 5826  14.970   6.085  10.272 -0.1035 -0.0692  0.1164
  365loPI    C3 5827  15.220   6.392  10.327 -0.0700 -0.0665 -0.0454
  365loPI   PO4 5828  15.358   5.802  10.062  0.0174  0.1886 -0.2728
  365loPI   GL1 5829  15.081   5.908   9.716  0.0505  0.0462  0.1296
  365loPI   GL2 5830  15.168   5.528   9.628 -0.0775  0.1864 -0.3574
  365loPI   C1A 5831  15.126   6.209   9.338 -0.0116 -0.1616 -0.3152
  365loPI   C2A 5832  15.131   6.272   8.838  0.1571 -0.0675  0.0812
  365loPI   C3A 5833  15.085   6.357   8.370  0.0584 -0.2132  0.1985
  365loPI   C4A 5834  14.979   6.452   7.920  0.3797 -0.0706  0.1457
  365loPI   C5A 5835  14.589   6.399   7.712  0.3251  0.1315  0.0367
  365loPI   C6A 5836  14.151   6.242   7.652  0.2941 -0.0980 -0.2466
  365loPI   C1B 5837  15.283   5.362   9.172  0.2368 -0.2832 -0.0063
  365loPI   C2B 5838  15.089   5.082   8.926 -0.1725  0.1213  0.1273
  365loPI   C3B 5839  14.693   4.902   8.681 -0.1940 -0.1803  0.0856
  365loPI   C4B 5840  14.253   4.766   8.385 -0.1293 -0.4901 -0.0592
  366loPI    C1 5841   5.214   9.862  10.302  0.0445  0.1197  0.1084
  366loPI    C2 5842   5.429   9.958  10.626  0.3326  0.0215 -0.0499
  366loPI    C3 5843   5.045  10.069  10.600  0.3248  0.0856  0.2950
  366loPI   PO4 5844   5.360   9.976  10.111  0.0817  0.3294  0.0653
  366loPI   GL1 5845   5.483  10.280   9.862 -0.0534 -0.1122 -0.3400
  366loPI   GL2 5846   5.827  10.179   9.863 -0.2496 -0.1720 -0.1270
  366loPI   C1A 5847   5.309  10.429   9.459 -0.1208 -0.2175  0.1599
  366loPI   C2A 5848   5.252  10.506   9.062  0.2101  0.1010  0.0632
  366loPI   C3A 5849   5.643  10.646   8.821 -0.4254 -0.2833 -0.0216
  366loPI   C4A 5850   5.857  10.559   8.450 -0.1197 -0.0946 -0.0735
  366loPI   C5A 5851   6.217  10.402   8.199  0.0589 -0.3644  0.0552
  366loPI   C6A 5852   6.447  10.090   8.224  0.2325  0.1900 -0.0637
  366loPI   C1B 5853   5.798  10.014   9.464  0.0098  0.1077  0.2000
  366loPI   C2B 5854   6.179   9.943   9.185 -0.1016 -0.0118 -0.2677
  366loPI   C3B 5855   6.242  10.004   8.709 -0.1716 -0.2212 -0.1885
  366loPI   C4B 5856   6.043   9.912   8.400  0.2316 -0.0401  0.0739
  367loPI    C1 5857   5.340   4.366  10.465  0.0103  0.0133 -0.0948
  367loPI    C2 5858   5.698   4.437  10.628 -0.0239  0.0062 -0.0164
  367loPI    C3 5859   5.401   4.291  10.853 -0.1081  0.1156 -0.0561
  367loPI   PO4 5860   5.402   4.235  10.203 -0.0728  0.3679 -0.3167
  367loPI   GL1 5861   5.572   4.344   9.796  0.0309  0.2604 -0.1607
  367loPI   GL2 5862   5.579   4.674   9.713  0.2135  0.1101  0.0710
  367loPI   C1A 5863   5.641   4.226   9.376 -0.3804 -0.0343 -0.1635
  367loPI   C2A 5864   5.801   4.066   8.970  0.0663  0.0640 -0.0982
  367loPI   C3A 5865   6.063   3.734   8.684 -0.0175 -0.0106  0.3656
  367loPI   C4A 5866   5.922   3.312   8.666  0.0923 -0.1926 -0.1185
  367loPI   C5A 5867   5.880   3.055   8.922 -0.0766  0.0871 -0.1183
  367loPI   C6A 5868   5.741   2.678   8.973  0.0907  0.0389  0.0625
  367loPI   C1B 5869   5.496   4.816   9.314 -0.4421  0.1154 -0.0954
  367loPI   C2B 5870   5.564   4.619   9.029  0.0318  0.1316 -0.1053
  367loPI   C3B 5871   5.528   4.709   8.619 -0.0435  0.2875  0.0656
  367loPI   C4B 5872   5.494   4.827   8.193  0.3104  0.0497 -0.1020
  368loPI    C1 5873   4.967  12.140  10.393 -0.1351  0.1840  0.0218
  368loPI    C2 5874   5.201  11.925  10.636 -0.1845  0.1518  0.0412
  368loPI    C3 5875   4.877  12.108  10.782 -0.2496  0.0800 -0.0126
  368loPI   PO4 5876   5.128  12.268  10.272  0.0846  0.0298  0.1877
  368loPI   GL1 5877   5.127  12.115   9.908  0.2274 -0.0453  0.2505
  368loPI   GL2 5878   4.908  12.245   9.813 -0.2554 -0.0843  0.2810
  368loPI   C1A 5879   5.029  11.866   9.544  0.0168 -0.0791 -0.2414
  368loPI   C2A 5880   5.158  11.806   9.105 -0.1626  0.0132  0.0449
  368loPI   C3A 5881   5.250  11.921   8.693 -0.3461  0.0462 -0.1523
  368loPI   C4A 5882   4.909  11.963   8.417  0.1681 -0.1006 -0.1012
  368loPI   C5A 5883   4.918  12.173   7.928  0.2315 -0.1426  0.0981
  368loPI   C6A 5884   5.331  12.412   7.930 -0.0003 -0.2065 -0.2083
  368loPI   C1B 5885   4.743  12.262   9.427 -0.1861 -0.1986 -0.2151
  368loPI   C2B 5886   4.733  12.089   8.959  0.1457 -0.1030 -0.0322
  368loPI   C3B 5887   4.421  11.997   8.601 -0.2205 -0.2321  0.1240
  368loPI   C4B 5888   4.277  11.962   8.167  0.2462 -0.0991 -0.2905
  369loPI    C1 5889   5.923  13.171  10.460 -0.0001  0.0469  0.0815
  369loPI    C2 5890   6.180  13.302  10.738 -0.0775 -0.0882  0.2185
  369loPI    C3 5891   6.009  12.942  10.777 -0.1130 -0.0954  0.0103
  369loPI   PO4 5892   6.055  13.174  10.212 -0.3380 -0.0677 -0.1150
  369loPI   GL1 5893   6.174  13.606   9.923 -0.0552 -0.2468  0.3721
  369loPI   GL2 5894   6.382  13.400   9.923 -0.0827 -0.0612  0.2785
  369loPI   C1A 5895   6.290  13.676   9.445 -0.0935 -0.0619  0.0244
  369loPI   C2A 5896   6.241  13.607   9.088  0.1271 -0.1461  0.3170
  369loPI   C3A 5897   6.372  13.308   8.736 -0.0970 -0.1971  0.3495
  369loPI   C4A 5898   6.606  13.159   8.361 -0.2192  0.1851  0.1152
  369loPI   C5A 5899   6.728  12.913   7.967 -0.0533 -0.0654 -0.1166
  369loPI   C6A 5900   6.603  12.862   7.530  0.2946 -0.4228  0.3243
  369loPI   C1B 5901   6.410  13.219   9.472  0.2672 -0.0574  0.1223
  369loPI   C2B 5902   6.577  13.010   9.146  0.2786 -0.1042 -0.1403
  369loPI   C3B 5903   6.801  12.965   8.855 -0.1281 -0.0111  0.0058
  369loPI   C4B 5904   7.082  12.992   8.567  0.5292  0.1184 -0.0576
  370loPI    C1 5905  11.121   2.112  10.446 -0.0309 -0.0227 -0.0109
  370loPI    C2 5906  10.766   1.968  10.559 -0.0015 -0.0016  0.1090
  370loPI    C3 5907  10.810   2.359  10.490 -0.0200 -0.0147  0.0217
  370loPI   PO4 5908  11.146   1.951  10.191 -0.0514  0.4441 -0.1164
  370loPI   GL1 5909  11.201   1.947   9.736 -0.2999  0.2908 -0.0223
  370loPI   GL2 5910  11.494   1.998   9.793 -0.0752  0.1192 -0.2785
  370loPI   C1A 5911  11.066   1.958   9.286 -0.2494 -0.1830 -0.0155
  370loPI   C2A 5912  11.080   1.938   8.872 -0.0363 -0.0385  0.1338
  370loPI   C3A 5913  11.062   2.094   8.511  0.1968 -0.0005 -0.0334
  370loPI   C4A 5914  11.019   2.139   8.112  0.0650  0.1093 -0.1223
  370loPI   C5A 5915  10.940   1.960   7.721  0.3198 -0.0821 -0.1552
  370loPI   C6A 5916  10.663   2.080   7.283 -0.0348  0.2262 -0.0775
  370loPI   C1B 5917  11.547   2.005   9.308 -0.0316  0.0356  0.1627
  370loPI   C2B 5918  11.575   2.056   8.951 -0.0944  0.0045  0.0270
  370loPI   C3B 5919  11.553   1.946   8.486  0.1627  0.2970 -0.0278
  370loPI   C4B 5920  11.456   1.800   8.145 -0.0329 -0.1518  0.0248
  371loPI    C1 5921   1.649   4.580  10.589  0.0856 -0.1293  0.2600
  371loPI    C2 5922   1.476   4.930  10.678 -0.0056 -0.0653 -0.1454
  371loPI    C3 5923   1.279   4.587  10.742 -0.0573 -0.0234 -0.0789
  371loPI   PO4 5924   1.662   4.566  10.333 -0.1689 -0.0331  0.3972
  371loPI   GL1 5925   1.868   4.606   9.904  0.0028 -0.2161 -0.0096
  371loPI   GL2 5926   2.091   4.375   9.838 -0.0882 -0.0945 -0.0784
  371loPI   C1A 5927   1.761   4.771   9.520  0.0459 -0.0465  0.1771
  371loPI   C2A 5928   1.695   4.947   9.078 -0.1919  0.0778  0.2636
  371loPI   C3A 5929   1.547   5.097   8.677  0.0912 -0.2501  0.1804
  371loPI   C4A 5930   1.290   5.035   8.411  0.0379 -0.0222  0.1227
  371loPI   C5A 5931   0.979   5.157   8.036 -0.0909  0.1209 -0.0278
  371loPI   C6A 5932   0.635   5.365   7.698 -0.0031 -0.2596 -0.0867
  371loPI   C1B 5933   2.186   4.440   9.458  0.2587  0.2555  0.0216
  371loPI   C2B 5934   2.381   4.535   8.999  0.0105  0.4311 -0.1758
  371loPI   C3B 5935   2.601   4.391   8.547  0.0975  0.0830  0.1471
  371loPI   C4B 5936   2.662   4.346   8.118  0.1527 -0.1946 -0.0800
  372loPI    C1 5937   3.778   0.493  10.815  0.2046  0.3080 -0.0675
  372loPI    C2 5938   3.390   0.486  10.911  0.2119 -0.0607 -0.0499
  372loPI    C3 5939   3.662   0.591  11.185  0.1382  0.0387 -0.0143
  372loPI   PO4 5940   3.837   0.596  10.608 -0.1779  0.0579  0.2349
  372loPI   GL1 5941   3.905   0.584  10.202 -0.3047  0.1616 -0.2836
  372loPI   GL2 5942   3.594   0.656   9.933 -0.1120  0.2130  0.3073
  372loPI   C1A 5943   4.267   0.522   9.978  0.0453 -0.0377 -0.0743
  372loPI   C2A 5944   4.628   0.548   9.786  0.0779 -0.2037  0.0421
  372loPI   C3A 5945   4.563   0.681   9.329 -0.1480 -0.0744  0.0870
  372loPI   C4A 5946   4.473   0.686   8.941 -0.2425 -0.0053  0.2915
  372loPI   C5A 5947   4.252   0.609   8.594 -0.2637 -0.0346 -0.2104
  372loPI   C6A 5948   4.086   0.622   8.186  0.1319 -0.1407  0.0807
  372loPI   C1B 5949   3.640   0.741   9.527 -0.0097 -0.0525 -0.0493
  372loPI   C2B 5950   3.653   0.890   9.060  0.0183 -0.0714  0.1179
  372loPI   C3B 5951   3.879   0.922   8.617  0.1730 -0.2028  0.3957
  372loPI   C4B 5952   3.664   0.899   8.167 -0.2202  0.0380 -0.0890
  373loPI    C1 5953  10.620  10.926  10.970  0.1015  0.0829  0.0554
  373loPI    C2 5954  10.566  11.111  11.321 -0.2067  0.1762 -0.0378
  373loPI    C3 5955  10.813  10.798  11.296 -0.1997  0.1539  0.2673
  373loPI   PO4 5956  10.593  11.098  10.817  0.0149  0.3553 -0.0246
  373loPI   GL1 5957  10.723  11.136  10.371  0.3560  0.0799 -0.1331
  373loPI   GL2 5958  10.989  11.106  10.381  0.0349 -0.3161  0.1004
  373loPI   C1A 5959  10.557  10.933   9.958 -0.1830 -0.4852 -0.2251
  373loPI   C2A 5960  10.613  10.922   9.569  0.3791  0.2562  0.1259
  373loPI   C3A 5961  10.863  10.997   9.197  0.2354  0.0411  0.0130
  373loPI   C4A 5962  10.931  10.955   8.768  0.1346 -0.2039 -0.1391
  373loPI   C5A 5963  10.673  10.958   8.369 -0.0952 -0.1092  0.3212
  373loPI   C6A 5964  10.729  11.069   7.923 -0.0152  0.1463  0.0879
  373loPI   C1B 5965  10.967  11.566  10.178  0.1054 -0.0905 -0.1829
  373loPI   C2B 5966  11.167  11.659   9.798 -0.1220 -0.1803 -0.0502
  373loPI   C3B 5967  11.344  11.569   9.475 -0.0013 -0.1611  0.0457
  373loPI   C4B 5968  11.413  11.654   9.093 -0.1293  0.2397 -0.2354
  374loPI    C1 5969   7.831  10.966  10.519 -0.0424 -0.3169 -0.0690
  374loPI    C2 5970   7.631  11.231  10.741  0.0788 -0.0792 -0.2392
  374loPI    C3 5971   8.011  11.144  10.829  0.0614 -0.1437 -0.2269
  374loPI   PO4 5972   7.645  10.976  10.317  0.0987 -0.1697  0.2065
  374loPI   GL1 5973   7.296  11.066  10.019 -0.0007 -0.1548 -0.0158
  374loPI   GL2 5974   7.527  10.907   9.822  0.0378  0.0163  0.0596
  374loPI   C1A 5975   7.238  11.245   9.561 -0.2381 -0.3566  0.1114
  374loPI   C2A 5976   7.404  11.243   9.224 -0.1394  0.2635  0.0324
  374loPI   C3A 5977   7.611  11.025   8.884  0.0510  0.3969  0.0025
  374loPI   C4A 5978   7.592  10.786   8.563 -0.3537  0.0872  0.2249
  374loPI   C5A 5979   7.629  10.598   8.133 -0.1054 -0.1009 -0.0987
  374loPI   C6A 5980   7.312  10.339   7.985 -0.3134 -0.1209  0.0440
  374loPI   C1B 5981   7.619  10.832   9.366 -0.0624  0.2057  0.2599
  374loPI   C2B 5982   7.956  10.736   9.037  0.2103 -0.0138  0.2244
  374loPI   C3B 5983   8.064  10.590   8.635 -0.3164  0.2128  0.2149
  374loPI   C4B 5984   8.131  10.529   8.120 -0.0119 -0.0410  0.4130
  375loPI    C1 5985  11.954   0.451  10.156 -0.0573 -0.1193  0.1789
  375loPI    C2 5986  11.939   0.847  10.213  0.2259 -0.0891  0.0612
  375loPI    C3 5987  11.836   0.598  10.509  0.0626  0.0714  0.1413
  375loPI   PO4 5988  11.901   0.425   9.914 -0.2024  0.3272  0.2884
  375loPI   GL1 5989  11.805   0.300   9.485  0.1341 -0.4086 -0.0577
  375loPI   GL2 5990  11.544   0.489   9.606 -0.0106  0.0913 -0.2994
  375loPI   C1A 5991  11.743   0.654   9.183 -0.0974  0.1384 -0.0232
  375loPI   C2A 5992  11.689   0.758   8.779 -0.2053 -0.0894  0.3084
  375loPI   C3A 5993  11.800   0.592   8.427  0.0988  0.0999 -0.2295
  375loPI   C4A 5994  12.008   0.480   8.036 -0.0780 -0.3230 -0.3343
  375loPI   C5A 5995  12.092   0.108   7.803 -0.0190 -0.1693 -0.0459
  375loPI   C6A 5996  11.890  -0.266   7.544 -0.4110  0.3720  0.0933
  375loPI   C1B 5997  11.198   0.586   9.369  0.2720  0.0512 -0.1777
  375loPI   C2B 5998  11.211   0.742   9.038 -0.0749 -0.1977  0.1849
  375loPI   C3B 5999  11.067   0.657   8.626 -0.1000 -0.0192 -0.1579
  375loPI   C4B 6000  11.287   0.763   8.187 -0.1054 -0.3153  0.0496
  376loPI    C1 6001  14.015   1.450  10.335 -0.1063  0.3536 -0.1124
  376loPI    C2 6002  13.939   1.166  10.606 -0.0357 -0.0102 -0.4632
  376loPI    C3 6003  14.120   1.505  10.717  0.4457 -0.3598 -0.1394
  376loPI   PO4 6004  13.995   1.266  10.108  0.1436  0.1008  0.0944
  376loPI   GL1 6005  13.784   1.247   9.803  0.0042  0.2078  0.1589
  376loPI   GL2 6006  13.451   1.132   9.844 -0.2149 -0.3106  0.2067
  376loPI   C1A 6007  13.744   1.234   9.299 -0.2583  0.0506  0.0199
  376loPI   C2A 6008  13.907   1.360   8.889 -0.2001 -0.2608 -0.0213
  376loPI   C3A 6009  13.896   1.469   8.485 -0.0086  0.0580  0.0458
  376loPI   C4A 6010  13.897   1.602   8.003 -0.1149  0.3961  0.0832
  376loPI   C5A 6011  13.765   1.858   7.761 -0.0034 -0.0154  0.0974
  376loPI   C6A 6012  13.868   2.028   7.331 -0.1091  0.0274 -0.0499
  376loPI   C1B 6013  13.264   1.160   9.425  0.3502 -0.5017  0.2107
  376loPI   C2B 6014  13.174   1.146   8.973  0.0581  0.0065  0.0935
  376loPI   C3B 6015  13.068   1.080   8.602  0.0802 -0.1666  0.1208
  376loPI   C4B 6016  13.368   0.957   8.246 -0.0622 -0.3511 -0.0978
  377loPI    C1 6017  16.696  14.753  10.399 -0.1246  0.0177  0.1790
  377loPI    C2 6018  16.494  14.930  10.695  0.0249  0.0756  0.2470
  377loPI    C3 6019  16.582  14.541  10.718 -0.1632  0.0279  0.1722
  377loPI   PO4 6020  16.659  14.970  10.230 -0.1388 -0.1651 -0.2152
  377loPI   GL1 6021  16.458  15.061   9.888 -0.1040 -0.0145  0.1882
  377loPI   GL2 6022  16.359  14.780   9.853 -0.1829 -0.0141 -0.0466
  377loPI   C1A 6023  16.557  15.195   9.495 -0.6252  0.1711  0.0952
  377loPI   C2A 6024  16.634  15.127   9.137 -0.1714 -0.0405  0.1773
  377loPI   C3A 6025  16.593  15.056   8.720  0.0203  0.0389  0.2393
  377loPI   C4A 6026  16.692  15.075   8.270  0.0126  0.0117  0.1094
  377loPI   C5A 6027  16.408  15.288   7.971 -0.2734  0.3559  0.0854
  377loPI   C6A 6028  16.188  15.697   7.996  0.0015 -0.0362 -0.0527
  377loPI   C1B 6029  16.254  14.769   9.459 -0.1910  0.3237  0.0256
  377loPI   C2B 6030  16.386  14.628   9.021 -0.0661  0.2234  0.1660
  377loPI   C3B 6031  16.319  14.602   8.605 -0.0818  0.0060  0.1140
  377loPI   C4B 6032  16.356  14.680   8.180  0.0838  0.0188 -0.2179
  378loPI    C1 6033   2.782  12.992  10.607 -0.0439  0.2857 -0.2664
  378loPI    C2 6034   2.938  13.279  10.838  0.1057  0.0770 -0.1043
  378loPI    C3 6035   2.541  13.255  10.787  0.0866  0.2528 -0.0414
  378loPI   PO4 6036   2.931  12.954  10.441  0.0950 -0.3358  0.0990
  378loPI   GL1 6037   2.797  13.189  10.017 -0.0205  0.0581  0.3019
  378loPI   GL2 6038   3.001  12.852   9.844  0.0430 -0.0073 -0.1705
  378loPI   C1A 6039   2.792  13.211   9.566  0.1626  0.2401  0.0859
  378loPI   C2A 6040   2.754  13.209   9.137 -0.1487  0.3392 -0.0651
  378loPI   C3A 6041   2.856  13.292   8.759  0.0422 -0.2703 -0.0201
  378loPI   C4A 6042   2.808  13.419   8.353 -0.1031  0.2290  0.2800
  378loPI   C5A 6043   2.462  13.374   8.015  0.0393  0.0347 -0.3453
  378loPI   C6A 6044   2.207  13.537   7.816 -0.0432 -0.1246  0.0605
  378loPI   C1B 6045   3.222  12.951   9.484 -0.0730 -0.1965 -0.0396
  378loPI   C2B 6046   3.204  12.940   9.141 -0.1226 -0.0991  0.0272
  378loPI   C3B 6047   3.311  13.009   8.720 -0.1838 -0.1998  0.2458
  378loPI   C4B 6048   3.235  13.024   8.251  0.4139 -0.1481 -0.3983
  379loPI    C1 6049  11.799   9.934  10.688  0.2860 -0.0778  0.0321
  379loPI    C2 6050  11.830  10.136  11.031 -0.2252 -0.0710  0.0822
  379loPI    C3 6051  11.673   9.768  11.029 -0.0548 -0.1449 -0.1222
  379loPI   PO4 6052  11.726  10.147  10.516 -0.0102 -0.1820  0.0037
  379loPI   GL1 6053  11.438  10.174  10.159  0.4529 -0.2453  0.0653
  379loPI   GL2 6054  11.114  10.191  10.081 -0.2703  0.1055  0.3039
  379loPI   C1A 6055  11.491  10.087   9.631  0.2296 -0.2484  0.2488
  379loPI   C2A 6056  11.503  10.192   9.232  0.4244 -0.1175  0.0994
  379loPI   C3A 6057  11.487  10.234   8.803  0.0656  0.3299  0.1701
  379loPI   C4A 6058  11.270  10.277   8.378 -0.1224 -0.3043  0.3216
  379loPI   C5A 6059  10.918  10.161   8.083 -0.0914 -0.1002  0.0111
  379loPI   C6A 6060  10.912   9.825   7.762 -0.0046 -0.1539  0.0335
  379loPI   C1B 6061  10.865  10.042   9.704 -0.2230  0.0201 -0.4270
  379loPI   C2B 6062  10.998  10.094   9.290  0.0915 -0.0479 -0.0339
  379loPI   C3B 6063  10.896  10.206   8.876  0.0055  0.4406  0.0411
  379loPI   C4B 6064  10.884  10.516   8.623  0.1462 -0.2050  0.1350
  380loPI    C1 6065   7.438   2.883  10.717 -0.0715  0.0858 -0.0198
  380loPI    C2 6066   7.388   2.611  11.006  0.1068 -0.0002 -0.0684
  380loPI    C3 6067   7.154   2.935  10.993 -0.0381 -0.0988  0.0508
  380loPI   PO4 6068   7.506   2.724  10.515 -0.1021  0.3107  0.0079
  380loPI   GL1 6069   7.515   2.636  10.156  0.3633  0.1871 -0.4295
  380loPI   GL2 6070   7.309   2.892   9.969 -0.2406 -0.0478 -0.0585
  380loPI   C1A 6071   7.475   2.388   9.706 -0.1946  0.0641  0.0760
  380loPI   C2A 6072   7.503   2.066   9.395  0.2631  0.2109 -0.0649
  380loPI   C3A 6073   7.557   2.070   8.941 -0.3920 -0.0152  0.2269
  380loPI   C4A 6074   7.543   2.037   8.508  0.1479  0.2710 -0.0961
  380loPI   C5A 6075   7.172   2.011   8.233  0.0837  0.0495 -0.0461
  380loPI   C6A 6076   6.998   2.306   7.873  0.1872  0.2320  0.2958
  380loPI   C1B 6077   7.336   2.871   9.504 -0.1505  0.1653 -0.2266
  380loPI   C2B 6078   7.629   2.960   9.185 -0.2758  0.0256  0.0370
  380loPI   C3B 6079   7.611   3.032   8.656  0.2114 -0.1877  0.0957
  380loPI   C4B 6080   7.274   3.007   8.350  0.0464  0.0158  0.2573
  381loPI    C1 6081   7.145  11.404  10.666  0.0677  0.0774  0.2085
  381loPI    C2 6082   6.865  11.372  10.949 -0.0608 -0.1734  0.0564
  381loPI    C3 6083   7.241  11.258  11.025  0.0102  0.1884  0.2695
  381loPI   PO4 6084   7.014  11.287  10.421 -0.1801  0.1240 -0.2195
  381loPI   GL1 6085   6.817  11.006  10.254 -0.2882  0.2968 -0.1215
  381loPI   GL2 6086   6.515  10.912  10.248  0.1677 -0.0342 -0.2202
  381loPI   C1A 6087   6.819  11.072   9.832 -0.1055  0.2417  0.2170
  381loPI   C2A 6088   6.906  10.968   9.389 -0.2273 -0.1342  0.1813
  381loPI   C3A 6089   7.034  11.081   8.985  0.0507  0.1090 -0.1510
  381loPI   C4A 6090   7.163  11.119   8.626 -0.0514 -0.0069 -0.2283
  381loPI   C5A 6091   7.054  11.098   8.183  0.1735 -0.0799  0.2913
  381loPI   C6A 6092   6.649  11.056   8.132  0.3925  0.1137  0.0409
  381loPI   C1B 6093   6.527  10.562   9.849  0.0517  0.2138 -0.0747
  381loPI   C2B 6094   6.679  10.520   9.462 -0.1355  0.0604  0.0819
  381loPI   C3B 6095   6.720  10.445   9.024  0.0758  0.2964 -0.0943
  381loPI   C4B 6096   6.713  10.248   8.630  0.1701 -0.0216  0.1538
  382loPI    C1 6097   8.885   3.302  10.473 -0.0101  0.2853  0.1528
  382loPI    C2 6098   8.772   3.306  10.856  0.1382  0.2609  0.1976
  382loPI    C3 6099   9.116   3.131  10.751 -0.0001  0.0869  0.0248
  382loPI   PO4 6100   8.747   3.214  10.290 -0.1135  0.1307  0.0180
  382loPI   GL1 6101   8.710   3.091   9.956 -0.2553  0.1276 -0.0929
  382loPI   GL2 6102   9.059   3.256   9.878 -0.1000 -0.0809  0.0931
  382loPI   C1A 6103   8.577   2.916   9.560 -0.0298 -0.0739  0.1290
  382loPI   C2A 6104   8.572   2.826   9.170 -0.1528  0.0794 -0.4804
  382loPI   C3A 6105   8.613   2.818   8.725 -0.2105  0.1030 -0.0823
  382loPI   C4A 6106   8.729   2.746   8.309 -0.1271 -0.0345  0.1242
  382loPI   C5A 6107   8.684   2.518   8.012  0.5128 -0.0607 -0.1592
  382loPI   C6A 6108   8.412   2.276   7.812 -0.0845  0.1630  0.0807
  382loPI   C1B 6109   8.991   3.156   9.442 -0.0217  0.3528 -0.1421
  382loPI   C2B 6110   8.954   3.251   9.050 -0.2309 -0.1491  0.0542
  382loPI   C3B 6111   8.939   3.231   8.628 -0.0672  0.0170  0.1932
  382loPI   C4B 6112   9.045   3.085   8.373 -0.0797  0.1023 -0.0291
  383loPI    C1 6113  13.956  11.671  10.406 -0.2273  0.1095  0.1752
  383loPI    C2 6114  14.216  11.956  10.300 -0.2504  0.0377 -0.0819
  383loPI    C3 6115  14.298  11.714  10.608  0.1353 -0.1853 -0.3512
  383loPI   PO4 6116  13.747  11.717  10.367  0.0136 -0.3556  0.0432
  383loPI   GL1 6117  13.470  11.675  10.010 -0.1530 -0.1129 -0.1705
  383loPI   GL2 6118  13.325  11.955  10.043 -0.2354 -0.0826 -0.0912
  383loPI   C1A 6119  13.606  11.701   9.626  0.0548  0.3600 -0.0399
  383loPI   C2A 6120  13.609  11.777   9.248  0.1932 -0.1761  0.0604
  383loPI   C3A 6121  13.528  11.849   8.906 -0.0329 -0.1179  0.2303
  383loPI   C4A 6122  13.486  11.947   8.462 -0.1335  0.5438  0.0365
  383loPI   C5A 6123  13.526  11.946   7.964  0.5023 -0.1697 -0.0972
  383loPI   C6A 6124  13.529  11.766   7.486 -0.1134 -0.1161 -0.1093
  383loPI   C1B 6125  13.306  12.071   9.540  0.2896 -0.0637 -0.0035
  383loPI   C2B 6126  13.271  12.213   9.173  0.1240 -0.3541  0.0219
  383loPI   C3B 6127  13.252  12.287   8.751 -0.2050  0.0033 -0.0197
  383loPI   C4B 6128  13.139  12.288   8.340  0.0853 -0.1674  0.1226
  384loPI    C1 6129  17.567   5.171  10.297  0.0894 -0.0407  0.1381
  384loPI    C2 6130  17.863   4.945  10.443  0.0167 -0.0677  0.2447
  384loPI    C3 6131  17.513   4.966  10.636 -0.0552 -0.0449  0.1131
  384loPI   PO4 6132  17.509   5.120  10.096 -0.2253 -0.1345  0.0689
  384loPI   GL1 6133  17.587   5.200   9.603 -0.3642 -0.1435 -0.1493
  384loPI   GL2 6134  17.431   5.347   9.431 -0.0736 -0.1076 -0.1192
  384loPI   C1A 6135  17.465   4.949   9.155 -0.1180  0.1850  0.3658
  384loPI   C2A 6136  17.415   4.984   8.663 -0.0925  0.2026  0.0775
  384loPI   C3A 6137  17.510   5.225   8.227 -0.0296  0.2157 -0.3263
  384loPI   C4A 6138  17.820   5.392   7.903 -0.0204 -0.0720  0.3031
  384loPI   C5A 6139  17.797   5.623   7.560  0.1327  0.0626  0.1080
  384loPI   C6A 6140  17.694   5.639   7.208 -0.0348 -0.2373  0.1905
  384loPI   C1B 6141  17.295   5.384   9.002  0.0047  0.1376  0.0140
  384loPI   C2B 6142  17.287   5.486   8.592 -0.0780 -0.1609 -0.0887
  384loPI   C3B 6143  17.234   5.661   8.304 -0.1741  0.2171  0.4464
  384loPI   C4B 6144  17.223   5.528   7.922 -0.1888 -0.0759  0.0886
  385loPI    C1 6145   0.091   1.815  10.386 -0.0373 -0.0820 -0.0460
  385loPI    C2 6146  -0.221   2.004  10.223  0.0496  0.0305 -0.0836
  385loPI    C3 6147  -0.016   2.177  10.520 -0.0714 -0.1478  0.1060
  385loPI   PO4 6148   0.090   1.549  10.220  0.0860 -0.0296 -0.1145
  385loPI   GL1 6149  -0.050   1.633   9.807  0.1256 -0.0336  0.2806
  385loPI   GL2 6150   0.031   1.351   9.725  0.1634 -0.2362  0.1160
  385loPI   C1A 6151  -0.131   1.705   9.397  0.2019 -0.0001  0.0068
  385loPI   C2A 6152  -0.366   1.735   9.002  0.2032  0.0334 -0.1408
  385loPI   C3A 6153  -0.494   1.906   8.674 -0.1671  0.0240 -0.0125
  385loPI   C4A 6154  -0.356   2.077   8.351  0.0375 -0.4449  0.1411
  385loPI   C5A 6155  -0.175   2.202   7.951  0.1403 -0.0714 -0.1267
  385loPI   C6A 6156  -0.337   1.993   7.608  0.1110  0.3521 -0.0438
  385loPI   C1B 6157   0.140   1.107   9.438 -0.2558 -0.3088  0.0803
  385loPI   C2B 6158  -0.025   0.826   9.217  0.2756  0.1025  0.0547
  385loPI   C3B 6159  -0.455   0.777   9.163  0.1670 -0.1197  0.3195
  385loPI   C4B 6160  -0.872   0.792   8.890 -0.3050  0.4447 -0.1108
  386loPI    C1 6161   5.271  10.550  10.604 -0.1235 -0.0135  0.1258
  386loPI    C2 6162   5.624  10.582  10.790 -0.0695  0.2080 -0.0111
  386loPI    C3 6163   5.333  10.359  10.950  0.1390  0.0059  0.0914
  386loPI   PO4 6164   5.245  10.448  10.293  0.0449  0.0040 -0.2457
  386loPI   GL1 6165   5.010  10.660   9.872 -0.0741 -0.0947  0.0724
  386loPI   GL2 6166   5.273  10.832   9.754  0.0615  0.1766 -0.3808
  386loPI   C1A 6167   4.817  10.660   9.447 -0.3546  0.1230  0.1728
  386loPI   C2A 6168   4.869  10.839   9.027  0.1226  0.1034 -0.2556
  386loPI   C3A 6169   4.954  10.685   8.675 -0.0806 -0.0367 -0.0134
  386loPI   C4A 6170   5.017  10.774   8.310  0.0117  0.1385 -0.1019
  386loPI   C5A 6171   4.896  10.635   8.001  0.0331 -0.0031  0.1585
  386loPI   C6A 6172   4.715  10.414   7.607 -0.2499  0.3086  0.3260
  386loPI   C1B 6173   5.397  10.897   9.348 -0.2567 -0.2332  0.4027
  386loPI   C2B 6174   5.294  11.038   8.905  0.1089 -0.0570 -0.5214
  386loPI   C3B 6175   5.060  11.281   8.655  0.0662 -0.0244  0.2021
  386loPI   C4B 6176   5.046  11.503   8.425 -0.0520 -0.2688 -0.0902
  387loPI    C1 6177  11.593   6.249  10.528 -0.1222  0.2669 -0.1681
  387loPI    C2 6178  11.750   6.326  10.887  0.0365 -0.1312 -0.1471
  387loPI    C3 6179  11.379   6.180  10.859 -0.0740  0.1464 -0.1614
  387loPI   PO4 6180  11.610   6.495  10.359 -0.1553 -0.1732 -0.0908
  387loPI   GL1 6181  11.537   6.653   9.900 -0.3269 -0.0361  0.0548
  387loPI   GL2 6182  11.519   6.382   9.740  0.0619  0.0789 -0.1155
  387loPI   C1A 6183  11.656   6.872   9.502 -0.1110  0.1724  0.0352
  387loPI   C2A 6184  11.696   6.950   8.993 -0.4108  0.1500 -0.1867
  387loPI   C3A 6185  11.569   6.984   8.546  0.1488  0.2212  0.0063
  387loPI   C4A 6186  11.625   6.903   8.118  0.1261  0.1452 -0.0442
  387loPI   C5A 6187  11.305   6.974   7.888 -0.2551 -0.3007  0.0647
  387loPI   C6A 6188  11.356   7.114   7.480 -0.1795 -0.1160 -0.2479
  387loPI   C1B 6189  11.206   6.430   9.477 -0.2592  0.2692  0.3097
  387loPI   C2B 6190  11.095   6.485   8.978 -0.0884 -0.3418  0.1055
  387loPI   C3B 6191  11.146   6.654   8.583  0.2693 -0.1635 -0.0804
  387loPI   C4B 6192  10.975   6.655   8.079  0.0585  0.1447 -0.2219
  388loPI    C1 6193   7.908   4.176  10.294  0.0484 -0.2139 -0.0187
  388loPI    C2 6194   7.706   4.461  10.490  0.3843  0.0856 -0.0980
  388loPI    C3 6195   7.877   4.162  10.693 -0.0730 -0.1343 -0.0248
  388loPI   PO4 6196   7.834   4.114  10.063 -0.3374 -0.1688  0.2525
  388loPI   GL1 6197   7.906   4.372   9.659 -0.0410  0.2297  0.1115
  388loPI   GL2 6198   7.587   4.288   9.567 -0.1110 -0.2331 -0.0072
  388loPI   C1A 6199   8.018   4.284   9.227  0.0054  0.0779 -0.0237
  388loPI   C2A 6200   8.072   4.388   8.836 -0.1069 -0.0709  0.2528
  388loPI   C3A 6201   8.231   4.499   8.400  0.0129 -0.0579 -0.0113
  388loPI   C4A 6202   8.265   4.599   7.926  0.1416 -0.1054  0.0487
  388loPI   C5A 6203   8.224   4.855   7.495 -0.0652  0.3952  0.0063
  388loPI   C6A 6204   8.036   5.375   7.469 -0.2488  0.3563 -0.1766
  388loPI   C1B 6205   7.581   4.528   9.207  0.3956  0.0178 -0.1093
  388loPI   C2B 6206   7.581   4.629   8.736  0.2678 -0.1787  0.3804
  388loPI   C3B 6207   7.714   4.478   8.279 -0.2065  0.0710  0.3879
  388loPI   C4B 6208   7.838   4.310   7.870  0.0853  0.0091 -0.2591
  389loPI    C1 6209  16.085   7.815  10.522  0.1832  0.0612  0.0825
  389loPI    C2 6210  16.143   7.779  10.916  0.0882  0.1681  0.1068
  389loPI    C3 6211  15.896   7.528  10.726  0.3593 -0.0701  0.0628
  389loPI   PO4 6212  16.374   7.910  10.493 -0.2715 -0.0318 -0.1947
  389loPI   GL1 6213  16.430   7.969  10.138 -0.1958 -0.0415 -0.0725
  389loPI   GL2 6214  16.666   7.770   9.995 -0.0693 -0.1085 -0.0181
  389loPI   C1A 6215  16.302   8.028   9.751 -0.1191  0.0655  0.0406
  389loPI   C2A 6216  16.244   8.164   9.300 -0.0682  0.0223 -0.0382
  389loPI   C3A 6217  16.067   7.977   8.995  0.1989 -0.1132 -0.0098
  389loPI   C4A 6218  16.103   7.998   8.541 -0.1557 -0.1742 -0.0582
  389loPI   C5A 6219  16.329   8.106   8.255  0.2793  0.0845  0.1430
  389loPI   C6A 6220  16.331   8.002   7.792 -0.1368 -0.1330 -0.0394
  389loPI   C1B 6221  16.461   7.535   9.736 -0.2485  0.1664  0.0916
  389loPI   C2B 6222  16.384   7.543   9.269  0.3616  0.4998  0.5299
  389loPI   C3B 6223  16.351   7.553   8.885  0.0906  0.0931  0.1160
  389loPI   C4B 6224  16.451   7.535   8.518 -0.1777 -0.3078  0.2769
  390loPI    C1 6225   1.368  17.101  10.251  0.4585  0.1183 -0.2353
  390loPI    C2 6226   1.183  17.434  10.129  0.1255  0.0807  0.1469
  390loPI    C3 6227   1.382  17.431  10.476 -0.2576 -0.2360  0.3732
  390loPI   PO4 6228   1.091  16.854  10.120 -0.0251 -0.1934 -0.0643
  390loPI   GL1 6229   1.077  16.629   9.817  0.1748  0.1022 -0.2221
  390loPI   GL2 6230   1.363  16.346   9.821  0.4583 -0.0355 -0.0719
  390loPI   C1A 6231   0.988  16.390   9.393 -0.0014  0.4692  0.0364
  390loPI   C2A 6232   1.126  16.264   8.985  0.0324 -0.3042 -0.1014
  390loPI   C3A 6233   1.034  16.000   8.660 -0.1756 -0.2364  0.0305
  390loPI   C4A 6234   1.079  15.908   8.220 -0.1743 -0.1781  0.1786
  390loPI   C5A 6235   0.858  15.775   7.894  0.1543 -0.2514  0.0456
  390loPI   C6A 6236   0.764  15.925   7.490  0.0787 -0.0170  0.0215
  390loPI   C1B 6237   1.523  16.253   9.350  0.1443  0.0940 -0.4533
  390loPI   C2B 6238   1.661  16.228   8.913  0.0240 -0.1632  0.1661
  390loPI   C3B 6239   1.374  16.365   8.532 -0.0616  0.2789  0.1327
  390loPI   C4B 6240   1.233  16.385   8.069 -0.1884 -0.0804 -0.2060
  391loPI    C1 6241   1.437   2.658  10.134 -0.1057 -0.0416  0.2155
  391loPI    C2 6242   1.475   2.279  10.011 -0.1690  0.0164  0.0127
  391loPI    C3 6243   1.162   2.498   9.890 -0.0481  0.1834 -0.0016
  391loPI   PO4 6244   1.700   2.744  10.148  0.1826  0.0176  0.1373
  391loPI   GL1 6245   1.926   2.803   9.782 -0.3622  0.1965 -0.2313
  391loPI   GL2 6246   1.809   2.542   9.702  0.0685  0.2131 -0.2000
  391loPI   C1A 6247   1.733   2.822   9.293  0.0231  0.0710  0.0827
  391loPI   C2A 6248   1.468   2.656   9.032 -0.2694 -0.0780 -0.1640
  391loPI   C3A 6249   1.299   2.687   8.662 -0.2306  0.1278  0.3441
  391loPI   C4A 6250   1.179   2.733   8.197  0.0652  0.0089 -0.1007
  391loPI   C5A 6251   1.105   2.746   7.762 -0.0819 -0.0114 -0.0190
  391loPI   C6A 6252   1.061   2.709   7.308  0.0374 -0.1008 -0.1037
  391loPI   C1B 6253   1.424   2.476   9.513  0.0177  0.1331 -0.0626
  391loPI   C2B 6254   0.935   2.422   9.345  0.0247 -0.0165  0.1617
  391loPI   C3B 6255   0.829   2.548   8.984  0.1954 -0.0514  0.4326
  391loPI   C4B 6256   0.761   2.664   8.532 -0.0259 -0.0148  0.2588
  392loPI    C1 6257   1.155   9.956   9.877 -0.0834  0.1595  0.3058
  392loPI    C2 6258   1.178   9.788  10.239  0.0773 -0.0576  0.1974
  392loPI    C3 6259   1.463  10.041  10.118  0.0034  0.0450  0.2365
  392loPI   PO4 6260   0.900  10.007   9.848  0.0092 -0.0725  0.0981
  392loPI   GL1 6261   0.647  10.302   9.438  0.1181 -0.1120 -0.0094
  392loPI   GL2 6262   0.830  10.516   9.456  0.0419  0.2282  0.0268
  392loPI   C1A 6263   0.567  10.147   9.016 -0.2694  0.1190  0.0721
  392loPI   C2A 6264   0.536  10.401   8.588 -0.0844 -0.2029  0.1390
  392loPI   C3A 6265   0.569  10.661   8.291  0.0159 -0.1575 -0.0367
  392loPI   C4A 6266   0.593  10.872   7.887  0.0319 -0.0086  0.0709
  392loPI   C5A 6267   0.749  10.813   7.532 -0.2662  0.1282 -0.0192
  392loPI   C6A 6268   0.718  10.959   7.171 -0.0476 -0.2857  0.0092
  392loPI   C1B 6269   0.910  10.557   9.036 -0.1669  0.1155  0.1993
  392loPI   C2B 6270   1.022  10.276   8.638  0.1989 -0.1865  0.0720
  392loPI   C3B 6271   1.064  10.118   8.241 -0.2045  0.1945  0.2141
  392loPI   C4B 6272   1.116   9.910   7.838 -0.0539 -0.0853 -0.3711
  393loPI    C1 6273   3.984  12.561  10.431 -0.0410  0.0671  0.1016
  393loPI    C2 6274   3.725  12.329  10.628  0.0055 -0.0849 -0.0148
  393loPI    C3 6275   3.998  12.164  10.387  0.0545  0.0896 -0.0801
  393loPI   PO4 6276   3.883  12.723  10.273 -0.0471 -0.1318  0.1503
  393loPI   GL1 6277   3.599  12.857   9.929  0.3455 -0.0407  0.0161
  393loPI   GL2 6278   3.446  12.642   9.777  0.0336  0.2760  0.0228
  393loPI   C1A 6279   3.793  12.755   9.416 -0.1554 -0.1011 -0.0108
  393loPI   C2A 6280   3.680  12.631   9.025 -0.1732 -0.3148 -0.1064
  393loPI   C3A 6281   3.654  12.690   8.556  0.1556  0.0026  0.0469
  393loPI   C4A 6282   3.607  12.625   8.189 -0.0203 -0.3616 -0.1682
  393loPI   C5A 6283   3.656  12.702   7.739 -0.6482  0.0440  0.3684
  393loPI   C6A 6284   3.553  12.567   7.315  0.0824  0.0390 -0.0209
  393loPI   C1B 6285   3.259  12.463   9.318  0.4467 -0.1209 -0.3389
  393loPI   C2B 6286   3.239  12.406   8.920 -0.1639  0.4846 -0.0601
  393loPI   C3B 6287   3.176  12.475   8.489  0.2144 -0.0527  0.0795
  393loPI   C4B 6288   3.058  12.606   8.073 -0.1226  0.2712 -0.1180
  394loPI    C1 6289   1.160  10.944  10.278  0.3281  0.1096 -0.1809
  394loPI    C2 6290   0.834  11.166  10.214  0.1989 -0.0161  0.0286
  394loPI    C3 6291   1.151  11.326  10.397  0.2606  0.1091 -0.1839
  394loPI   PO4 6292   1.313  10.932  10.077 -0.1915 -0.2112 -0.3198
  394loPI   GL1 6293   1.530  11.009   9.741 -0.0679  0.0035  0.1271
  394loPI   GL2 6294   1.361  10.825   9.578  0.0274 -0.0157  0.0352
  394loPI   C1A 6295   1.573  11.201   9.394  0.0463 -0.0080  0.0421
  394loPI   C2A 6296   1.684  11.293   8.983  0.2005 -0.2886 -0.0151
  394loPI   C3A 6297   1.759  11.254   8.590  0.1043  0.2258  0.0115
  394loPI   C4A 6298   1.917  11.242   8.184  0.1049  0.0837  0.0632
  394loPI   C5A 6299   2.115  11.426   7.818  0.0040 -0.0019  0.0942
  394loPI   C6A 6300   1.899  11.381   7.513  0.1786 -0.1322 -0.1079
  394loPI   C1B 6301   1.339  10.784   9.139  0.1875  0.2850  0.1903
  394loPI   C2B 6302   1.381  10.847   8.693  0.0709 -0.1647  0.0497
  394loPI   C3B 6303   1.484  10.956   8.257 -0.2048  0.1441  0.4060
  394loPI   C4B 6304   1.589  10.698   7.893 -0.0732  0.1870  0.0056
  395loPI    C1 6305   0.262  10.398   9.690  0.2181  0.3726 -0.0945
  395loPI    C2 6306   0.135  10.413  10.069  0.0613 -0.0541 -0.1241
  395loPI    C3 6307   0.479  10.230   9.981 -0.0616 -0.2404 -0.2233
  395loPI   PO4 6308   0.046  10.401   9.592  0.2631 -0.1405 -0.0390
  395loPI   GL1 6309  -0.205  10.561   9.364  0.0308 -0.0603  0.3412
  395loPI   GL2 6310  -0.344  10.268   9.250 -0.2151 -0.0590 -0.2011
  395loPI   C1A 6311  -0.142  10.589   8.969  0.0487  0.0281  0.5109
  395loPI   C2A 6312   0.071  10.331   8.670  0.3908 -0.2063  0.1693
  395loPI   C3A 6313   0.137  10.100   8.315  0.1109 -0.0731 -0.0362
  395loPI   C4A 6314   0.231   9.983   7.880  0.1607 -0.0412  0.0214
  395loPI   C5A 6315   0.275  10.098   7.559 -0.1209 -0.0261  0.2625
  395loPI   C6A 6316  -0.015  10.114   7.122  0.0574 -0.0300 -0.0141
  395loPI   C1B 6317  -0.511  10.327   8.835 -0.1124 -0.3582 -0.1286
  395loPI   C2B 6318  -0.372  10.285   8.383  0.2974  0.0054 -0.0925
  395loPI   C3B 6319  -0.282  10.192   7.963  0.2409 -0.0176  0.0397
  395loPI   C4B 6320  -0.178  10.339   7.596 -0.2986 -0.1787 -0.1498
  396loPI    C1 6321  11.723   1.345  10.263 -0.1759 -0.1365  0.1119
  396loPI    C2 6322  11.959   1.468  10.562 -0.0404  0.0005 -0.0495
  396loPI    C3 6323  11.719   1.152  10.613  0.0148 -0.0044  0.1883
  396loPI   PO4 6324  11.859   1.349  10.066 -0.2890  0.1533  0.0330
  396loPI   GL1 6325  11.953   1.556   9.651 -0.0443  0.2852  0.1229
  396loPI   GL2 6326  11.655   1.548   9.654 -0.0124  0.0548  0.1852
  396loPI   C1A 6327  11.768   1.566   9.177  0.0647  0.0941 -0.0853
  396loPI   C2A 6328  11.689   1.547   8.774  0.3622  0.0876 -0.1647
  396loPI   C3A 6329  11.841   1.558   8.383  0.3055 -0.0982 -0.0833
  396loPI   C4A 6330  12.061   1.487   7.954  0.1582  0.0959  0.0722
  396loPI   C5A 6331  12.266   1.456   7.466 -0.3525  0.2353 -0.1659
  396loPI   C6A 6332  12.456   1.797   7.330  0.1732  0.1139  0.3308
  396loPI   C1B 6333  11.265   1.457   9.395 -0.3055  0.1953 -0.3077
  396loPI   C2B 6334  11.227   1.484   8.972  0.2909 -0.4865 -0.0861
  396loPI   C3B 6335  11.187   1.604   8.468  0.0173 -0.1612 -0.4084
  396loPI   C4B 6336  11.068   1.407   8.045 -0.1539  0.0295 -0.0082
  397loPI    C1 6337  11.775  16.149  10.584 -0.0082  0.1278  0.0467
  397loPI    C2 6338  11.453  16.154  10.821  0.0515  0.0294  0.1307
  397loPI    C3 6339  11.819  16.135  10.981  0.0800 -0.4468  0.0243
  397loPI   PO4 6340  11.780  16.031  10.375  0.0177  0.1092 -0.0002
  397loPI   GL1 6341  11.947  15.925  10.031  0.1369  0.0962  0.0657
  397loPI   GL2 6342  12.059  16.161   9.791 -0.1654  0.1717 -0.1247
  397loPI   C1A 6343  11.885  15.657   9.622  0.0587 -0.1701  0.1823
  397loPI   C2A 6344  11.981  15.304   9.361 -0.0737 -0.0230 -0.1669
  397loPI   C3A 6345  11.740  15.259   8.948 -0.0237 -0.1361  0.1874
  397loPI   C4A 6346  11.650  15.263   8.499 -0.1985  0.0614  0.0526
  397loPI   C5A 6347  11.777  15.192   8.068 -0.0574  0.0619  0.5391
  397loPI   C6A 6348  11.916  15.107   7.644 -0.2423 -0.0261  0.1577
  397loPI   C1B 6349  11.908  16.165   9.356 -0.2888 -0.1484 -0.1414
  397loPI   C2B 6350  11.953  16.189   8.945  0.1579  0.0421 -0.0205
  397loPI   C3B 6351  12.033  15.998   8.567 -0.0277  0.1816 -0.0513
  397loPI   C4B 6352  11.973  15.745   8.247  0.1823 -0.2271 -0.0544
  398loPI    C1 6353  13.133  10.245  10.710 -0.1281 -0.1036 -0.1192
  398loPI    C2 6354  13.525  10.233  10.792 -0.0724 -0.0515 -0.3709
  398loPI    C3 6355  13.305   9.899  10.814 -0.0686 -0.0313  0.0251
  398loPI   PO4 6356  13.015  10.385  10.557 -0.2599  0.0820  0.3498
  398loPI   GL1 6357  13.012  10.310  10.130 -0.0088 -0.3613 -0.1884
  398loPI   GL2 6358  12.954   9.993  10.017  0.1891  0.2472  0.0731
  398loPI   C1A 6359  13.315  10.408   9.763 -0.2041 -0.2567 -0.0377
  398loPI   C2A 6360  13.396  10.311   9.324  0.0491  0.0339 -0.0564
  398loPI   C3A 6361  13.337  10.527   8.872  0.0153 -0.1187 -0.3234
  398loPI   C4A 6362  13.301  10.497   8.391  0.2875  0.1028  0.0679
  398loPI   C5A 6363  13.007  10.436   8.028  0.0794  0.0918  0.2308
  398loPI   C6A 6364  13.035  10.125   7.834  0.0515  0.0314  0.1015
  398loPI   C1B 6365  13.015   9.933   9.628 -0.0668  0.1974  0.1282
  398loPI   C2B 6366  13.097   9.892   9.224 -0.1977 -0.2548 -0.3006
  398loPI   C3B 6367  13.175  10.057   8.936 -0.0515  0.1438 -0.1495
  398loPI   C4B 6368  12.946  10.065   8.558  0.0208 -0.1372  0.0023
  399loPI    C1 6369  10.657   9.011  10.601  0.1067 -0.0583  0.1446
  399loPI    C2 6370  10.664   9.357  10.803 -0.0493 -0.0986  0.2200
  399loPI    C3 6371  10.972   9.104  10.830  0.1151  0.0842  0.0766
  399loPI   PO4 6372  10.564   9.068  10.324  0.0198  0.0980 -0.0669
  399loPI   GL1 6373  10.295   9.008  10.042 -0.0156  0.1830  0.1286
  399loPI   GL2 6374  10.219   9.255   9.869 -0.1082  0.0107 -0.0661
  399loPI   C1A 6375  10.319   8.766   9.688  0.2104  0.1317 -0.3375
  399loPI   C2A 6376  10.392   8.774   9.296  0.1721 -0.1800  0.1566
  399loPI   C3A 6377  10.367   8.890   8.843  0.1900  0.2249  0.3139
  399loPI   C4A 6378  10.532   8.787   8.409  0.0339  0.0497  0.0968
  399loPI   C5A 6379  10.304   8.739   8.084 -0.1064 -0.0147 -0.2854
  399loPI   C6A 6380  10.307   9.065   7.850 -0.2171 -0.1692  0.0884
  399loPI   C1B 6381  10.347   9.352   9.430 -0.1382 -0.3197  0.2285
  399loPI   C2B 6382  10.415   9.410   8.933  0.3600  0.1639 -0.1927
  399loPI   C3B 6383  10.321   9.461   8.502  0.1021 -0.0127  0.0676
  399loPI   C4B 6384  10.472   9.245   8.281 -0.2005  0.1742  0.2436
  400loPI    C1 6385   0.388   3.570  10.183  0.0181 -0.1118  0.0385
  400loPI    C2 6386   0.086   3.337  10.302 -0.1092  0.1458  0.2297
  400loPI    C3 6387   0.010   3.696  10.143  0.0873  0.0825 -0.0132
  400loPI   PO4 6388   0.535   3.434  10.005  0.3486 -0.3803 -0.1577
  400loPI   GL1 6389   0.585   3.392   9.569  0.3630 -0.1748 -0.0716
  400loPI   GL2 6390   0.878   3.254   9.648 -0.0970  0.0944 -0.0221
  400loPI   C1A 6391   0.231   3.449   9.298  0.1611  0.2625 -0.0659
  400loPI   C2A 6392   0.081   3.395   8.922  0.3717 -0.1975 -0.1115
  400loPI   C3A 6393   0.300   3.576   8.604  0.3197  0.1817 -0.2352
  400loPI   C4A 6394   0.120   3.852   8.403  0.1516 -0.2173 -0.0465
  400loPI   C5A 6395  -0.018   4.219   8.128  0.1091 -0.2532  0.0378
  400loPI   C6A 6396  -0.397   4.430   7.871 -0.3231  0.4162  0.0069
  400loPI   C1B 6397   0.955   3.418   9.237 -0.0543  0.4717 -0.1612
  400loPI   C2B 6398   1.074   3.463   8.852  0.0146  0.0722 -0.3697
  400loPI   C3B 6399   1.313   3.738   8.409 -0.0347 -0.3350 -0.1968
  400loPI   C4B 6400   1.290   3.602   7.914  0.0385  0.3569  0.3720
  401loPI    C1 6401  12.833   5.366  10.212 -0.1671  0.2176  0.1789
  401loPI    C2 6402  12.601   5.219  10.503 -0.3514 -0.0867 -0.1134
  401loPI    C3 6403  12.985   5.306  10.577 -0.3515 -0.3168  0.1770
  401loPI   PO4 6404  12.647   5.561  10.114  0.0430 -0.0951  0.1704
  401loPI   GL1 6405  12.487   5.512   9.742 -0.0276 -0.2396  0.0888
  401loPI   GL2 6406  12.458   5.300   9.536 -0.1138  0.2301  0.0822
  401loPI   C1A 6407  12.318   5.860   9.425  0.2931 -0.1312 -0.0216
  401loPI   C2A 6408  12.485   6.228   9.296  0.1584 -0.0903 -0.0824
  401loPI   C3A 6409  12.509   6.431   8.926 -0.1108  0.3291 -0.0900
  401loPI   C4A 6410  12.443   6.577   8.506 -0.2593  0.0225  0.0431
  401loPI   C5A 6411  12.190   6.472   8.187 -0.0736  0.1005  0.2218
  401loPI   C6A 6412  12.267   6.519   7.753  0.0872 -0.0708 -0.0382
  401loPI   C1B 6413  12.530   5.341   9.079  0.0295  0.0335 -0.0441
  401loPI   C2B 6414  12.822   5.503   8.714  0.1053 -0.1459  0.3976
  401loPI   C3B 6415  12.713   5.678   8.269  0.2052 -0.0896  0.1523
  401loPI   C4B 6416  12.467   5.619   7.861 -0.0980  0.1738 -0.0078
  402loPI    C1 6417   3.678  14.677  10.225 -0.1208 -0.0686 -0.2694
  402loPI    C2 6418   3.506  14.763  10.576 -0.1378 -0.1848 -0.2488
  402loPI    C3 6419   3.701  14.418  10.529  0.2700  0.0340 -0.2068
  402loPI   PO4 6420   3.491  14.701  10.012  0.3354 -0.0695 -0.1776
  402loPI   GL1 6421   3.599  14.950   9.685 -0.1886  0.0884  0.0559
  402loPI   GL2 6422   3.267  15.025   9.412  0.3874  0.3287 -0.1331
  402loPI   C1A 6423   3.799  14.806   9.445 -0.0990  0.3009 -0.0202
  402loPI   C2A 6424   3.604  15.071   9.029 -0.2452  0.1219 -0.0975
  402loPI   C3A 6425   3.729  15.033   8.560  0.2805 -0.0440 -0.0471
  402loPI   C4A 6426   3.751  14.856   8.100 -0.0222  0.1683  0.0437
  402loPI   C5A 6427   3.891  14.543   7.878  0.0330  0.1250  0.2325
  402loPI   C6A 6428   3.919  14.141   7.790 -0.3612 -0.0875  0.2396
  402loPI   C1B 6429   3.074  15.272   9.168  0.1245 -0.0617 -0.0167
  402loPI   C2B 6430   3.235  15.376   8.846  0.1254  0.0053 -0.4076
  402loPI   C3B 6431   3.443  15.458   8.476 -0.1550 -0.2734 -0.0698
  402loPI   C4B 6432   3.516  15.358   7.942 -0.0425  0.3590  0.2214
  403loPI    C1 6433  16.256  15.815  10.634  0.0768 -0.0730  0.0023
  403loPI    C2 6434  16.412  16.026  10.936  0.2336 -0.0259 -0.1107
  403loPI    C3 6435  16.596  15.695  10.806  0.1529 -0.0604 -0.1376
  403loPI   PO4 6436  16.102  16.017  10.562  0.2008 -0.0040  0.2788
  403loPI   GL1 6437  15.986  16.198  10.145 -0.1762 -0.2369  0.1280
  403loPI   GL2 6438  15.716  16.373  10.150  0.1614  0.0952 -0.1081
  403loPI   C1A 6439  15.954  16.093   9.733  0.1597 -0.1423  0.0231
  403loPI   C2A 6440  15.933  15.933   9.320 -0.0631 -0.2418  0.1837
  403loPI   C3A 6441  15.927  15.994   8.923  0.1831 -0.1512  0.0049
  403loPI   C4A 6442  15.910  15.789   8.550 -0.2149  0.2009  0.3451
  403loPI   C5A 6443  15.731  15.739   8.156 -0.0322 -0.1786  0.0503
  403loPI   C6A 6444  15.702  15.380   7.949 -0.0548 -0.0956  0.3735
  403loPI   C1B 6445  15.670  16.489   9.754 -0.1710  0.1782 -0.1564
  403loPI   C2B 6446  15.715  16.402   9.270  0.0699 -0.1171  0.1546
  403loPI   C3B 6447  15.609  16.383   8.798 -0.0189  0.0767  0.0733
  403loPI   C4B 6448  15.667  16.228   8.461  0.0134 -0.2616  0.0202
  404loPI    C1 6449  17.216  14.812  10.226  0.1052  0.0037 -0.0020
  404loPI    C2 6450  17.443  14.895  10.544 -0.0208  0.3479  0.0022
  404loPI    C3 6451  17.118  14.666  10.585 -0.1452  0.5500  0.1623
  404loPI   PO4 6452  17.196  15.122  10.104  0.0394  0.2802  0.2703
  404loPI   GL1 6453  16.982  15.341   9.841 -0.1657 -0.1355 -0.0270
  404loPI   GL2 6454  16.658  15.525   9.949  0.1550  0.2478  0.2196
  404loPI   C1A 6455  17.099  15.234   9.391  0.1024  0.1333 -0.1212
  404loPI   C2A 6456  17.096  15.238   8.871 -0.2951 -0.1246 -0.2892
  404loPI   C3A 6457  17.063  14.928   8.607  0.3751  0.0769  0.3279
  404loPI   C4A 6458  17.183  14.816   8.218 -0.1364  0.1800  0.1989
  404loPI   C5A 6459  17.420  14.859   8.009  0.1014 -0.1596  0.0950
  404loPI   C6A 6460  17.245  14.827   7.572 -0.1570 -0.2953  0.1682
  404loPI   C1B 6461  16.717  15.694   9.599  0.1224  0.2130  0.2261
  404loPI   C2B 6462  16.811  15.627   9.141  0.0869  0.1247 -0.0598
  404loPI   C3B 6463  16.780  15.542   8.633 -0.1786  0.1036 -0.0754
  404loPI   C4B 6464  16.705  15.578   8.173  0.0187  0.0152 -0.0224
  405loPI    C1 6465  18.054   7.357  10.603  0.1109 -0.1276  0.0596
  405loPI    C2 6466  17.867   7.685  10.736  0.1448 -0.1137  0.0733
  405loPI    C3 6467  17.993   7.407  10.995  0.2004 -0.0922  0.0694
  405loPI   PO4 6468  17.964   7.238  10.326 -0.3331  0.0231 -0.1589
  405loPI   GL1 6469  17.894   7.331   9.922 -0.0508 -0.1377  0.1324
  405loPI   GL2 6470  18.107   7.355   9.807  0.0399 -0.1870 -0.1088
  405loPI   C1A 6471  17.569   7.020   9.734 -0.0540 -0.1003  0.1207
  405loPI   C2A 6472  17.171   6.968   9.484 -0.1746 -0.0404  0.0937
  405loPI   C3A 6473  17.057   6.810   9.112  0.3979 -0.0516 -0.2618
  405loPI   C4A 6474  16.826   6.982   8.790 -0.3147  0.0625 -0.1091
  405loPI   C5A 6475  16.763   7.189   8.394 -0.3028  0.2692  0.0561
  405loPI   C6A 6476  16.533   7.454   8.064  0.4029  0.1112  0.0966
  405loPI   C1B 6477  17.949   7.419   9.396  0.0998  0.1116  0.0675
  405loPI   C2B 6478  17.781   7.570   8.968  0.3055  0.1351  0.0180
  405loPI   C3B 6479  17.515   7.634   8.541 -0.0223  0.0963 -0.0755
  405loPI   C4B 6480  17.720   7.423   8.248 -0.0861  0.0744 -0.0170
  406loPI    C1 6481   7.998   2.758  10.624 -0.2326  0.1702  0.0940
  406loPI    C2 6482   7.854   2.436  10.813 -0.1739  0.0787 -0.0161
  406loPI    C3 6483   7.877   2.786  11.005  0.0183 -0.0454  0.1929
  406loPI   PO4 6484   7.983   2.627  10.335 -0.2075 -0.2551 -0.1449
  406loPI   GL1 6485   8.209   2.733   9.827  0.0031 -0.3911  0.0910
  406loPI   GL2 6486   7.852   2.671   9.818 -0.0784 -0.1043 -0.0817
  406loPI   C1A 6487   8.311   2.531   9.438  0.1598  0.1887  0.1441
  406loPI   C2A 6488   8.283   2.498   8.896 -0.2344 -0.0384 -0.0282
  406loPI   C3A 6489   8.352   2.382   8.506  0.1418  0.1292  0.0160
  406loPI   C4A 6490   8.046   2.310   8.114 -0.0553  0.0987  0.1089
  406loPI   C5A 6491   7.696   1.996   7.949 -0.0346 -0.0591 -0.0553
  406loPI   C6A 6492   7.413   1.620   8.132 -0.2075 -0.1873 -0.0134
  406loPI   C1B 6493   7.803   2.525   9.336  0.2201 -0.3505 -0.4437
  406loPI   C2B 6494   7.695   2.542   8.936  0.1284 -0.1482  0.3478
  406loPI   C3B 6495   7.813   2.502   8.527  0.1415 -0.0139  0.1320
  406loPI   C4B 6496   7.776   2.844   8.207  0.0337 -0.0366 -0.1198
  407loPI    C1 6497   9.068  13.130  10.887 -0.1010 -0.0395 -0.0821
  407loPI    C2 6498   9.026  13.505  10.754  0.0257 -0.0028 -0.0206
  407loPI    C3 6499   9.179  13.438  11.117  0.2384 -0.1220 -0.1307
  407loPI   PO4 6500   9.269  13.044  10.640 -0.0772 -0.1030  0.0956
  407loPI   GL1 6501   9.117  12.892  10.206  0.3946  0.2747  0.1070
  407loPI   GL2 6502   8.953  12.730  10.090 -0.0614  0.0128 -0.0434
  407loPI   C1A 6503   9.242  13.063   9.765  0.0082 -0.1637 -0.0156
  407loPI   C2A 6504   9.454  12.936   9.349  0.0274 -0.2933  0.2569
  407loPI   C3A 6505   9.452  12.783   8.945 -0.1234 -0.0368 -0.0842
  407loPI   C4A 6506   9.465  12.603   8.559  0.2805  0.1599  0.1762
  407loPI   C5A 6507   9.200  12.614   8.154  0.0058  0.2022 -0.0816
  407loPI   C6A 6508   8.815  12.880   8.084  0.3281  0.0341  0.0669
  407loPI   C1B 6509   8.906  12.768   9.594 -0.0493  0.2403 -0.3739
  407loPI   C2B 6510   9.060  12.507   9.240 -0.0163  0.0377 -0.1613
  407loPI   C3B 6511   9.246  12.232   8.952 -0.0474 -0.0336  0.1322
  407loPI   C4B 6512   9.214  12.180   8.493 -0.1618 -0.1980  0.3643
  408loPI    C1 6513  13.826  14.631  10.497  0.1977 -0.0959 -0.2210
  408loPI    C2 6514  14.025  14.402  10.759 -0.0440 -0.0952 -0.0330
  408loPI    C3 6515  13.671  14.559  10.859  0.0335  0.2127 -0.2273
  408loPI   PO4 6516  14.019  14.785  10.405  0.3999 -0.1497  0.0933
  408loPI   GL1 6517  14.162  14.917  10.050  0.2204 -0.0807 -0.1505
  408loPI   GL2 6518  14.292  15.220   9.922 -0.0722 -0.2150 -0.0548
  408loPI   C1A 6519  14.011  14.811   9.587 -0.3215 -0.1638  0.0762
  408loPI   C2A 6520  14.058  14.962   9.211 -0.0555  0.0431 -0.0237
  408loPI   C3A 6521  13.875  15.100   8.741 -0.0882  0.2385  0.0343
  408loPI   C4A 6522  13.665  15.381   8.560 -0.0762  0.1710 -0.1516
  408loPI   C5A 6523  13.491  15.492   8.165 -0.2140  0.0065 -0.2346
  408loPI   C6A 6524  13.318  15.568   7.719  0.2317 -0.1849 -0.0256
  408loPI   C1B 6525  14.303  15.382   9.552 -0.0443  0.0641 -0.3627
  408loPI   C2B 6526  14.268  15.394   9.024 -0.0448 -0.2768  0.1980
  408loPI   C3B 6527  14.162  15.436   8.550 -0.0686 -0.0825 -0.0060
  408loPI   C4B 6528  14.250  15.407   8.085  0.0538 -0.0953  0.2659
  409loPI    C1 6529  10.679  10.554  10.682 -0.1478 -0.0791 -0.0457
  409loPI    C2 6530  10.493  10.452  11.021 -0.0409 -0.1156  0.0025
  409loPI    C3 6531  10.891  10.416  10.993 -0.0483 -0.1018 -0.1229
  409loPI   PO4 6532  10.641  10.347  10.489  0.3956  0.0635  0.0025
  409loPI   GL1 6533  10.526  10.190  10.064  0.0427 -0.2514  0.0475
  409loPI   GL2 6534  10.460   9.937   9.912  0.2838  0.3129 -0.0449
  409loPI   C1A 6535  10.461  10.435   9.726  0.1740 -0.0543  0.4080
  409loPI   C2A 6536  10.616  10.496   9.325  0.0110 -0.0033  0.1284
  409loPI   C3A 6537  10.507  10.711   8.995 -0.0387 -0.1374  0.0794
  409loPI   C4A 6538  10.360  10.652   8.619  0.0246  0.1434 -0.1316
  409loPI   C5A 6539  10.169  10.623   8.304 -0.0210 -0.2150 -0.1595
  409loPI   C6A 6540   9.858  10.335   8.298 -0.1927 -0.3671  0.1543
  409loPI   C1B 6541  10.466   9.999   9.437 -0.1195 -0.0229 -0.2200
  409loPI   C2B 6542  10.560   9.907   9.020  0.0823 -0.2743 -0.2274
  409loPI   C3B 6543  10.566   9.853   8.620  0.1205 -0.1933 -0.0331
  409loPI   C4B 6544  10.691   9.682   8.225 -0.0719 -0.1372  0.0648
  410loPI    C1 6545   5.819   3.562  10.010 -0.2546 -0.0376  0.0820
  410loPI    C2 6546   5.609   3.631  10.344 -0.1843  0.2683  0.0658
  410loPI    C3 6547   5.445   3.424  10.044 -0.1825 -0.1722  0.3602
  410loPI   PO4 6548   6.058   3.683  10.062  0.4164  0.1585 -0.1807
  410loPI   GL1 6549   6.265   3.902   9.694 -0.1528 -0.0818  0.0275
  410loPI   GL2 6550   6.258   3.599   9.604 -0.0141  0.1899 -0.1576
  410loPI   C1A 6551   6.196   4.060   9.295 -0.0555  0.0273 -0.0147
  410loPI   C2A 6552   6.338   4.175   8.840 -0.0179 -0.1227  0.2374
  410loPI   C3A 6553   6.138   4.199   8.523 -0.0380 -0.1024  0.1488
  410loPI   C4A 6554   6.329   3.875   8.219 -0.2306  0.0232 -0.0841
  410loPI   C5A 6555   6.685   3.600   8.085  0.4607  0.0252 -0.1342
  410loPI   C6A 6556   7.001   3.301   7.964  0.0912 -0.2176  0.0474
  410loPI   C1B 6557   6.485   3.345   9.470  0.1432  0.1718  0.1502
  410loPI   C2B 6558   6.884   3.373   9.197 -0.2303  0.0223  0.1840
  410loPI   C3B 6559   7.091   3.716   8.872  0.3731 -0.1896  0.0029
  410loPI   C4B 6560   7.337   4.003   8.650 -0.0277 -0.0084 -0.1108
  411loPI    C1 6561  14.435   7.535  10.230  0.1427 -0.3380  0.0561
  411loPI    C2 6562  14.566   7.504  10.607  0.2085  0.0467  0.0696
  411loPI    C3 6563  14.828   7.537  10.306  0.1539 -0.1402 -0.0001
  411loPI   PO4 6564  14.245   7.334  10.184  0.0249 -0.1170  0.0593
  411loPI   GL1 6565  14.039   7.270   9.716 -0.0126 -0.0058 -0.1639
  411loPI   GL2 6566  14.388   7.136   9.735 -0.0597 -0.2005  0.0699
  411loPI   C1A 6567  13.728   7.249   9.356 -0.2089  0.1643  0.0363
  411loPI   C2A 6568  13.559   7.211   8.890  0.3578  0.0146 -0.0297
  411loPI   C3A 6569  13.510   7.282   8.457 -0.4822  0.0211  0.5237
  411loPI   C4A 6570  13.263   7.436   7.980 -0.2265  0.0476  0.0204
  411loPI   C5A 6571  12.868   7.749   7.936  0.0653  0.2588 -0.0814
  411loPI   C6A 6572  12.531   7.831   8.075 -0.0542 -0.1005  0.2160
  411loPI   C1B 6573  14.205   7.186   9.263  0.0925  0.1633  0.4073
  411loPI   C2B 6574  14.119   7.395   8.927 -0.0178  0.0577  0.0900
  411loPI   C3B 6575  13.977   7.341   8.536  0.1569 -0.0661  0.4360
  411loPI   C4B 6576  13.893   7.588   8.172 -0.0709 -0.1545 -0.0548
  412loPI    C1 6577  11.902   7.507  10.616 -0.0853  0.1764 -0.0592
  412loPI    C2 6578  11.952   7.419  11.003 -0.0895  0.2531 -0.0409
  412loPI    C3 6579  12.079   7.770  10.860 -0.0521  0.2086 -0.1178
  412loPI   PO4 6580  11.690   7.385  10.602  0.3281  0.0562  0.0781
  412loPI   GL1 6581  11.540   7.430  10.244  0.0598  0.1938 -0.1316
  412loPI   GL2 6582  11.169   7.414  10.055  0.0913 -0.1853 -0.0951
  412loPI   C1A 6583  11.573   7.203   9.843  0.3376 -0.0216  0.1091
  412loPI   C2A 6584  11.522   7.344   9.373 -0.1532  0.0251 -0.0501
  412loPI   C3A 6585  11.536   7.438   8.917 -0.0892  0.0729  0.1195
  412loPI   C4A 6586  11.706   7.536   8.448 -0.1064 -0.0115  0.1479
  412loPI   C5A 6587  11.569   7.724   7.993  0.4272  0.1532 -0.2777
  412loPI   C6A 6588  11.530   8.111   7.773  0.0426 -0.1871  0.1783
  412loPI   C1B 6589  11.129   7.444   9.646  0.2458  0.2601 -0.0526
  412loPI   C2B 6590  11.025   7.439   9.332 -0.1055 -0.1839  0.0404
  412loPI   C3B 6591  11.039   7.581   8.903  0.1488 -0.0103 -0.0672
  412loPI   C4B 6592  11.120   7.722   8.552  0.1821  0.1973  0.2321
  413loPI    C1 6593   8.914   0.465  10.883  0.0191 -0.3261 -0.0468
  413loPI    C2 6594   8.518   0.459  10.934 -0.0017  0.1662 -0.0953
  413loPI    C3 6595   8.752   0.626  11.212  0.1945 -0.2926  0.0243
  413loPI   PO4 6596   8.909   0.585  10.651  0.0199  0.0037 -0.1179
  413loPI   GL1 6597   8.967   0.521  10.208  0.3174  0.0164 -0.1455
  413loPI   GL2 6598   8.708   0.665  10.088 -0.2293  0.2360  0.2309
  413loPI   C1A 6599   8.879   0.362   9.742 -0.5702  0.1802  0.0625
  413loPI   C2A 6600   8.773   0.418   9.353  0.2553 -0.2985  0.2445
  413loPI   C3A 6601   8.710   0.474   8.971 -0.1845  0.0729  0.0378
  413loPI   C4A 6602   8.718   0.433   8.491  0.0217  0.0618 -0.0856
  413loPI   C5A 6603   8.749   0.467   8.071  0.1399 -0.0459 -0.2509
  413loPI   C6A 6604   8.570   0.360   7.614 -0.0432  0.1147  0.0362
  413loPI   C1B 6605   8.481   0.802   9.640  0.0614 -0.1928  0.0134
  413loPI   C2B 6606   8.427   0.943   9.342 -0.0016  0.0100  0.2352
  413loPI   C3B 6607   8.502   0.967   8.893  0.2060  0.0198 -0.1423
  413loPI   C4B 6608   8.484   1.034   8.474  0.1680 -0.0560  0.1148
  414loPI    C1 6609  12.444  10.892  10.676 -0.0512 -0.1612 -0.0386
  414loPI    C2 6610  12.533  10.506  10.735 -0.0449 -0.1571 -0.0207
  414loPI    C3 6611  12.818  10.784  10.766 -0.0388 -0.1561 -0.0839
  414loPI   PO4 6612  12.259  10.857  10.429 -0.1823 -0.2010  0.1834
  414loPI   GL1 6613  12.260  10.680  10.004  0.1819  0.0465 -0.0657
  414loPI   GL2 6614  12.418  10.894   9.941  0.0204  0.0427  0.2618
  414loPI   C1A 6615  12.190  10.563   9.599  0.1691  0.2231 -0.0778
  414loPI   C2A 6616  12.218  10.572   9.208  0.1705 -0.1762  0.2707
  414loPI   C3A 6617  12.297  10.566   8.735 -0.0949  0.2914 -0.1373
  414loPI   C4A 6618  12.247  10.721   8.278 -0.1403 -0.1106 -0.1650
  414loPI   C5A 6619  12.101  10.894   7.964 -0.0254 -0.1337  0.2664
  414loPI   C6A 6620  11.975  10.798   7.519 -0.3494  0.1390  0.2684
  414loPI   C1B 6621  12.573  10.948   9.505 -0.0470 -0.2130 -0.1233
  414loPI   C2B 6622  12.567  10.953   9.034 -0.3456 -0.2066  0.0317
  414loPI   C3B 6623  12.579  11.053   8.714  0.2013  0.0449 -0.3289
  414loPI   C4B 6624  12.492  11.152   8.316 -0.3212 -0.0508 -0.0714
  415loPI    C1 6625   0.880   2.958  10.215 -0.1424 -0.0488 -0.0858
  415loPI    C2 6626   0.831   2.563  10.257 -0.0343 -0.0402  0.1334
  415loPI    C3 6627   0.774   2.806  10.570  0.3232  0.0752  0.1130
  415loPI   PO4 6628   1.103   3.013  10.065  0.0130 -0.1400 -0.2163
  415loPI   GL1 6629   1.468   2.925   9.725 -0.3068 -0.1060  0.2609
  415loPI   GL2 6630   1.369   3.232   9.655  0.0197 -0.0245  0.4788
  415loPI   C1A 6631   1.144   2.901   9.416  0.0547  0.3142 -0.1859
  415loPI   C2A 6632   1.095   2.992   9.008 -0.0023 -0.0999 -0.1467
  415loPI   C3A 6633   1.000   3.090   8.498 -0.1711 -0.0740 -0.0162
  415loPI   C4A 6634   0.779   2.990   8.097  0.1712  0.1211 -0.1611
  415loPI   C5A 6635   0.617   2.779   7.746 -0.0503 -0.0846  0.0803
  415loPI   C6A 6636   0.469   2.444   7.557  0.0604  0.3863  0.0091
  415loPI   C1B 6637   1.445   3.288   9.203 -0.0468 -0.0670 -0.1489
  415loPI   C2B 6638   1.505   3.159   8.740  0.1779 -0.2205 -0.1685
  415loPI   C3B 6639   1.450   3.215   8.307  0.1040  0.0126 -0.2144
  415loPI   C4B 6640   1.633   3.069   7.986  0.1057 -0.1321  0.2192
  416loPI    C1 6641   8.252  10.194  10.612 -0.2365  0.0587  0.0979
  416loPI    C2 6642   7.949  10.306  10.847 -0.0235  0.3649  0.2327
  416loPI    C3 6643   8.312  10.242  11.004  0.0010  0.0657  0.0626
  416loPI   PO4 6644   8.205  10.464  10.404  0.1762  0.0476  0.2711
  416loPI   GL1 6645   8.042  10.636  10.073  0.1806 -0.3526  0.1028
  416loPI   GL2 6646   8.078  10.941   9.979  0.1123 -0.0093  0.1740
  416loPI   C1A 6647   7.822  10.501   9.688 -0.1909 -0.1995 -0.0192
  416loPI   C2A 6648   7.714  10.348   9.275  0.1706 -0.0224 -0.2156
  416loPI   C3A 6649   7.743  10.229   8.785  0.0255 -0.0912 -0.2681
  416loPI   C4A 6650   7.651  10.200   8.399 -0.0881  0.2093 -0.0405
  416loPI   C5A 6651   8.068  10.079   8.261  0.0821  0.0072  0.2059
  416loPI   C6A 6652   8.498  10.203   8.077  0.1581 -0.1231 -0.1118
  416loPI   C1B 6653   8.108  10.828   9.504  0.1547 -0.0047 -0.2424
  416loPI   C2B 6654   8.415  10.903   9.121 -0.0995 -0.3862 -0.1788
  416loPI   C3B 6655   8.476  10.918   8.715 -0.1436 -0.0562 -0.0397
  416loPI   C4B 6656   8.402  10.860   8.331 -0.2324  0.0934  0.1525
  417loPI    C1 6657   7.825  14.087  10.797 -0.1817  0.1909 -0.0521
  417loPI    C2 6658   7.505  13.973  11.008 -0.1041 -0.0106 -0.0403
  417loPI    C3 6659   7.761  14.241  11.161 -0.0216 -0.1921  0.1442
  417loPI   PO4 6660   7.783  14.142  10.564  0.0650 -0.3541 -0.0810
  417loPI   GL1 6661   7.967  14.125  10.097  0.3407  0.0771  0.0555
  417loPI   GL2 6662   8.073  14.269   9.795  0.3661  0.2127  0.1269
  417loPI   C1A 6663   7.911  13.703   9.872  0.3165  0.1879 -0.1267
  417loPI   C2A 6664   8.097  13.374   9.629  0.1804 -0.2549  0.0377
  417loPI   C3A 6665   8.206  13.460   9.139  0.1798 -0.1660  0.2207
  417loPI   C4A 6666   8.425  13.295   8.848 -0.0721  0.0402 -0.2177
  417loPI   C5A 6667   8.602  13.003   8.588  0.2306  0.1186 -0.0290
  417loPI   C6A 6668   9.090  12.977   8.529  0.0639  0.2270 -0.0608
  417loPI   C1B 6669   8.220  14.330   9.354 -0.4130  0.2254 -0.4217
  417loPI   C2B 6670   8.283  14.182   9.037 -0.0938 -0.0301 -0.0881
  417loPI   C3B 6671   8.485  13.833   8.796 -0.1314 -0.2692 -0.3289
  417loPI   C4B 6672   8.518  13.466   8.389  0.1101  0.0780  0.1392
  418loPI    C1 6673  17.761   6.020  10.055 -0.0234  0.1047  0.1002
  418loPI    C2 6674  18.016   6.071   9.751 -0.0763 -0.0000  0.0377
  418loPI    C3 6675  18.038   6.307  10.072  0.2307 -0.1370  0.1206
  418loPI   PO4 6676  17.472   6.004   9.876  0.1485  0.3544 -0.2462
  418loPI   GL1 6677  17.393   5.978   9.518 -0.2051 -0.0180 -0.2082
  418loPI   GL2 6678  17.605   6.222   9.296 -0.2021  0.0771 -0.1076
  418loPI   C1A 6679  17.074   5.814   9.222 -0.1658  0.1998 -0.2213
  418loPI   C2A 6680  16.893   5.792   8.726 -0.0800 -0.0913 -0.0050
  418loPI   C3A 6681  16.692   5.640   8.362  0.1451 -0.1950  0.2210
  418loPI   C4A 6682  16.783   5.624   7.962  0.0978 -0.2562  0.1214
  418loPI   C5A 6683  16.648   5.506   7.538 -0.1740  0.1033 -0.0435
  418loPI   C6A 6684  16.468   5.461   7.135 -0.4567  0.3239 -0.0058
  418loPI   C1B 6685  17.816   6.449   8.946  0.0671  0.1174 -0.3390
  418loPI   C2B 6686  17.807   6.470   8.574  0.0780  0.1880  0.2632
  418loPI   C3B 6687  17.856   6.438   8.186  0.0152 -0.1123  0.3786
  418loPI   C4B 6688  17.868   6.639   7.709 -0.0748 -0.1226 -0.2959
  419loPI    C1 6689  17.046  17.647  10.420  0.1704  0.1469 -0.2166
  419loPI    C2 6690  17.215  17.294  10.506  0.0894  0.1124 -0.1976
  419loPI    C3 6691  17.099  17.538  10.801 -0.3778 -0.0957 -0.1997
  419loPI   PO4 6692  16.894  17.606  10.265 -0.2170  0.1943  0.1753
  419loPI   GL1 6693  16.680  17.499   9.834  0.2632 -0.0183 -0.0470
  419loPI   GL2 6694  16.666  17.216  10.022  0.0578 -0.2710 -0.1910
  419loPI   C1A 6695  16.629  17.532   9.464 -0.0030  0.2445  0.2403
  419loPI   C2A 6696  16.593  17.375   9.029 -0.0952 -0.2794  0.1116
  419loPI   C3A 6697  16.598  17.440   8.652  0.3347  0.0972 -0.2265
  419loPI   C4A 6698  16.449  17.382   8.343 -0.1755  0.0009 -0.0706
  419loPI   C5A 6699  16.320  17.132   7.996 -0.1360  0.1006 -0.4331
  419loPI   C6A 6700  15.972  16.941   7.867  0.2889 -0.0611 -0.1631
  419loPI   C1B 6701  16.465  17.014   9.662  0.2203 -0.1688 -0.1119
  419loPI   C2B 6702  16.359  17.019   9.324  0.1072  0.3429  0.0833
  419loPI   C3B 6703  16.377  16.925   8.917  0.0118 -0.0343 -0.0364
  419loPI   C4B 6704  16.353  16.832   8.486 -0.0186  0.0183 -0.1749
  420loPI    C1 6705   0.007  11.991   9.981  0.2997 -0.0025  0.0184
  420loPI    C2 6706   0.182  11.632   9.997 -0.0404 -0.1668  0.1777
  420loPI    C3 6707   0.340  11.941  10.196  0.2989 -0.2036 -0.0252
  420loPI   PO4 6708  -0.111  11.983   9.680 -0.5523  0.1189  0.1133
  420loPI   GL1 6709   0.013  11.718   9.339  0.3022  0.3113  0.1628
  420loPI   GL2 6710   0.104  11.398   9.483 -0.2994 -0.0861 -0.2381
  420loPI   C1A 6711  -0.206  11.853   8.989  0.1256  0.2594 -0.0902
  420loPI   C2A 6712  -0.204  11.740   8.482  0.0470  0.1362 -0.1200
  420loPI   C3A 6713   0.027  11.703   8.083 -0.0265 -0.2411 -0.3415
  420loPI   C4A 6714   0.307  11.448   7.878  0.1806 -0.1628 -0.2433
  420loPI   C5A 6715   0.756  11.434   7.800  0.0636 -0.2474 -0.0559
  420loPI   C6A 6716   1.009  11.756   7.987  0.2462  0.2567 -0.0145
  420loPI   C1B 6717   0.471  11.440   9.281  0.0396  0.1323 -0.2774
  420loPI   C2B 6718   0.666  11.261   8.891 -0.0481  0.0664  0.1532
  420loPI   C3B 6719   0.877  10.879   8.688 -0.0010 -0.0951  0.0296
  420loPI   C4B 6720   1.077  10.641   8.283  0.1784  0.0653  0.3468
  421loPI    C1 6721   3.181   7.768   9.809 -0.2240  0.0115 -0.0020
  421loPI    C2 6722   2.805   7.844   9.694 -0.2064  0.2480  0.0909
  421loPI    C3 6723   2.922   7.931  10.067 -0.1116 -0.0049  0.1223
  421loPI   PO4 6724   3.339   7.849   9.612  0.0752 -0.1217 -0.1399
  421loPI   GL1 6725   3.228   8.138   9.310 -0.1051  0.3579 -0.1871
  421loPI   GL2 6726   3.030   7.859   9.233  0.1671 -0.0639  0.1961
  421loPI   C1A 6727   3.120   8.307   8.957 -0.1256 -0.1742  0.3483
  421loPI   C2A 6728   3.162   8.269   8.489  0.0995  0.0320 -0.0478
  421loPI   C3A 6729   3.264   8.362   8.034 -0.1811  0.2249 -0.1008
  421loPI   C4A 6730   3.227   8.500   7.552 -0.1636  0.1230  0.2899
  421loPI   C5A 6731   2.954   8.624   7.240 -0.2139 -0.0704 -0.2328
  421loPI   C6A 6732   2.656   8.423   7.129  0.1893 -0.0825  0.2942
  421loPI   C1B 6733   3.163   7.837   8.816  0.1514  0.2019  0.0186
  421loPI   C2B 6734   3.045   7.775   8.406  0.1249 -0.0342 -0.0197
  421loPI   C3B 6735   3.136   7.851   7.973  0.0037 -0.1466  0.1909
  421loPI   C4B 6736   3.430   7.984   7.603  0.1738  0.1574  0.2160
  422loPI    C1 6737  17.259   3.012  10.666 -0.2649 -0.1258  0.1275
  422loPI    C2 6738  17.504   2.855  10.941  0.3089  0.3143 -0.1102
  422loPI    C3 6739  17.303   3.191  11.021 -0.0385  0.0870 -0.0044
  422loPI   PO4 6740  17.430   3.071  10.468  0.3587  0.0879 -0.0031
  422loPI   GL1 6741  17.401   3.019  10.013 -0.2358 -0.0179  0.0344
  422loPI   GL2 6742  17.735   3.067   9.973  0.2267  0.0363  0.0893
  422loPI   C1A 6743  17.395   3.404   9.706  0.1143  0.2679 -0.1383
  422loPI   C2A 6744  17.397   3.572   9.329 -0.0263 -0.0377 -0.1655
  422loPI   C3A 6745  17.708   3.702   8.930 -0.1148  0.1275  0.0588
  422loPI   C4A 6746  17.455   3.859   8.460  0.4060 -0.0379 -0.0359
  422loPI   C5A 6747  17.424   3.588   8.131 -0.0422  0.0792 -0.0090
  422loPI   C6A 6748  17.402   3.414   7.695  0.1154  0.1052 -0.4545
  422loPI   C1B 6749  17.695   3.019   9.459 -0.1987 -0.0778  0.3190
  422loPI   C2B 6750  17.620   3.125   8.975 -0.2394  0.0359 -0.0236
  422loPI   C3B 6751  17.519   2.926   8.454  0.2581 -0.1579  0.1051
  422loPI   C4B 6752  17.411   2.542   8.195  0.0469 -0.2006 -0.1548
  423loPI    C1 6753  16.629   6.088  10.257  0.1131 -0.3205 -0.0122
  423loPI    C2 6754  16.681   5.713  10.128 -0.0970 -0.3929  0.1085
  423loPI    C3 6755  16.953   5.880  10.369  0.1019 -0.3926 -0.1118
  423loPI   PO4 6756  16.453   6.154   9.975 -0.1361  0.0730 -0.1633
  423loPI   GL1 6757  16.437   5.734   9.722  0.0169 -0.2149 -0.2696
  423loPI   GL2 6758  16.200   5.967   9.628  0.0613 -0.1374  0.0035
  423loPI   C1A 6759  16.642   6.044   9.392  0.4558 -0.1950  0.2232
  423loPI   C2A 6760  16.460   6.059   9.074  0.0378 -0.1433  0.0908
  423loPI   C3A 6761  16.433   6.074   8.639 -0.0681 -0.3275  0.0707
  423loPI   C4A 6762  16.338   6.276   8.214 -0.0390  0.3036 -0.0764
  423loPI   C5A 6763  16.486   6.279   7.803  0.1147  0.5479  0.3565
  423loPI   C6A 6764  16.960   6.401   7.624  0.1263  0.3060  0.1006
  423loPI   C1B 6765  15.916   5.955   9.167  0.2701 -0.3298  0.0991
  423loPI   C2B 6766  15.896   6.073   8.824  0.0578 -0.0815  0.0943
  423loPI   C3B 6767  15.908   6.162   8.400 -0.1882 -0.0193  0.0040
  423loPI   C4B 6768  15.871   6.201   7.998  0.0268  0.0381 -0.3477
  424loPI    C1 6769   4.222   7.969  10.048  0.0291  0.1390 -0.0344
  424loPI    C2 6770   4.570   8.120  10.173 -0.0416  0.2034  0.0865
  424loPI    C3 6771   4.337   7.918  10.428  0.1012 -0.2074 -0.0985
  424loPI   PO4 6772   4.077   8.219   9.957 -0.0717 -0.1147  0.0567
  424loPI   GL1 6773   3.994   8.159   9.477  0.0112  0.2816  0.2152
  424loPI   GL2 6774   3.749   7.971   9.417 -0.1488 -0.0286 -0.0081
  424loPI   C1A 6775   4.130   8.281   9.021  0.0544 -0.3696  0.2102
  424loPI   C2A 6776   4.075   8.270   8.629 -0.1798 -0.3233  0.0786
  424loPI   C3A 6777   4.169   8.059   8.204 -0.1787 -0.3341 -0.0628
  424loPI   C4A 6778   4.260   7.835   7.832 -0.2577  0.0029 -0.0810
  424loPI   C5A 6779   4.223   7.563   7.604 -0.2954 -0.0376  0.0755
  424loPI   C6A 6780   4.163   7.750   7.214  0.1775  0.2144  0.1345
  424loPI   C1B 6781   3.711   7.968   9.064 -0.4272  0.0650 -0.0268
  424loPI   C2B 6782   3.562   7.968   8.585 -0.0611 -0.3125  0.0277
  424loPI   C3B 6783   3.562   7.989   8.219 -0.0300  0.0754 -0.0133
  424loPI   C4B 6784   3.773   7.823   7.874  0.2232  0.4417 -0.0461
  425loPI    C1 6785   7.559   3.622  10.629 -0.1840 -0.1731  0.1376
  425loPI    C2 6786   7.706   3.276  10.766  0.0169 -0.0715  0.1835
  425loPI    C3 6787   7.724   3.605  10.993  0.3062  0.0874 -0.0629
  425loPI   PO4 6788   7.666   3.652  10.339  0.1627 -0.1020  0.1396
  425loPI   GL1 6789   7.586   3.551  10.005  0.0495 -0.4545 -0.0753
  425loPI   GL2 6790   7.742   3.762   9.745 -0.0731  0.1449  0.0636
  425loPI   C1A 6791   7.500   3.322   9.638 -0.1060 -0.1158 -0.0300
  425loPI   C2A 6792   7.481   3.421   9.143  0.0355  0.2134  0.0194
  425loPI   C3A 6793   7.485   3.548   8.662  0.1284 -0.0097 -0.2394
  425loPI   C4A 6794   7.541   3.403   8.192 -0.0049 -0.0738  0.3293
  425loPI   C5A 6795   7.444   3.062   7.829  0.0417 -0.1286  0.1665
  425loPI   C6A 6796   7.757   2.932   7.665  0.2365 -0.4111  0.3309
  425loPI   C1B 6797   7.936   3.597   9.408  0.2098  0.2021  0.1044
  425loPI   C2B 6798   7.979   3.437   9.007 -0.0633 -0.1033  0.0201
  425loPI   C3B 6799   8.006   3.455   8.538 -0.2445  0.0695  0.0623
  425loPI   C4B 6800   8.008   3.233   8.168  0.2101  0.1194  0.1194
  426loPI    C1 6801   4.304  11.623  10.567  0.0251 -0.0544  0.0878
  426loPI    C2 6802   4.394  11.976  10.732 -0.1454  0.0004  0.0657
  426loPI    C3 6803   4.672  11.773  10.528 -0.0439  0.1168  0.0873
  426loPI   PO4 6804   4.111  11.683  10.412  0.0437  0.0275  0.0493
  426loPI   GL1 6805   4.178  11.778   9.972 -0.1082  0.2060 -0.2028
  426loPI   GL2 6806   3.906  11.655   9.841 -0.1356 -0.0593 -0.0470
  426loPI   C1A 6807   4.348  12.008   9.683 -0.4458 -0.0301  0.3910
  426loPI   C2A 6808   4.286  12.251   9.296  0.0240  0.2055 -0.2725
  426loPI   C3A 6809   4.127  12.362   8.958 -0.0406 -0.2346 -0.0833
  426loPI   C4A 6810   4.078  12.378   8.529  0.1713  0.1038 -0.1201
  426loPI   C5A 6811   3.880  12.252   8.067 -0.2113 -0.0944  0.0471
  426loPI   C6A 6812   3.886  11.950   7.843  0.0895  0.1898  0.1943
  426loPI   C1B 6813   3.947  11.663   9.437  0.0595 -0.0698 -0.3091
  426loPI   C2B 6814   4.025  11.332   9.064  0.2042 -0.0961  0.1831
  426loPI   C3B 6815   4.070  11.189   8.539  0.7350  0.1446 -0.1100
  426loPI   C4B 6816   4.016  10.991   8.243  0.0973 -0.0565 -0.1270
  427loPI    C1 6817  14.760  12.323  10.387 -0.2438 -0.1235 -0.0413
  427loPI    C2 6818  14.467  12.274  10.655 -0.1472  0.0643  0.1004
  427loPI    C3 6819  14.822  12.418  10.770 -0.0203 -0.0968 -0.0831
  427loPI   PO4 6820  14.688  12.122  10.144  0.2437  0.0312 -0.0412
  427loPI   GL1 6821  14.499  11.961   9.886  0.0161  0.0203 -0.2079
  427loPI   GL2 6822  14.577  11.657   9.932  0.0010  0.1796  0.0816
  427loPI   C1A 6823  14.182  11.787   9.715 -0.1754 -0.1301 -0.1230
  427loPI   C2A 6824  14.071  11.867   9.267  0.2498 -0.2212  0.1297
  427loPI   C3A 6825  14.088  11.949   8.733 -0.0577 -0.1788  0.2370
  427loPI   C4A 6826  14.010  12.032   8.350  0.2608  0.1689 -0.1405
  427loPI   C5A 6827  14.055  12.163   7.969  0.4190 -0.0353  0.4063
  427loPI   C6A 6828  14.016  11.884   7.607  0.1296 -0.1126 -0.3040
  427loPI   C1B 6829  14.505  11.544   9.462 -0.0930 -0.0715 -0.2266
  427loPI   C2B 6830  14.486  11.537   9.137 -0.0152  0.0411  0.2938
  427loPI   C3B 6831  14.346  11.336   8.771  0.1593 -0.2758  0.0089
  427loPI   C4B 6832  14.152  10.948   8.698 -0.0978 -0.2476  0.1418
  428loPI    C1 6833  17.370  18.346  10.415 -0.0813  0.0137  0.1707
  428loPI    C2 6834  17.268  18.028  10.636  0.0368 -0.1656 -0.0289
  428loPI    C3 6835  17.374  18.370  10.815  0.0903 -0.2946  0.1911
  428loPI   PO4 6836  17.625  18.266  10.207 -0.0518  0.0415  0.2137
  428loPI   GL1 6837  17.495  18.129   9.702 -0.2349 -0.2222 -0.0815
  428loPI   GL2 6838  17.418  17.816   9.766  0.1452  0.0009  0.1029
  428loPI   C1A 6839  17.351  17.939   9.212 -0.0078  0.0852 -0.1618
  428loPI   C2A 6840  17.348  17.941   8.802 -0.0044  0.0420 -0.0718
  428loPI   C3A 6841  17.245  18.122   8.471  0.3056  0.1980  0.1138
  428loPI   C4A 6842  17.095  18.244   8.138 -0.0449 -0.0600  0.3426
  428loPI   C5A 6843  17.007  18.434   7.773  0.1729 -0.1365 -0.0674
  428loPI   C6A 6844  16.613  18.546   7.530 -0.1250  0.1345 -0.1934
  428loPI   C1B 6845  17.136  17.509   9.471  0.1013  0.0466 -0.2573
  428loPI   C2B 6846  17.087  17.390   9.097  0.2819  0.0521  0.1851
  428loPI   C3B 6847  17.175  17.512   8.644 -0.0789  0.0013  0.2058
  428loPI   C4B 6848  16.928  17.687   8.227 -0.1032 -0.1445 -0.4806
  429loPI    C1 6849   1.780   6.927   9.979 -0.0875 -0.1426  0.0789
  429loPI    C2 6850   1.728   6.953  10.375  0.0983 -0.1765  0.1064
  429loPI    C3 6851   1.999   7.184  10.193 -0.0876 -0.0575 -0.0227
  429loPI   PO4 6852   1.835   6.688   9.861  0.2047 -0.0242 -0.0806
  429loPI   GL1 6853   1.851   6.539   9.396 -0.0101  0.1567 -0.0415
  429loPI   GL2 6854   1.797   6.163   9.461  0.0630 -0.2552 -0.2363
  429loPI   C1A 6855   1.408   6.758   9.161 -0.2990  0.1308  0.1158
  429loPI   C2A 6856   1.003   6.561   8.866 -0.2239 -0.1169 -0.1872
  429loPI   C3A 6857   0.896   6.626   8.414  0.0623  0.1137 -0.3029
  429loPI   C4A 6858   0.864   6.642   7.974  0.0130  0.0286  0.2932
  429loPI   C5A 6859   1.229   6.649   7.639  0.1450 -0.1235  0.2343
  429loPI   C6A 6860   1.477   6.973   7.383  0.4241  0.2226  0.2225
  429loPI   C1B 6861   1.743   5.918   9.096  0.0513 -0.2235 -0.0232
  429loPI   C2B 6862   1.794   5.952   8.683  0.2291 -0.1817  0.0984
  429loPI   C3B 6863   1.709   6.311   8.355  0.2099 -0.1357 -0.0542
  429loPI   C4B 6864   1.628   6.392   7.889 -0.0818 -0.1766  0.0157
  430loPI    C1 6865   7.244   1.641  10.469  0.0252 -0.1733 -0.2031
  430loPI    C2 6866   6.946   1.783  10.244 -0.0414 -0.1106 -0.0767
  430loPI    C3 6867   6.938   1.834  10.640  0.2422  0.0782 -0.0928
  430loPI   PO4 6868   7.446   1.789  10.392 -0.0534 -0.2512  0.1222
  430loPI   GL1 6869   7.453   1.891   9.969 -0.2277 -0.0855 -0.0285
  430loPI   GL2 6870   7.726   2.015   9.952  0.3872  0.1539  0.0702
  430loPI   C1A 6871   7.056   1.953   9.729  0.1753 -0.2281  0.1512
  430loPI   C2A 6872   6.916   2.052   9.271 -0.0320  0.0975 -0.0877
  430loPI   C3A 6873   7.107   2.136   8.847  0.0758  0.0637  0.0431
  430loPI   C4A 6874   7.175   2.407   8.628 -0.1475  0.1807 -0.0776
  430loPI   C5A 6875   7.425   2.492   8.243 -0.0161 -0.2381 -0.1215
  430loPI   C6A 6876   7.546   2.571   7.905  0.0991 -0.0710 -0.0021
  430loPI   C1B 6877   7.941   2.124   9.597  0.1512 -0.1433 -0.0192
  430loPI   C2B 6878   8.055   2.145   9.125  0.3251  0.1184 -0.2303
  430loPI   C3B 6879   7.977   1.959   8.703 -0.1581 -0.3596 -0.1176
  430loPI   C4B 6880   8.060   1.839   8.258  0.0598 -0.2948 -0.1731
  431loPI    C1 6881   7.791  17.711  10.777  0.1633  0.1989 -0.0239
  431loPI    C2 6882   7.727  17.838  10.403  0.0611  0.1216 -0.0330
  431loPI    C3 6883   7.526  18.002  10.708 -0.2936 -0.2164 -0.0766
  431loPI   PO4 6884   8.097  17.696  10.751  0.0943 -0.0036 -0.0110
  431loPI   GL1 6885   8.229  18.009  10.384  0.2618  0.0417 -0.1024
  431loPI   GL2 6886   8.215  18.302  10.135 -0.0069  0.3721 -0.1196
  431loPI   C1A 6887   8.036  17.804  10.029 -0.0861 -0.0217 -0.2168
  431loPI   C2A 6888   8.105  17.696   9.611  0.1825 -0.1899  0.0413
  431loPI   C3A 6889   8.243  17.623   9.217 -0.0244 -0.0680 -0.0147
  431loPI   C4A 6890   8.305  17.660   8.819  0.2942  0.1658  0.2388
  431loPI   C5A 6891   8.293  17.609   8.403  0.1432 -0.1890  0.5809
  431loPI   C6A 6892   8.126  17.447   8.029  0.1120 -0.2841  0.0196
  431loPI   C1B 6893   8.253  18.259   9.678 -0.2787 -0.1779 -0.0268
  431loPI   C2B 6894   8.043  18.056   9.314 -0.2142 -0.0106  0.0720
  431loPI   C3B 6895   8.077  18.083   8.851 -0.1665 -0.1954 -0.2626
  431loPI   C4B 6896   8.069  18.075   8.390  0.0741 -0.2321 -0.0318
  432loPI    C1 6897   7.565   5.256  10.080 -0.1014 -0.1127 -0.2017
  432loPI    C2 6898   7.460   4.961  10.329 -0.0473 -0.0464 -0.0995
  432loPI    C3 6899   7.696   5.257  10.458  0.0891 -0.0806 -0.2669
  432loPI   PO4 6900   7.632   5.083   9.864 -0.2338  0.4937 -0.3165
  432loPI   GL1 6901   7.614   4.909   9.555 -0.0075 -0.1746 -0.0538
  432loPI   GL2 6902   8.042   4.835   9.715  0.1369  0.0981  0.2668
  432loPI   C1A 6903   7.907   5.227   9.307  0.1747 -0.1535  0.4030
  432loPI   C2A 6904   8.284   5.296   9.010 -0.2066  0.0580 -0.1423
  432loPI   C3A 6905   8.426   5.308   8.585  0.2913  0.1357  0.0495
  432loPI   C4A 6906   8.235   5.411   8.280 -0.0609  0.1455 -0.4146
  432loPI   C5A 6907   7.894   5.404   7.988 -0.0139 -0.2181 -0.1681
  432loPI   C6A 6908   7.729   5.018   7.716  0.1926  0.0084 -0.1486
  432loPI   C1B 6909   8.025   4.735   9.325 -0.2038  0.1022 -0.0939
  432loPI   C2B 6910   7.867   4.863   8.999  0.0696  0.1683 -0.3484
  432loPI   C3B 6911   7.872   5.050   8.657 -0.0530  0.0483 -0.2326
  432loPI   C4B 6912   7.950   4.964   8.262  0.0275  0.0746 -0.1695
  433loPI    C1 6913  16.027   6.282  10.255  0.1135  0.0763 -0.1013
  433loPI    C2 6914  16.211   6.132  10.577 -0.1037 -0.0175 -0.0188
  433loPI    C3 6915  16.367   6.447  10.386  0.2607 -0.2327 -0.0855
  433loPI   PO4 6916  15.857   6.031  10.129  0.0340  0.1293  0.1431
  433loPI   GL1 6917  15.696   5.971   9.754  0.0693 -0.1159 -0.0002
  433loPI   GL2 6918  15.727   6.274   9.664 -0.2441  0.1608 -0.1174
  433loPI   C1A 6919  15.434   5.869   9.348  0.1216  0.0395 -0.1213
  433loPI   C2A 6920  15.466   5.845   8.939  0.1249  0.2074  0.1279
  433loPI   C3A 6921  15.471   5.966   8.407  0.1661 -0.2399 -0.0739
  433loPI   C4A 6922  15.266   6.054   7.984 -0.1405 -0.0922  0.2979
  433loPI   C5A 6923  15.520   6.097   7.610 -0.0264  0.0396  0.0993
  433loPI   C6A 6924  15.917   6.204   7.497  0.0439 -0.0777  0.1203
  433loPI   C1B 6925  15.561   6.306   9.178 -0.0400 -0.0414 -0.1677
  433loPI   C2B 6926  15.549   6.395   8.688  0.2280  0.1351  0.0250
  433loPI   C3B 6927  15.580   6.552   8.340  0.1449 -0.2416  0.0778
  433loPI   C4B 6928  15.513   6.501   7.905  0.0639 -0.2088  0.0402
  434loPI    C1 6929   2.488   3.875  10.264 -0.0067 -0.0032 -0.0128
  434loPI    C2 6930   2.472   3.475  10.255  0.0282 -0.0060  0.0460
  434loPI    C3 6931   2.443   3.668  10.604 -0.1529  0.0498  0.0009
  434loPI   PO4 6932   2.456   3.962  10.028 -0.2129 -0.3758 -0.1091
  434loPI   GL1 6933   2.760   3.848   9.696  0.0549  0.1031 -0.2782
  434loPI   GL2 6934   2.733   3.447   9.806  0.0421  0.0353  0.0979
  434loPI   C1A 6935   2.753   3.648   9.287  0.4380  0.4243  0.2851
  434loPI   C2A 6936   2.797   3.462   8.848  0.3059 -0.2432 -0.0302
  434loPI   C3A 6937   2.728   3.172   8.609  0.0181 -0.1465  0.0410
  434loPI   C4A 6938   2.808   3.034   8.236  0.2174  0.1931 -0.1924
  434loPI   C5A 6939   3.107   2.714   8.078  0.1889 -0.0477  0.0709
  434loPI   C6A 6940   3.350   2.885   7.632 -0.2930  0.0515 -0.2370
  434loPI   C1B 6941   2.524   3.196   9.523  0.0797  0.1229 -0.1131
  434loPI   C2B 6942   2.485   3.141   9.122 -0.1475  0.2737  0.0075
  434loPI   C3B 6943   2.344   2.877   8.803  0.1570  0.1797 -0.1130
  434loPI   C4B 6944   2.263   2.837   8.358  0.3128 -0.0144  0.2713
  435loPI    C1 6945  15.670  14.890  10.780  0.0376  0.1234 -0.0301
  435loPI    C2 6946  16.045  14.759  10.832 -0.1748 -0.4052  0.2402
  435loPI    C3 6947  15.843  14.917  11.139 -0.0584  0.2167  0.0095
  435loPI   PO4 6948  15.750  15.025  10.568 -0.0352 -0.2131 -0.1022
  435loPI   GL1 6949  16.088  14.962  10.279  0.1134 -0.3108 -0.1980
  435loPI   GL2 6950  16.201  14.675  10.278  0.0446  0.1955  0.1637
  435loPI   C1A 6951  15.800  14.730   9.902 -0.3732 -0.0196 -0.1255
  435loPI   C2A 6952  15.785  14.613   9.483  0.3187 -0.1260 -0.2105
  435loPI   C3A 6953  15.843  14.620   9.130 -0.1364 -0.1666  0.1018
  435loPI   C4A 6954  15.782  14.555   8.788  0.0958 -0.2597  0.1948
  435loPI   C5A 6955  15.784  14.654   8.357  0.1861 -0.0579  0.1252
  435loPI   C6A 6956  15.566  14.507   8.065 -0.2228 -0.0496  0.1297
  435loPI   C1B 6957  16.189  14.346   9.872 -0.0214 -0.0127 -0.0146
  435loPI   C2B 6958  16.216  14.259   9.400  0.4203  0.1254 -0.1011
  435loPI   C3B 6959  16.081  14.177   9.067 -0.1706  0.0543 -0.1374
  435loPI   C4B 6960  16.129  14.132   8.695  0.0360  0.2393  0.0970
  436loPI    C1 6961  11.269   4.907  10.097 -0.1005  0.2277 -0.1082
  436loPI    C2 6962  11.001   5.086  10.335 -0.0016  0.0631  0.1299
  436loPI    C3 6963  10.902   4.753  10.136 -0.0545  0.1474  0.0146
  436loPI   PO4 6964  11.453   5.002  10.141 -0.2291 -0.2547 -0.0538
  436loPI   GL1 6965  11.665   5.252   9.885 -0.0052 -0.1228  0.0193
  436loPI   GL2 6966  11.957   5.281   9.840 -0.0458  0.1570 -0.3571
  436loPI   C1A 6967  11.545   5.085   9.513 -0.3498 -0.0758 -0.0235
  436loPI   C2A 6968  11.695   5.046   9.104  0.2081 -0.0829  0.2559
  436loPI   C3A 6969  11.792   5.240   8.685 -0.0162 -0.1403 -0.0575
  436loPI   C4A 6970  11.869   5.403   8.264 -0.2363  0.0526  0.1277
  436loPI   C5A 6971  12.046   5.247   7.855  0.1565 -0.1560 -0.0162
  436loPI   C6A 6972  12.189   5.137   7.486  0.1797 -0.0716  0.4054
  436loPI   C1B 6973  11.951   5.426   9.421  0.1299  0.0700  0.0550
  436loPI   C2B 6974  12.047   5.582   9.045 -0.2749 -0.0207 -0.0395
  436loPI   C3B 6975  11.818   5.766   8.637 -0.1210 -0.1648  0.0313
  436loPI   C4B 6976  11.798   5.978   8.356 -0.2065  0.2373  0.1131
  437loPI    C1 6977  12.707  13.059  10.573 -0.1901 -0.0577 -0.0100
  437loPI    C2 6978  12.976  13.271  10.780 -0.0794 -0.0085 -0.2026
  437loPI    C3 6979  12.940  12.878  10.844 -0.1912  0.0421  0.0582
  437loPI   PO4 6980  12.717  13.053  10.381  0.2121  0.1403  0.0113
  437loPI   GL1 6981  12.934  13.044   9.996 -0.1490  0.0433  0.3701
  437loPI   GL2 6982  13.247  12.984   9.809 -0.0031  0.2288 -0.3107
  437loPI   C1A 6983  12.609  12.928   9.746 -0.1472  0.0206 -0.0470
  437loPI   C2A 6984  12.690  12.943   9.277  0.1745  0.1363  0.0022
  437loPI   C3A 6985  12.607  13.047   8.902 -0.0642  0.1469 -0.0884
  437loPI   C4A 6986  12.678  13.179   8.515 -0.2501  0.1537 -0.0123
  437loPI   C5A 6987  13.009  13.165   8.238  0.3193  0.0255  0.0637
  437loPI   C6A 6988  13.197  13.396   7.946  0.1080 -0.0480  0.3736
  437loPI   C1B 6989  13.585  13.180   9.625 -0.1663 -0.2418 -0.0515
  437loPI   C2B 6990  13.766  13.217   9.186  0.0698  0.0586 -0.2172
  437loPI   C3B 6991  13.861  13.358   8.732  0.0691 -0.3485  0.0226
  437loPI   C4B 6992  14.037  13.358   8.298  0.2015 -0.2228 -0.0668
  438loPI    C1 6993   9.306   1.371  10.765  0.0653 -0.1050  0.0689
  438loPI    C2 6994   9.378   1.738  10.904 -0.0269 -0.0089 -0.1325
  438loPI    C3 6995   9.565   1.423  11.065 -0.0554  0.1093  0.1377
  438loPI   PO4 6996   9.298   1.455  10.521  0.2284 -0.1432 -0.1225
  438loPI   GL1 6997   9.072   1.415  10.130 -0.0299  0.0272 -0.2463
  438loPI   GL2 6998   9.133   1.143  10.025  0.2744  0.1369 -0.3290
  438loPI   C1A 6999   9.162   1.621   9.844  0.0719 -0.0168  0.0569
  438loPI   C2A 7000   9.352   1.717   9.411  0.0462  0.3788 -0.2342
  438loPI   C3A 7001   9.494   1.785   8.999  0.2841 -0.0742 -0.1371
  438loPI   C4A 7002   9.672   1.717   8.548 -0.0777  0.1706 -0.2919
  438loPI   C5A 7003   9.631   1.588   8.130  0.0472 -0.2015 -0.0059
  438loPI   C6A 7004  10.000   1.538   7.840  0.1394 -0.0862 -0.3221
  438loPI   C1B 7005   8.942   0.879   9.577 -0.0209  0.0188 -0.0575
  438loPI   C2B 7006   8.974   0.847   9.131 -0.0493 -0.1830 -0.1422
  438loPI   C3B 7007   8.958   0.823   8.738  0.0613 -0.1097  0.1861
  438loPI   C4B 7008   9.022   0.875   8.320  0.0131 -0.0603 -0.1562
  439loPI    C1 7009   9.044  10.794  10.761  0.0095 -0.0290 -0.0636
  439loPI    C2 7010   9.202  11.035  11.038  0.1439 -0.1684 -0.0170
  439loPI    C3 7011   9.189  10.641  11.101 -0.1498 -0.1671 -0.0566
  439loPI   PO4 7012   8.833  10.988  10.647 -0.5036  0.3456  0.3121
  439loPI   GL1 7013   8.939  11.232  10.224 -0.1057  0.0218 -0.0405
  439loPI   GL2 7014   9.101  11.586  10.265  0.0572  0.0890 -0.0543
  439loPI   C1A 7015   8.995  11.226   9.806  0.1381  0.1129 -0.0104
  439loPI   C2A 7016   9.079  10.936   9.378  0.1391  0.1622 -0.0557
  439loPI   C3A 7017   8.963  10.876   8.933  0.1259 -0.1166  0.2137
  439loPI   C4A 7018   8.934  10.837   8.502 -0.1012 -0.1553  0.1877
  439loPI   C5A 7019   8.902  10.646   8.117 -0.0442 -0.0958 -0.2940
  439loPI   C6A 7020   9.209  10.416   7.709  0.1411 -0.1364 -0.1552
  439loPI   C1B 7021   9.363  11.507   9.968 -0.1058 -0.0383 -0.0293
  439loPI   C2B 7022   9.718  11.472   9.775 -0.0613  0.3928  0.1045
  439loPI   C3B 7023  10.040  11.621   9.879 -0.4751 -0.0860  0.2139
  439loPI   C4B 7024  10.208  11.723   9.581 -0.0152 -0.3010  0.1947
  440loPI    C1 7025   3.272   7.373  10.144  0.0017  0.0812  0.2013
  440loPI    C2 7026   2.985   7.505  10.389  0.0415 -0.0290  0.3083
  440loPI    C3 7027   3.077   7.116  10.380 -0.0275 -0.0413  0.0455
  440loPI   PO4 7028   3.486   7.454  10.117  0.0660  0.2760 -0.1407
  440loPI   GL1 7029   3.722   7.491   9.649  0.1764  0.0422  0.4001
  440loPI   GL2 7030   3.780   7.257   9.769  0.3016 -0.1683 -0.1487
  440loPI   C1A 7031   3.711   7.446   9.121  0.1274 -0.3765  0.0459
  440loPI   C2A 7032   3.625   7.487   8.669 -0.2310  0.1682 -0.1011
  440loPI   C3A 7033   3.396   7.471   8.305 -0.0607 -0.1690 -0.3610
  440loPI   C4A 7034   3.356   7.428   7.861 -0.0882  0.0900 -0.1684
  440loPI   C5A 7035   3.444   7.105   7.492 -0.3619  0.0619 -0.0875
  440loPI   C6A 7036   3.724   6.941   7.284  0.2537 -0.1662  0.0150
  440loPI   C1B 7037   3.572   7.024   9.416 -0.1111 -0.2175 -0.1013
  440loPI   C2B 7038   3.549   6.907   8.960  0.1687 -0.0462  0.2096
  440loPI   C3B 7039   3.620   7.066   8.487 -0.0621  0.0078 -0.2135
  440loPI   C4B 7040   3.657   7.015   8.022 -0.1650  0.0278 -0.0886
  441loPI    C1 7041  17.172   0.810  10.654 -0.0689  0.1313  0.0266
  441loPI    C2 7042  17.022   1.067  10.922 -0.1336  0.0424  0.0760
  441loPI    C3 7043  17.349   0.854  11.011  0.0022  0.2091 -0.0177
  441loPI   PO4 7044  16.995   0.787  10.415 -0.1266 -0.3040  0.1723
  441loPI   GL1 7045  16.920   1.028  10.012 -0.1301  0.0416 -0.1285
  441loPI   GL2 7046  16.754   0.900   9.855 -0.2886 -0.0988  0.0777
  441loPI   C1A 7047  17.257   0.898   9.614  0.0511 -0.0886 -0.0037
  441loPI   C2A 7048  17.240   0.798   9.208 -0.0932 -0.2144  0.1304
  441loPI   C3A 7049  16.917   0.804   8.759  0.0774  0.0531  0.0718
  441loPI   C4A 7050  16.895   0.546   8.365 -0.1367 -0.0581 -0.2130
  441loPI   C5A 7051  17.182   0.308   8.117  0.0767 -0.0741  0.2483
  441loPI   C6A 7052  17.477   0.014   7.949  0.2033  0.1805  0.0078
  441loPI   C1B 7053  16.637   0.778   9.443 -0.1829 -0.1581 -0.0828
  441loPI   C2B 7054  16.456   0.728   9.033  0.2158  0.0052  0.0664
  441loPI   C3B 7055  16.444   0.765   8.529 -0.1632  0.1671  0.1165
  441loPI   C4B 7056  16.337   0.666   8.060 -0.1953 -0.0454 -0.2358
  442loPI    C1 7057   1.268  11.845  10.346 -0.0798 -0.1796  0.0496
  442loPI    C2 7058   0.911  11.982  10.461 -0.0050 -0.0341  0.1117
  442loPI    C3 7059   1.176  11.860  10.735  0.1922  0.3596  0.1028
  442loPI   PO4 7060   1.219  11.749  10.118 -0.0869  0.0962 -0.5421
  442loPI   GL1 7061   1.431  11.849   9.788 -0.0913  0.0154  0.2357
  442loPI   GL2 7062   1.637  11.619   9.726  0.0741 -0.2252  0.3202
  442loPI   C1A 7063   1.629  12.162   9.511 -0.0095 -0.1503  0.0836
  442loPI   C2A 7064   1.780  12.216   9.034  0.3101 -0.1046  0.2711
  442loPI   C3A 7065   1.848  12.332   8.593 -0.0153 -0.1206  0.3348
  442loPI   C4A 7066   1.764  12.424   8.200 -0.0095 -0.1909  0.0780
  442loPI   C5A 7067   1.670  12.688   7.891  0.1614  0.1512 -0.1351
  442loPI   C6A 7068   1.368  13.010   7.633  0.1617 -0.1190  0.0594
  442loPI   C1B 7069   1.732  11.722   9.296 -0.2414 -0.3780  0.1857
  442loPI   C2B 7070   1.837  11.720   8.871  0.1948  0.3650  0.2492
  442loPI   C3B 7071   1.838  11.832   8.434 -0.2298 -0.0323 -0.3994
  442loPI   C4B 7072   1.818  11.823   7.997  0.2676  0.0464  0.0071
  443loPI    C1 7073   7.841   7.956  10.957 -0.0877  0.0879 -0.1394
  443loPI    C2 7074   8.120   7.958  11.244 -0.1422 -0.1679 -0.0828
  443loPI    C3 7075   7.735   8.016  11.338 -0.1605 -0.2555 -0.1022
  443loPI   PO4 7076   8.021   8.020  10.739  0.2214  0.1145  0.0143
  443loPI   GL1 7077   7.826   7.790  10.299  0.0792 -0.0624  0.3241
  443loPI   GL2 7078   8.007   8.061  10.198 -0.1852 -0.1588  0.3623
  443loPI   C1A 7079   7.546   7.960   9.980  0.0578 -0.2523 -0.1911
  443loPI   C2A 7080   7.566   8.003   9.568 -0.1173  0.1713  0.2163
  443loPI   C3A 7081   7.737   8.132   9.093  0.0144 -0.2349  0.0981
  443loPI   C4A 7082   7.739   8.136   8.643  0.4048  0.4502 -0.1632
  443loPI   C5A 7083   7.920   8.364   8.289 -0.3425  0.2281 -0.2749
  443loPI   C6A 7084   8.198   8.207   8.003  0.2921  0.1151 -0.2014
  443loPI   C1B 7085   8.016   8.351   9.860  0.0596 -0.0822 -0.0844
  443loPI   C2B 7086   8.043   8.509   9.451 -0.2669  0.0104  0.0662
  443loPI   C3B 7087   8.165   8.549   9.023  0.3116  0.0463 -0.1317
  443loPI   C4B 7088   8.156   8.614   8.621 -0.0165  0.0164 -0.1965
  444loPI    C1 7089   2.828   8.376   9.700 -0.2415 -0.0037 -0.0677
  444loPI    C2 7090   2.809   8.745   9.853 -0.1274  0.0117 -0.0896
  444loPI    C3 7091   2.740   8.428  10.086 -0.1341  0.0429 -0.0491
  444loPI   PO4 7092   2.717   8.443   9.457  0.1210  0.0398  0.0776
  444loPI   GL1 7093   2.590   8.212   9.114  0.3369  0.0391 -0.3809
  444loPI   GL2 7094   2.713   8.064   8.839 -0.3381 -0.0722 -0.1120
  444loPI   C1A 7095   2.605   8.503   8.779  0.0571 -0.1254  0.1497
  444loPI   C2A 7096   2.472   8.846   8.342 -0.4467 -0.0836  0.0028
  444loPI   C3A 7097   2.580   8.870   7.939 -0.0090 -0.1271 -0.1779
  444loPI   C4A 7098   2.700   8.493   7.659  0.0113  0.0553  0.1224
  444loPI   C5A 7099   2.917   8.095   7.517  0.0700  0.1496 -0.2526
  444loPI   C6A 7100   2.773   7.738   7.636 -0.0881 -0.0476  0.0395
  444loPI   C1B 7101   2.600   8.103   8.474  0.1077  0.1873 -0.2384
  444loPI   C2B 7102   2.512   7.972   8.001 -0.1723  0.2359 -0.0841
  444loPI   C3B 7103   2.375   8.097   7.686 -0.0744 -0.2329 -0.0856
  444loPI   C4B 7104   2.000   8.093   7.732 -0.0911 -0.3665  0.5183
  445loPI    C1 7105  16.577   0.960  10.572  0.0714  0.1119  0.0985
  445loPI    C2 7106  16.307   1.229  10.692 -0.0218  0.0601  0.0065
  445loPI    C3 7107  16.516   1.021  10.963  0.0941  0.2672  0.0783
  445loPI   PO4 7108  16.418   0.775  10.333  0.0748 -0.1281  0.2163
  445loPI   GL1 7109  16.288   0.718   9.978 -0.1155 -0.0430 -0.2314
  445loPI   GL2 7110  16.441   0.439   9.798  0.3915 -0.0608 -0.1494
  445loPI   C1A 7111  16.124   0.765   9.547 -0.1011  0.0579 -0.0759
  445loPI   C2A 7112  15.956   0.894   9.165  0.3291  0.0418  0.1544
  445loPI   C3A 7113  15.985   0.759   8.734  0.0047  0.0945 -0.0358
  445loPI   C4A 7114  15.793   0.812   8.233 -0.3985 -0.3998 -0.0266
  445loPI   C5A 7115  15.751   0.923   7.838  0.0023 -0.0245 -0.1104
  445loPI   C6A 7116  16.084   1.019   7.672 -0.3200  0.3621  0.1857
  445loPI   C1B 7117  16.351   0.272   9.409 -0.1633  0.1537  0.0050
  445loPI   C2B 7118  16.181   0.279   9.033 -0.1436 -0.1629  0.2020
  445loPI   C3B 7119  15.865   0.254   8.689  0.2536  0.2618 -0.1478
  445loPI   C4B 7120  15.895   0.310   8.295 -0.4237 -0.0372  0.0313
  446loPI    C1 7121   7.584   0.624  10.791  0.1565 -0.0560 -0.1366
  446loPI    C2 7122   7.640   1.005  10.683  0.2364 -0.0312 -0.0101
  446loPI    C3 7123   7.686   0.897  11.065 -0.0776 -0.1107  0.0081
  446loPI   PO4 7124   7.753   0.491  10.585  0.2996 -0.0951 -0.0431
  446loPI   GL1 7125   8.070   0.325  10.263  0.5398 -0.1333 -0.3802
  446loPI   GL2 7126   8.204   0.500  10.009 -0.3000  0.3092 -0.1160
  446loPI   C1A 7127   7.842   0.173   9.833 -0.0780  0.0196  0.1601
  446loPI   C2A 7128   7.904   0.048   9.457 -0.1549  0.2064  0.0492
  446loPI   C3A 7129   7.896   0.112   8.932  0.0619  0.3261  0.2630
  446loPI   C4A 7130   7.948   0.089   8.541 -0.0508  0.2396 -0.0710
  446loPI   C5A 7131   7.920   0.039   8.146 -0.2868 -0.1030 -0.3148
  446loPI   C6A 7132   7.652   0.219   7.934 -0.0097  0.0754 -0.1107
  446loPI   C1B 7133   8.337   0.333   9.568 -0.1974  0.3107 -0.0903
  446loPI   C2B 7134   8.407   0.073   9.237 -0.1080  0.0581 -0.0409
  446loPI   C3B 7135   8.396   0.058   8.852 -0.0097  0.1899 -0.1367
  446loPI   C4B 7136   8.433  -0.017   8.439  0.1315  0.2314  0.2730
  447loPI    C1 7137   9.772  17.449  10.868  0.1502 -0.1220  0.4118
  447loPI    C2 7138   9.866  17.759  10.633  0.0134 -0.2734  0.1521
  447loPI    C3 7139   9.771  17.820  11.017 -0.3368  0.0456  0.0214
  447loPI   PO4 7140   9.738  17.261  10.629  0.0832  0.2771  0.0393
  447loPI   GL1 7141   9.541  17.253  10.275 -0.0622  0.0156  0.4385
  447loPI   GL2 7142   9.772  17.489  10.198 -0.1283  0.0510  0.1823
  447loPI   C1A 7143   9.541  17.063   9.811 -0.0867 -0.0619  0.2854
  447loPI   C2A 7144   9.614  17.077   9.384  0.2308  0.0776 -0.0588
  447loPI   C3A 7145   9.453  17.126   8.994 -0.0238  0.1103 -0.0658
  447loPI   C4A 7146   9.473  16.982   8.529 -0.3135  0.0489 -0.0884
  447loPI   C5A 7147   9.204  17.362   8.254 -0.1090 -0.0705  0.0036
  447loPI   C6A 7148   9.077  17.737   7.957  0.0284  0.0280  0.2189
  447loPI   C1B 7149   9.888  17.462   9.861  0.1212  0.4691 -0.0944
  447loPI   C2B 7150   9.873  17.486   9.386 -0.1139  0.1927  0.0462
  447loPI   C3B 7151   9.828  17.449   8.793  0.0064 -0.2344 -0.3977
  447loPI   C4B 7152   9.690  17.486   8.376  0.2538  0.2878  0.2556
  448loPI    C1 7153   7.215  10.802  10.485 -0.1785 -0.2689  0.0543
  448loPI    C2 7154   7.173  10.445  10.661 -0.1986 -0.1410  0.3138
  448loPI    C3 7155   7.460  10.695  10.783  0.1272 -0.2557 -0.1868
  448loPI   PO4 7156   7.265  10.628  10.223  0.1834 -0.0197 -0.2405
  448loPI   GL1 7157   7.418  10.300  10.034  0.1432  0.1280 -0.2752
  448loPI   GL2 7158   7.334  10.143  10.186  0.4021  0.1108 -0.0276
  448loPI   C1A 7159   7.456  10.075   9.656  0.0842 -0.0923 -0.1377
  448loPI   C2A 7160   7.431   9.875   9.285 -0.0272  0.1566  0.1295
  448loPI   C3A 7161   7.438   9.810   8.901 -0.0400 -0.0863  0.1192
  448loPI   C4A 7162   7.216  10.015   8.532 -0.1601 -0.0526 -0.0688
  448loPI   C5A 7163   6.912  10.056   8.207 -0.1122 -0.0476 -0.0799
  448loPI   C6A 7164   6.842  10.144   7.886  0.0807 -0.0453 -0.3135
  448loPI   C1B 7165   6.969  10.163   9.837 -0.3923  0.2981  0.4717
  448loPI   C2B 7166   6.904  10.015   9.441  0.1682  0.0148  0.1493
  448loPI   C3B 7167   6.813   9.958   8.976  0.0029  0.2747  0.0640
  448loPI   C4B 7168   6.618   9.766   8.536 -0.1846  0.2404 -0.0948
  449loPI    C1 7169   4.166  10.815  10.184  0.0604  0.1508 -0.0344
  449loPI    C2 7170   4.306  10.443  10.230  0.0332  0.1022 -0.3261
  449loPI    C3 7171   4.089  10.612  10.520 -0.0636 -0.1572 -0.2444
  449loPI   PO4 7172   4.079  10.835   9.972  0.4686 -0.0818  0.2931
  449loPI   GL1 7173   3.974  11.103   9.700 -0.2265 -0.2722 -0.0083
  449loPI   GL2 7174   4.055  10.868   9.362  0.2103  0.0703  0.0498
  449loPI   C1A 7175   4.300  11.381   9.602 -0.0597 -0.3601  0.0802
  449loPI   C2A 7176   4.445  11.676   9.274  0.0075 -0.0052  0.0954
  449loPI   C3A 7177   4.240  11.882   8.988  0.2275  0.1598  0.1431
  449loPI   C4A 7178   4.017  11.711   8.745  0.1570  0.2512 -0.0867
  449loPI   C5A 7179   3.892  11.693   8.252 -0.0111  0.0581  0.0810
  449loPI   C6A 7180   3.811  11.359   8.005  0.0687 -0.0281 -0.0874
  449loPI   C1B 7181   4.083  10.750   9.044  0.0500  0.0064  0.3421
  449loPI   C2B 7182   3.933  10.596   8.544  0.0305  0.1883  0.1197
  449loPI   C3B 7183   3.899  10.537   8.073 -0.1290 -0.0596 -0.1291
  449loPI   C4B 7184   3.744  10.836   7.798 -0.1739 -0.2275  0.0201
  450loPI    C1 7185   7.500   7.102  10.740  0.2997  0.1065  0.0960
  450loPI    C2 7186   7.317   7.344  11.000 -0.2357  0.0632 -0.2255
  450loPI    C3 7187   7.321   6.949  11.063  0.2131  0.1039  0.0472
  450loPI   PO4 7188   7.383   7.172  10.526 -0.1073  0.0076  0.0465
  450loPI   GL1 7189   7.582   7.050  10.102 -0.1908  0.0532 -0.1146
  450loPI   GL2 7190   7.814   7.011   9.981 -0.1290 -0.1822 -0.1036
  450loPI   C1A 7191   7.325   7.089   9.700 -0.0915 -0.3202 -0.3244
  450loPI   C2A 7192   7.473   7.196   9.294  0.0673 -0.0974 -0.0308
  450loPI   C3A 7193   7.703   7.355   8.946 -0.1288  0.0731 -0.1635
  450loPI   C4A 7194   7.828   7.576   8.664 -0.1588 -0.1756  0.1922
  450loPI   C5A 7195   7.623   7.370   8.414  0.0077  0.3823 -0.0658
  450loPI   C6A 7196   7.785   7.325   7.966 -0.5546  0.3040  0.1793
  450loPI   C1B 7197   8.017   7.031   9.513  0.3081 -0.0728 -0.1842
  450loPI   C2B 7198   8.050   7.059   9.014 -0.0302 -0.2275 -0.0069
  450loPI   C3B 7199   8.210   7.202   8.674 -0.0456 -0.3498  0.1576
  450loPI   C4B 7200   8.201   7.344   8.239 -0.0040 -0.0592 -0.1829
  451loPI    C1 7201  11.417   9.365  10.851  0.0929  0.1626  0.0888
  451loPI    C2 7202  11.185   9.663  10.985 -0.0806  0.0864 -0.0385
  451loPI    C3 7203  11.396   9.442  11.243 -0.1552  0.1522  0.0793
  451loPI   PO4 7204  11.622   9.455  10.673  0.1283  0.0136 -0.0842
  451loPI   GL1 7205  11.465   9.612  10.235  0.0863 -0.3034 -0.1043
  451loPI   GL2 7206  11.738   9.759  10.190 -0.3823  0.2096  0.2234
  451loPI   C1A 7207  11.282   9.631   9.848 -0.2447 -0.1193  0.1183
  451loPI   C2A 7208  11.275   9.649   9.442 -0.2141  0.2054 -0.2619
  451loPI   C3A 7209  11.269   9.734   9.030  0.4507  0.1677  0.0083
  451loPI   C4A 7210  11.102   9.846   8.570  0.4581 -0.2407 -0.2347
  451loPI   C5A 7211  11.244   9.768   8.174  0.1037  0.2483  0.0166
  451loPI   C6A 7212  11.514   9.702   7.961 -0.3259 -0.3063 -0.3617
  451loPI   C1B 7213  11.786   9.693   9.754  0.1535  0.0455 -0.0039
  451loPI   C2B 7214  11.709   9.673   9.302  0.1415  0.1949  0.0710
  451loPI   C3B 7215  11.728   9.780   8.888 -0.2951 -0.1929  0.0070
  451loPI   C4B 7216  11.633   9.951   8.414 -0.0205 -0.0212  0.0638
  452loPI    C1 7217   8.020  16.044  10.487  0.1158  0.0683  0.1230
  452loPI    C2 7218   8.250  16.199  10.198  0.1791  0.0046  0.1389
  452loPI    C3 7219   8.416  15.990  10.496  0.1110  0.0467  0.2069
  452loPI   PO4 7220   7.714  16.129  10.302 -0.2326 -0.0756 -0.1349
  452loPI   GL1 7221   7.503  16.147  10.024  0.0775  0.1221 -0.3755
  452loPI   GL2 7222   7.198  15.952  10.110 -0.0617 -0.2055 -0.0101
  452loPI   C1A 7223   7.469  16.222   9.628  0.0519 -0.2632  0.2219
  452loPI   C2A 7224   7.415  16.138   9.181  0.0073 -0.4709 -0.2790
  452loPI   C3A 7225   7.568  15.947   8.888 -0.0955 -0.2598  0.0865
  452loPI   C4A 7226   7.714  15.915   8.496 -0.0724 -0.2026  0.2434
  452loPI   C5A 7227   7.792  16.315   8.364  0.1716  0.1222  0.1297
  452loPI   C6A 7228   7.492  16.572   8.174 -0.0931  0.2653  0.1315
  452loPI   C1B 7229   7.027  15.933   9.688  0.1329  0.1880  0.0847
  452loPI   C2B 7230   6.905  16.252   9.391 -0.0608 -0.1695  0.0441
  452loPI   C3B 7231   7.032  16.344   8.968 -0.0904 -0.4109  0.1027
  452loPI   C4B 7232   7.408  16.389   8.693  0.0513  0.2222  0.0869
  453loPI    C1 7233  16.609   9.370  10.578 -0.1880  0.1673  0.1454
  453loPI    C2 7234  16.914   9.219  10.788 -0.1516  0.0017 -0.0241
  453loPI    C3 7235  16.546   9.219  10.943 -0.1326 -0.1604  0.0233
  453loPI   PO4 7236  16.606   9.273  10.278  0.0156 -0.0685  0.3480
  453loPI   GL1 7237  16.819   9.014   9.945  0.0133  0.0663 -0.0236
  453loPI   GL2 7238  17.041   8.798   9.882  0.0029  0.1277 -0.0912
  453loPI   C1A 7239  16.737   9.141   9.510 -0.1392  0.3418 -0.1909
  453loPI   C2A 7240  16.610   9.267   9.185 -0.0726  0.2046 -0.1377
  453loPI   C3A 7241  16.485   9.472   8.877 -0.1142 -0.0499 -0.0221
  453loPI   C4A 7242  16.393   9.632   8.485 -0.0500  0.0540  0.3552
  453loPI   C5A 7243  16.287   9.612   8.045 -0.0149  0.3575  0.0976
  453loPI   C6A 7244  16.371   9.449   7.636 -0.4771 -0.0819 -0.0947
  453loPI   C1B 7245  16.766   8.587   9.586 -0.1330  0.0929  0.2896
  453loPI   C2B 7246  16.645   8.469   9.203 -0.0310  0.0155  0.0372
  453loPI   C3B 7247  16.494   8.493   8.744 -0.0718 -0.0410 -0.2109
  453loPI   C4B 7248  16.504   8.630   8.341 -0.0525  0.0237 -0.0542
  454loPI    C1 7249   9.078   9.527  11.028 -0.1266 -0.0253 -0.0242
  454loPI    C2 7250   9.127   9.131  11.011  0.0623 -0.0004 -0.0798
  454loPI    C3 7251   9.360   9.351  11.251 -0.1586  0.0587  0.0839
  454loPI   PO4 7252   9.000   9.584  10.782 -0.1967 -0.2445 -0.1933
  454loPI   GL1 7253   9.169   9.823  10.376 -0.2844  0.3425  0.0964
  454loPI   GL2 7254   9.441   9.863  10.268 -0.1365 -0.1283  0.1387
  454loPI   C1A 7255   8.904   9.853  10.082  0.2274  0.1910 -0.2029
  454loPI   C2A 7256   8.894  10.041   9.691 -0.1414  0.0304 -0.1173
  454loPI   C3A 7257   9.196  10.138   9.327  0.0917  0.1910 -0.1294
  454loPI   C4A 7258   9.111  10.423   8.919 -0.0708 -0.1032  0.0411
  454loPI   C5A 7259   9.323  10.481   8.588 -0.2846  0.3287  0.0003
  454loPI   C6A 7260   9.420  10.460   8.147 -0.0959 -0.0846  0.0168
  454loPI   C1B 7261   9.408   9.897   9.908 -0.1512  0.1536 -0.0302
  454loPI   C2B 7262   9.609   9.983   9.618 -0.0957  0.0848  0.1394
  454loPI   C3B 7263   9.757  10.111   9.136  0.2548  0.1641 -0.3967
  454loPI   C4B 7264   9.781  10.392   8.823 -0.1964  0.0534 -0.0048
  455loPI    C1 7265  12.405   7.340  10.642  0.1426 -0.1796 -0.0403
  455loPI    C2 7266  12.789   7.330  10.753  0.1239  0.1229  0.0606
  455loPI    C3 7267  12.517   7.498  10.992 -0.1132 -0.3034  0.0999
  455loPI   PO4 7268  12.275   7.135  10.600  0.0048 -0.4031 -0.1971
  455loPI   GL1 7269  12.300   7.289  10.138  0.0830  0.0240 -0.1376
  455loPI   GL2 7270  12.060   7.478  10.097  0.4298 -0.0902  0.0950
  455loPI   C1A 7271  12.231   7.126   9.721  0.1028  0.1263 -0.0508
  455loPI   C2A 7272  12.039   7.221   9.338  0.0168  0.2317  0.0130
  455loPI   C3A 7273  11.997   7.343   8.910 -0.1188  0.2585  0.0045
  455loPI   C4A 7274  12.235   7.527   8.485 -0.1028  0.0443  0.0859
  455loPI   C5A 7275  12.511   7.331   8.132 -0.0178 -0.1365 -0.1655
  455loPI   C6A 7276  12.827   7.205   7.848 -0.0415  0.0012  0.2141
  455loPI   C1B 7277  11.883   7.497   9.680 -0.0534  0.1731  0.0205
  455loPI   C2B 7278  11.915   7.714   9.257 -0.3147  0.2141  0.2143
  455loPI   C3B 7279  11.979   7.889   8.774  0.3186 -0.1302 -0.1796
  455loPI   C4B 7280  12.051   7.986   8.348  0.2863  0.1450  0.1553
  456loPI    C1 7281  16.969   4.371  10.212 -0.1438  0.0483  0.1087
  456loPI    C2 7282  16.803   4.205  10.535  0.0144  0.2258  0.2843
  456loPI    C3 7283  17.170   4.362  10.558  0.0808  0.1208 -0.0177
  456loPI   PO4 7284  16.837   4.478  10.057 -0.0490  0.0372 -0.0757
  456loPI   GL1 7285  16.850   4.685   9.748  0.0823  0.1302  0.0504
  456loPI   GL2 7286  16.605   4.797   9.595 -0.1502 -0.0524 -0.0245
  456loPI   C1A 7287  17.011   4.465   9.357  0.0165  0.3258 -0.0331
  456loPI   C2A 7288  16.897   4.438   8.908  0.1655  0.0329  0.2739
  456loPI   C3A 7289  16.776   4.315   8.475  0.2533 -0.3621  0.0691
  456loPI   C4A 7290  16.931   4.325   8.081  0.2168  0.1014 -0.0211
  456loPI   C5A 7291  16.874   4.175   7.720  0.2443  0.1366  0.0831
  456loPI   C6A 7292  16.805   4.207   7.312  0.1887 -0.1763  0.0866
  456loPI   C1B 7293  16.625   4.806   9.254  0.1254 -0.0709 -0.2796
  456loPI   C2B 7294  16.525   4.744   8.814 -0.0741 -0.1137 -0.1191
  456loPI   C3B 7295  16.523   4.871   8.360 -0.1196 -0.0547 -0.3531
  456loPI   C4B 7296  16.482   5.185   8.060  0.0009  0.0804 -0.2237
  457loPI    C1 7297  11.957   8.166  10.560  0.1466 -0.2026 -0.0437
  457loPI    C2 7298  11.652   7.909  10.579  0.0549 -0.0951 -0.0525
  457loPI    C3 7299  11.673   8.213  10.837  0.0190  0.0451 -0.2133
  457loPI   PO4 7300  12.143   7.954  10.365 -0.0051  0.0437 -0.0277
  457loPI   GL1 7301  12.165   7.920   9.925  0.1092 -0.2259 -0.0231
  457loPI   GL2 7302  12.380   7.741   9.848 -0.2677  0.0243  0.1951
  457loPI   C1A 7303  11.914   8.125   9.627 -0.0327 -0.0091  0.0904
  457loPI   C2A 7304  11.898   8.273   9.222  0.0880  0.0575 -0.2019
  457loPI   C3A 7305  11.711   8.518   9.027  0.2301  0.2742 -0.0731
  457loPI   C4A 7306  11.614   8.753   8.574  0.1078  0.2375 -0.0390
  457loPI   C5A 7307  11.617   8.570   8.092  0.1558 -0.0550  0.1087
  457loPI   C6A 7308  11.900   8.526   7.759 -0.2220 -0.1925  0.0962
  457loPI   C1B 7309  12.380   7.553   9.483 -0.2410  0.0322  0.2056
  457loPI   C2B 7310  12.407   7.680   8.940  0.3159 -0.1107 -0.3250
  457loPI   C3B 7311  12.464   8.059   8.652 -0.1300  0.1593 -0.0220
  457loPI   C4B 7312  12.514   8.360   8.497  0.0372 -0.0044  0.1639
  458loPI    C1 7313  10.547   7.542  10.508  0.1380 -0.0535 -0.0525
  458loPI    C2 7314  10.199   7.543  10.311  0.1801  0.1107 -0.1281
  458loPI    C3 7315  10.267   7.813  10.598  0.0513 -0.2335  0.2373
  458loPI   PO4 7316  10.741   7.480  10.332  0.1486 -0.0562 -0.0022
  458loPI   GL1 7317  10.662   7.386   9.917 -0.0413  0.0341  0.1157
  458loPI   GL2 7318  10.378   7.427   9.829 -0.0390  0.0549 -0.0968
  458loPI   C1A 7319  10.667   7.132   9.533 -0.0516  0.0529  0.0557
  458loPI   C2A 7320  10.613   7.237   9.152  0.2099  0.3628  0.0656
  458loPI   C3A 7321  10.657   7.329   8.719  0.0237 -0.0756 -0.2382
  458loPI   C4A 7322  10.714   7.527   8.351  0.2513  0.0518 -0.0941
  458loPI   C5A 7323  10.839   7.773   8.125  0.1927  0.1821 -0.0979
  458loPI   C6A 7324  11.142   8.133   8.193 -0.0917  0.1176  0.0694
  458loPI   C1B 7325  10.548   7.693   9.513  0.0891  0.0672  0.1182
  458loPI   C2B 7326  10.806   7.883   9.256  0.1063  0.3098 -0.0301
  458loPI   C3B 7327  11.054   8.129   8.963  0.2553 -0.0345  0.0368
  458loPI   C4B 7328  11.235   8.350   8.635  0.0977  0.0049  0.0642
  459loPI    C1 7329  18.434  11.210   9.951  0.0623  0.1048  0.0417
  459loPI    C2 7330  18.475  11.102  10.334  0.0487 -0.0049  0.0126
  459loPI    C3 7331  18.276  11.436  10.240  0.0530  0.0227  0.1011
  459loPI   PO4 7332  18.476  10.891   9.825  0.0706  0.1112 -0.0067
  459loPI   GL1 7333  18.685  10.906   9.519  0.0746  0.0171  0.1732
  459loPI   GL2 7334  18.875  10.737   9.302 -0.0964 -0.0557  0.0087
  459loPI   C1A 7335  18.475  11.072   9.155  0.0415 -0.2468  0.2614
  459loPI   C2A 7336  18.428  11.239   8.775 -0.3816 -0.3398  0.1235
  459loPI   C3A 7337  18.410  11.223   8.345  0.2645 -0.0451 -0.4165
  459loPI   C4A 7338  18.527  11.016   7.985 -0.0988  0.0331 -0.1158
  459loPI   C5A 7339  18.671  10.797   7.580 -0.1823 -0.1698 -0.0642
  459loPI   C6A 7340  18.359  10.650   7.179  0.1743  0.0049  0.0053
  459loPI   C1B 7341  18.881  10.783   8.896  0.1388  0.2476 -0.0886
  459loPI   C2B 7342  18.614  10.786   8.472  0.0691 -0.3282 -0.0020
  459loPI   C3B 7343  18.365  10.596   8.175 -0.0827 -0.1216 -0.0256
  459loPI   C4B 7344  18.753  10.457   7.937 -0.0236 -0.0316 -0.2559
  460loPI    C1 7345   3.626  10.708   9.771  0.0757  0.1780  0.0352
  460loPI    C2 7346   3.256  10.744   9.918  0.0618  0.0379  0.0360
  460loPI    C3 7347   3.564  10.919  10.105  0.0093  0.0743  0.0888
  460loPI   PO4 7348   3.631  10.477   9.693 -0.2129 -0.0042  0.1323
  460loPI   GL1 7349   3.328  10.400   9.331 -0.1993 -0.0180 -0.2222
  460loPI   GL2 7350   3.533  10.675   9.237  0.0740  0.1508 -0.1980
  460loPI   C1A 7351   3.064  10.348   9.089  0.2120  0.0258 -0.4033
  460loPI   C2A 7352   3.060  10.226   8.678 -0.1507  0.0495  0.3274
  460loPI   C3A 7353   3.065  10.282   8.207  0.2098  0.2410  0.1262
  460loPI   C4A 7354   2.894  10.413   7.718  0.1314 -0.2473 -0.1137
  460loPI   C5A 7355   3.070  10.597   7.342  0.2324  0.3345 -0.0758
  460loPI   C6A 7356   3.054  10.435   6.979 -0.0089 -0.2732  0.1372
  460loPI   C1B 7357   3.444  10.459   8.790 -0.1936 -0.1534  0.1912
  460loPI   C2B 7358   3.495  10.457   8.365  0.1151 -0.1813 -0.0173
  460loPI   C3B 7359   3.356  10.581   7.868 -0.3648  0.0428 -0.0367
  460loPI   C4B 7360   3.494  10.465   7.563  0.0544  0.3615  0.1730
  461loPI    C1 7361   9.601  14.363  10.431 -0.2546 -0.1195  0.0515
  461loPI    C2 7362   9.954  14.352  10.619 -0.1092 -0.0436 -0.2115
  461loPI    C3 7363   9.614  14.357  10.831  0.0411 -0.2657  0.0422
  461loPI   PO4 7364   9.609  14.255  10.272 -0.1810 -0.0507  0.0932
  461loPI   GL1 7365   9.361  14.302   9.845  0.2141 -0.1446 -0.0677
  461loPI   GL2 7366   9.694  14.133   9.816  0.2290 -0.0978 -0.0571
  461loPI   C1A 7367   9.625  14.643   9.549  0.0200  0.1493  0.1384
  461loPI   C2A 7368   9.709  14.673   9.085 -0.3493 -0.0719 -0.0907
  461loPI   C3A 7369   9.596  14.604   8.570 -0.1895  0.0637 -0.0171
  461loPI   C4A 7370   9.163  14.666   8.452 -0.1503 -0.2411  0.2260
  461loPI   C5A 7371   8.922  14.390   8.215  0.2936  0.3913 -0.0085
  461loPI   C6A 7372   8.825  14.296   7.838  0.0518 -0.0487  0.3314
  461loPI   C1B 7373   9.697  14.199   9.331  0.0497 -0.0185 -0.1204
  461loPI   C2B 7374   9.529  14.191   8.903 -0.0402 -0.0633 -0.0433
  461loPI   C3B 7375   9.191  14.074   8.643 -0.0246  0.0609  0.0402
  461loPI   C4B 7376   8.910  13.869   8.373  0.1686  0.0348  0.0889
  462loPI    C1 7377  17.964  13.505  10.349 -0.1969 -0.1577 -0.0299
  462loPI    C2 7378  17.688  13.700  10.563 -0.0564 -0.0529  0.0580
  462loPI    C3 7379  17.936  13.443  10.743  0.0040 -0.0312  0.0061
  462loPI   PO4 7380  17.809  13.490  10.094  0.6003 -0.0156 -0.1135
  462loPI   GL1 7381  18.014  13.571   9.683  0.1595 -0.0926  0.2273
  462loPI   GL2 7382  17.855  13.212   9.686  0.1765 -0.0616  0.1905
  462loPI   C1A 7383  18.024  13.679   9.227  0.1434 -0.3143  0.1801
  462loPI   C2A 7384  18.085  13.937   8.893 -0.2590  0.2549 -0.0298
  462loPI   C3A 7385  18.349  14.213   8.607  0.2676 -0.0613 -0.1372
  462loPI   C4A 7386  18.261  14.588   8.263 -0.0537 -0.1897 -0.2020
  462loPI   C5A 7387  18.317  14.705   7.861  0.1201  0.1184  0.1204
  462loPI   C6A 7388  18.301  14.578   7.483  0.0534  0.0504 -0.2005
  462loPI   C1B 7389  17.841  13.199   9.310 -0.1805  0.5375 -0.0692
  462loPI   C2B 7390  17.734  13.389   8.912  0.3287 -0.3575  0.0771
  462loPI   C3B 7391  17.874  13.540   8.457 -0.0855 -0.0186 -0.0562
  462loPI   C4B 7392  17.980  13.904   8.401 -0.0472  0.1421  0.2424
  463loPI    C1 7393  12.351  14.031  10.420  0.0628  0.1874 -0.1293
  463loPI    C2 7394  12.113  13.762  10.597 -0.1034  0.2864 -0.1998
  463loPI    C3 7395  12.201  14.105  10.783  0.1009  0.1894 -0.1139
  463loPI   PO4 7396  12.348  14.034  10.197  0.3935 -0.0461 -0.1379
  463loPI   GL1 7397  12.323  13.988   9.751  0.3230  0.0481 -0.1800
  463loPI   GL2 7398  11.937  14.100   9.926  0.0753  0.3356 -0.0802
  463loPI   C1A 7399  12.418  13.909   9.310 -0.0959 -0.1898  0.1542
  463loPI   C2A 7400  12.335  13.943   8.882  0.2219 -0.2153 -0.0821
  463loPI   C3A 7401  12.070  13.875   8.497 -0.0053 -0.1904  0.0399
  463loPI   C4A 7402  11.772  14.118   8.261 -0.1573 -0.1723 -0.1745
  463loPI   C5A 7403  11.256  13.970   8.257  0.0253 -0.0390 -0.1551
  463loPI   C6A 7404  10.837  13.793   8.065 -0.0062 -0.3394  0.0067
  463loPI   C1B 7405  12.013  14.321   9.544  0.1443  0.2326 -0.0336
  463loPI   C2B 7406  12.123  14.347   9.143 -0.3692  0.1438  0.1455
  463loPI   C3B 7407  12.124  14.385   8.672  0.0229  0.0436 -0.0134
  463loPI   C4B 7408  12.350  14.329   8.145  0.0554 -0.0598 -0.2999
  464loPI    C1 7409   8.843   5.090  10.542  0.0612 -0.0611  0.1747
  464loPI    C2 7410   8.947   4.763  10.748 -0.1372 -0.2859 -0.0739
  464loPI    C3 7411   8.564   4.826  10.653 -0.0632 -0.1272 -0.2753
  464loPI   PO4 7412   9.105   5.111  10.324  0.1177  0.1847 -0.1757
  464loPI   GL1 7413   9.344   5.043  10.009 -0.0951  0.1357  0.1347
  464loPI   GL2 7414   9.650   4.879   9.951 -0.1680  0.2230 -0.1466
  464loPI   C1A 7415   9.283   4.958   9.581 -0.3085 -0.2381 -0.0158
  464loPI   C2A 7416   9.305   5.046   9.111  0.0671 -0.0300 -0.1013
  464loPI   C3A 7417   9.425   5.013   8.714 -0.0459 -0.0490 -0.0385
  464loPI   C4A 7418   9.666   4.928   8.425 -0.1521 -0.1481 -0.1070
  464loPI   C5A 7419   9.722   4.737   7.988  0.3744 -0.1072  0.0485
  464loPI   C6A 7420   9.888   4.641   7.514  0.2390 -0.0420  0.0583
  464loPI   C1B 7421   9.813   4.891   9.524 -0.2865 -0.1486  0.0984
  464loPI   C2B 7422   9.769   4.912   9.101  0.1021  0.2337 -0.0161
  464loPI   C3B 7423  10.038   4.806   8.708 -0.1733 -0.0515  0.0222
  464loPI   C4B 7424  10.155   4.852   8.218  0.1156 -0.0111  0.1208
  465loPI    C1 7425  15.625  13.913  10.714 -0.0853  0.0582  0.0984
  465loPI    C2 7426  15.950  13.830  10.930 -0.0300 -0.0710 -0.0329
  465loPI    C3 7427  15.614  13.622  10.988 -0.1116  0.1087  0.1511
  465loPI   PO4 7428  15.630  13.888  10.462 -0.0463 -0.1530  0.1959
  465loPI   GL1 7429  15.320  14.016  10.092  0.1559  0.2626  0.1992
  465loPI   GL2 7430  15.136  14.036   9.929  0.0777 -0.0631 -0.0469
  465loPI   C1A 7431  15.464  13.737   9.761 -0.1703  0.1943 -0.0780
  465loPI   C2A 7432  15.557  13.544   9.413  0.2567 -0.2185 -0.1970
  465loPI   C3A 7433  15.464  13.661   9.001  0.0017 -0.1503 -0.1421
  465loPI   C4A 7434  15.416  13.402   8.594  0.1454 -0.1528 -0.0968
  465loPI   C5A 7435  15.344  13.560   8.311  0.1517  0.2414  0.0079
  465loPI   C6A 7436  15.211  13.546   7.875  0.0639 -0.1618  0.1079
  465loPI   C1B 7437  14.965  13.965   9.418  0.0560  0.0713  0.1542
  465loPI   C2B 7438  15.087  14.134   8.975 -0.1730  0.0491 -0.0779
  465loPI   C3B 7439  15.152  14.028   8.597 -0.0137 -0.2896 -0.0018
  465loPI   C4B 7440  15.314  14.039   8.124 -0.0307  0.0126  0.2093
  466loPI    C1 7441   5.284  14.315  10.504 -0.0597 -0.0821  0.1232
  466loPI    C2 7442   5.057  14.007  10.619  0.0064 -0.1577  0.0531
  466loPI    C3 7443   5.245  14.230  10.893  0.2215 -0.3809  0.0908
  466loPI   PO4 7444   5.444  14.242  10.339 -0.2747 -0.0341  0.1497
  466loPI   GL1 7445   5.454  14.118  10.014 -0.0008  0.0333 -0.1013
  466loPI   GL2 7446   5.694  13.874   9.865 -0.0249 -0.0742  0.1560
  466loPI   C1A 7447   5.483  14.311   9.581  0.0703 -0.0480  0.2157
  466loPI   C2A 7448   5.364  14.418   9.180  0.0442  0.0072  0.0327
  466loPI   C3A 7449   5.387  14.296   8.726  0.2195 -0.1018 -0.2924
  466loPI   C4A 7450   5.498  14.496   8.392 -0.1467  0.2221  0.1491
  466loPI   C5A 7451   5.770  14.759   8.325 -0.0222 -0.2196  0.3342
  466loPI   C6A 7452   5.973  15.107   8.181 -0.2306 -0.0659 -0.2047
  466loPI   C1B 7453   5.753  13.921   9.517 -0.0983  0.1444 -0.1659
  466loPI   C2B 7454   5.648  13.972   9.107 -0.0389  0.2017  0.0008
  466loPI   C3B 7455   5.793  13.963   8.690 -0.0760 -0.1874 -0.0135
  466loPI   C4B 7456   5.615  14.006   8.304 -0.0968  0.0865 -0.0534
  467loPI    C1 7457  18.295   2.912  10.265  0.1223  0.2712 -0.1383
  467loPI    C2 7458  17.931   2.926  10.429  0.1795 -0.2161  0.0478
  467loPI    C3 7459  18.236   3.115  10.604  0.1026 -0.1642  0.1269
  467loPI   PO4 7460  18.256   2.940  10.073 -0.3830 -0.5121  0.0683
  467loPI   GL1 7461  18.192   2.829   9.696  0.1365 -0.1480  0.0994
  467loPI   GL2 7462  18.321   2.559   9.770  0.1348 -0.2302 -0.3056
  467loPI   C1A 7463  18.489   2.858   9.398 -0.1388  0.0269 -0.0805
  467loPI   C2A 7464  18.644   2.956   9.001  0.2436  0.0447 -0.1443
  467loPI   C3A 7465  18.586   2.928   8.613  0.1638  0.1776 -0.1127
  467loPI   C4A 7466  18.450   3.317   8.330  0.0751 -0.0464  0.0704
  467loPI   C5A 7467  18.466   3.629   8.023 -0.2779 -0.2553  0.2203
  467loPI   C6A 7468  18.094   3.857   7.800 -0.1016 -0.1191  0.2783
  467loPI   C1B 7469  18.496   2.295   9.447 -0.1459  0.0711 -0.2409
  467loPI   C2B 7470  18.344   2.144   9.040  0.1825  0.0768 -0.1914
  467loPI   C3B 7471  18.488   2.055   8.678  0.0261 -0.0128 -0.4208
  467loPI   C4B 7472  18.595   1.939   8.251 -0.0059 -0.1980 -0.2782
  468loPI    C1 7473  11.343  14.465  10.501  0.4666 -0.0605  0.1692
  468loPI    C2 7474  11.240  14.205  10.787 -0.0583 -0.0386  0.0105
  468loPI    C3 7475  11.164  14.595  10.834  0.2383  0.0213  0.0165
  468loPI   PO4 7476  11.280  14.237  10.244 -0.0370 -0.0416 -0.0958
  468loPI   GL1 7477  11.438  14.005   9.998  0.0526 -0.0460 -0.0040
  468loPI   GL2 7478  11.567  13.766   9.777  0.1232  0.0397 -0.0235
  468loPI   C1A 7479  11.554  14.207   9.633 -0.0961  0.2396  0.0684
  468loPI   C2A 7480  11.609  14.351   9.246  0.2597 -0.3218  0.0406
  468loPI   C3A 7481  11.641  14.297   8.780 -0.0571 -0.1265  0.2464
  468loPI   C4A 7482  11.435  14.407   8.478  0.1769 -0.2462  0.0070
  468loPI   C5A 7483  11.294  14.751   8.209  0.1314  0.0082 -0.2289
  468loPI   C6A 7484  10.846  14.867   8.239 -0.1845 -0.1913  0.2386
  468loPI   C1B 7485  11.193  13.502   9.561 -0.1846 -0.0632  0.0469
  468loPI   C2B 7486  10.911  13.281   9.207  0.1182  0.0512 -0.0704
  468loPI   C3B 7487  10.544  12.912   9.064  0.1250  0.1638  0.1367
  468loPI   C4B 7488  10.619  12.760   8.640  0.2691 -0.1504 -0.5150
  469loPI    C1 7489   2.226   8.626   9.432 -0.0129  0.0141  0.0432
  469loPI    C2 7490   1.952   8.664   9.721  0.0366 -0.1542  0.1135
  469loPI    C3 7491   2.324   8.550   9.812  0.1160  0.0187  0.0115
  469loPI   PO4 7492   2.062   8.443   9.298 -0.1928 -0.1526 -0.0582
  469loPI   GL1 7493   1.836   8.263   8.949 -0.0208  0.2604  0.0970
  469loPI   GL2 7494   1.568   8.015   8.996  0.0854 -0.0338  0.2095
  469loPI   C1A 7495   2.097   8.450   8.626 -0.5346  0.0058  0.1356
  469loPI   C2A 7496   2.248   8.373   8.156  0.1077 -0.0951 -0.0415
  469loPI   C3A 7497   2.121   8.585   7.792 -0.0234  0.1290  0.2297
  469loPI   C4A 7498   2.316   8.783   7.546 -0.0369  0.1522 -0.1981
  469loPI   C5A 7499   2.680   9.049   7.424 -0.0769  0.0017 -0.1403
  469loPI   C6A 7500   2.852   9.418   7.603  0.1291 -0.0252  0.0872
  469loPI   C1B 7501   1.630   8.079   8.532  0.1229  0.0238  0.0135
  469loPI   C2B 7502   1.755   8.249   8.119  0.2188  0.2812  0.0775
  469loPI   C3B 7503   1.594   8.419   7.738 -0.4231  0.1528  0.0555
  469loPI   C4B 7504   1.802   8.782   7.458 -0.1406 -0.1226 -0.2995
  470loPI    C1 7505   3.141   9.779   9.978 -0.0750 -0.0480  0.1917
  470loPI    C2 7506   3.512   9.639   9.930 -0.0067  0.1924 -0.0021
  470loPI    C3 7507   3.344   9.639  10.293  0.0293 -0.2865  0.0218
  470loPI   PO4 7508   3.032   9.683   9.828  0.4562 -0.1132  0.0324
  470loPI   GL1 7509   3.032   9.683   9.392  0.2783  0.0254 -0.0089
  470loPI   GL2 7510   2.836   9.540   9.210  0.2546 -0.1046 -0.0019
  470loPI   C1A 7511   3.205   9.824   8.991 -0.2027  0.0166  0.0216
  470loPI   C2A 7512   3.498   9.950   8.613  0.1149 -0.2141 -0.0187
  470loPI   C3A 7513   3.480   9.860   8.194  0.2106 -0.0915  0.0252
  470loPI   C4A 7514   3.473  10.094   7.854 -0.0326 -0.0024  0.0272
  470loPI   C5A 7515   3.210  10.052   7.510 -0.2217 -0.0225 -0.0634
  470loPI   C6A 7516   2.801  10.096   7.276 -0.2529 -0.2336  0.2066
  470loPI   C1B 7517   2.714   9.632   8.800  0.0986  0.2409 -0.0780
  470loPI   C2B 7518   2.875   9.739   8.414 -0.0275  0.0069 -0.0027
  470loPI   C3B 7519   3.038   9.783   7.978  0.1956 -0.2469 -0.1108
  470loPI   C4B 7520   3.304   9.597   7.680 -0.1023 -0.2842  0.2964
  471loPI    C1 7521  17.402  16.536  10.612 -0.2374 -0.0202  0.0181
  471loPI    C2 7522  17.654  16.315  10.393 -0.2343  0.0176 -0.0168
  471loPI    C3 7523  17.628  16.256  10.787  0.0137  0.1840  0.0272
  471loPI   PO4 7524  17.379  16.730  10.451 -0.1400 -0.2712  0.3000
  471loPI   GL1 7525  17.205  16.627  10.008  0.2295 -0.0595  0.0908
  471loPI   GL2 7526  17.351  16.418  10.001 -0.0018 -0.1420 -0.1271
  471loPI   C1A 7527  17.185  16.578   9.527  0.4287 -0.0212  0.1629
  471loPI   C2A 7528  17.159  16.583   9.086  0.3176  0.1488  0.3533
  471loPI   C3A 7529  17.190  16.501   8.709 -0.1363  0.1807 -0.3692
  471loPI   C4A 7530  17.151  16.573   8.272 -0.1344 -0.2279  0.0861
  471loPI   C5A 7531  17.113  16.799   7.825  0.2013 -0.3828  0.1392
  471loPI   C6A 7532  17.194  16.572   7.437  0.2153  0.0911  0.2354
  471loPI   C1B 7533  17.478  16.065   9.821  0.0024  0.2292 -0.0198
  471loPI   C2B 7534  17.535  16.085   9.388 -0.2841  0.1061  0.1977
  471loPI   C3B 7535  17.524  16.153   8.893 -0.1309  0.1450  0.0551
  471loPI   C4B 7536  17.486  16.179   8.462  0.1017 -0.1957 -0.2050
  472loPI    C1 7537  12.814   8.208  10.451 -0.0714  0.1877  0.0047
  472loPI    C2 7538  13.163   8.378  10.549 -0.1436  0.2967  0.0752
  472loPI    C3 7539  12.855   8.392  10.804 -0.1227 -0.0232  0.1223
  472loPI   PO4 7540  12.963   8.019  10.283 -0.0855 -0.3341  0.0475
  472loPI   GL1 7541  13.009   7.772   9.940  0.0409 -0.1089 -0.1809
  472loPI   GL2 7542  12.826   7.505  10.022 -0.0764  0.3399  0.2128
  472loPI   C1A 7543  12.815   7.734   9.596  0.1791 -0.2484  0.2037
  472loPI   C2A 7544  12.887   7.562   9.241  0.1493 -0.0745  0.0231
  472loPI   C3A 7545  12.861   7.873   8.875 -0.2701  0.0251  0.0655
  472loPI   C4A 7546  12.952   8.026   8.489  0.1887 -0.1374  0.4091
  472loPI   C5A 7547  12.795   8.242   8.111  0.0013 -0.5038  0.1426
  472loPI   C6A 7548  12.922   8.567   8.029 -0.2522 -0.2693  0.0357
  472loPI   C1B 7549  12.730   7.246   9.774  0.0485 -0.0363 -0.0461
  472loPI   C2B 7550  12.597   7.066   9.356 -0.0128 -0.0083 -0.0890
  472loPI   C3B 7551  12.541   7.064   8.982 -0.1591 -0.1881 -0.0382
  472loPI   C4B 7552  12.476   7.081   8.569 -0.0115  0.0302 -0.0212
  473loPI    C1 7553  16.094   5.197  10.492 -0.0320 -0.0061  0.0286
  473loPI    C2 7554  15.891   4.871  10.607 -0.0089  0.0049  0.1005
  473loPI    C3 7555  16.288   4.887  10.654  0.0125 -0.0273 -0.0646
  473loPI   PO4 7556  16.063   5.230  10.197  0.1090 -0.0005  0.0330
  473loPI   GL1 7557  15.956   5.531   9.912  0.2259 -0.0450  0.1188
  473loPI   GL2 7558  15.739   5.210   9.708  0.2270  0.2097  0.0387
  473loPI   C1A 7559  15.984   5.555   9.474 -0.1044  0.4930  0.3276
  473loPI   C2A 7560  16.250   5.651   9.206  0.0448  0.0539 -0.0125
  473loPI   C3A 7561  16.191   5.644   8.806  0.0699  0.0268  0.0524
  473loPI   C4A 7562  16.225   5.730   8.357  0.0769 -0.2930  0.0607
  473loPI   C5A 7563  16.276   5.839   7.979 -0.2905 -0.0756 -0.3410
  473loPI   C6A 7564  16.298   5.886   7.488  0.1635 -0.0152 -0.0608
  473loPI   C1B 7565  15.730   5.117   9.338  0.2003 -0.0137  0.1240
  473loPI   C2B 7566  15.835   5.389   8.984 -0.0998  0.1757 -0.0289
  473loPI   C3B 7567  15.738   5.543   8.577 -0.4596 -0.0041 -0.0288
  473loPI   C4B 7568  15.773   5.652   8.103 -0.1267 -0.0356 -0.1187
  474loPI    C1 7569   3.528  15.593  10.598  0.2129  0.1479 -0.0820
  474loPI    C2 7570   3.287  15.415  10.863  0.1425  0.1519 -0.1430
  474loPI    C3 7571   3.621  15.232  10.742  0.1298  0.1119 -0.1178
  474loPI   PO4 7572   3.359  15.650  10.456 -0.1001  0.1554  0.0306
  474loPI   GL1 7573   3.455  15.681   9.984  0.1949 -0.0937 -0.3532
  474loPI   GL2 7574   3.251  15.848   9.746 -0.3958 -0.0877  0.1446
  474loPI   C1A 7575   3.548  15.433   9.601  0.1202  0.1889 -0.1251
  474loPI   C2A 7576   3.744  15.528   9.251 -0.1596 -0.0192  0.1768
  474loPI   C3A 7577   3.773  15.585   8.793 -0.0159  0.1061 -0.0232
  474loPI   C4A 7578   3.918  15.478   8.340 -0.3193 -0.0697  0.1218
  474loPI   C5A 7579   3.805  15.735   8.060  0.3876  0.4133  0.0992
  474loPI   C6A 7580   3.652  15.868   7.687 -0.1132 -0.2867 -0.0294
  474loPI   C1B 7581   3.302  15.785   9.281  0.1167  0.1083  0.2907
  474loPI   C2B 7582   3.385  15.904   8.829  0.1246  0.1547  0.4751
  474loPI   C3B 7583   3.631  15.986   8.468 -0.0132 -0.0258  0.0696
  474loPI   C4B 7584   4.145  15.882   8.432  0.0941 -0.0564 -0.1506
  475loPI    C1 7585  16.853  18.408  10.293  0.1560  0.0698  0.0862
  475loPI    C2 7586  16.470  18.439  10.180  0.1966 -0.0271 -0.0807
  475loPI    C3 7587  16.570  18.488  10.564  0.0364  0.1479 -0.0601
  475loPI   PO4 7588  16.954  18.458  10.131 -0.2765  0.2941 -0.0505
  475loPI   GL1 7589  17.064  18.394   9.763  0.1244  0.0904 -0.2235
  475loPI   GL2 7590  16.694  18.412   9.589  0.0699 -0.2190 -0.2612
  475loPI   C1A 7591  17.166  18.407   9.335  0.0214  0.0089 -0.0697
  475loPI   C2A 7592  17.136  18.396   8.920 -0.2129 -0.1548 -0.1162
  475loPI   C3A 7593  16.811  18.399   8.560  0.2429  0.5327 -0.0023
  475loPI   C4A 7594  16.696  18.550   8.169  0.5487 -0.1796 -0.0161
  475loPI   C5A 7595  16.743  18.857   7.911  0.1216 -0.0398  0.1109
  475loPI   C6A 7596  16.982  19.167   7.657  0.0061  0.0436  0.1921
  475loPI   C1B 7597  16.674  18.364   9.149  0.0562  0.0981  0.1413
  475loPI   C2B 7598  16.405  18.307   8.807 -0.1506  0.3400 -0.1340
  475loPI   C3B 7599  16.166  18.368   8.360  0.0317  0.3562  0.2332
  475loPI   C4B 7600  16.229  18.532   7.898  0.0718 -0.2657  0.1387
  476loPI    C1 7601  12.226  12.920  10.584 -0.2190 -0.1169  0.1684
  476loPI    C2 7602  12.350  12.767  10.235  0.2256  0.4353  0.0691
  476loPI    C3 7603  12.495  12.624  10.579  0.1217  0.1878  0.0123
  476loPI   PO4 7604  12.178  13.196  10.498 -0.1187 -0.0506  0.1190
  476loPI   GL1 7605  12.290  13.450  10.199  0.0216 -0.2478  0.0100
  476loPI   GL2 7606  12.451  13.267  10.003 -0.1154 -0.1208 -0.0694
  476loPI   C1A 7607  12.083  13.551   9.771  0.4946  0.0357  0.1170
  476loPI   C2A 7608  11.943  13.802   9.428 -0.1119  0.1516 -0.1307
  476loPI   C3A 7609  11.793  13.855   9.038 -0.0790 -0.2544  0.5992
  476loPI   C4A 7610  11.541  13.813   8.658  0.1409 -0.2180 -0.1662
  476loPI   C5A 7611  11.427  13.445   8.355  0.0083 -0.1495  0.0670
  476loPI   C6A 7612  11.008  13.296   8.119  0.0540 -0.1874 -0.2819
  476loPI   C1B 7613  12.631  13.382   9.566 -0.1927  0.1939  0.1543
  476loPI   C2B 7614  12.872  13.459   9.198  0.1501 -0.0491 -0.1855
  476loPI   C3B 7615  12.707  13.558   8.830  0.1614 -0.3282 -0.1679
  476loPI   C4B 7616  12.578  13.713   8.430 -0.0704  0.0582  0.1718
  477loPI    C1 7617   3.456   0.243  10.199 -0.2096 -0.1527 -0.1164
  477loPI    C2 7618   3.326  -0.113  10.327 -0.1691 -0.0173  0.3192
  477loPI    C3 7619   3.497   0.141  10.584  0.1498  0.1670 -0.0638
  477loPI   PO4 7620   3.206   0.395  10.078 -0.0927  0.0592  0.1755
  477loPI   GL1 7621   3.333   0.337   9.619  0.1204  0.1143  0.0242
  477loPI   GL2 7622   3.490   0.037   9.674 -0.0440  0.0514  0.0328
  477loPI   C1A 7623   3.524   0.386   9.165  0.2129  0.2384 -0.0886
  477loPI   C2A 7624   3.175   0.347   8.876 -0.3295 -0.2008  0.2869
  477loPI   C3A 7625   2.795   0.155   8.647  0.3181  0.0126 -0.0746
  477loPI   C4A 7626   2.531   0.028   8.246 -0.3129  0.1066  0.0300
  477loPI   C5A 7627   2.606   0.448   8.035 -0.1892 -0.0272 -0.0685
  477loPI   C6A 7628   2.705   0.728   7.606 -0.1266 -0.1212  0.0070
  477loPI   C1B 7629   3.531  -0.437   9.528  0.1112 -0.1126 -0.1345
  477loPI   C2B 7630   3.475  -0.614   9.207  0.0785 -0.5593  0.1808
  477loPI   C3B 7631   3.563  -0.540   8.850  0.2216 -0.1579 -0.0682
  477loPI   C4B 7632   3.703  -0.477   8.462  0.0413  0.0344  0.0815
  478loPI    C1 7633   6.227  17.599  10.606 -0.1352  0.0219 -0.0475
  478loPI    C2 7634   6.239  17.736  10.982  0.0322 -0.0651 -0.0202
  478loPI    C3 7635   6.187  17.345  10.913 -0.2135 -0.0213 -0.0932
  478loPI   PO4 7636   6.177  17.837  10.510  0.1043  0.0771 -0.2411
  478loPI   GL1 7637   6.202  17.945  10.033 -0.3287 -0.0162  0.1222
  478loPI   GL2 7638   6.324  18.228  10.020  0.1752  0.1666 -0.1909
  478loPI   C1A 7639   6.005  17.815   9.720  0.2194  0.1864  0.0177
  478loPI   C2A 7640   6.097  17.890   9.258 -0.1520  0.0954  0.0665
  478loPI   C3A 7641   6.126  17.893   8.779  0.0724  0.1177  0.2258
  478loPI   C4A 7642   6.132  17.846   8.337  0.1175  0.0229 -0.3194
  478loPI   C5A 7643   6.257  17.906   7.898 -0.1088  0.0978  0.2583
  478loPI   C6A 7644   6.576  18.157   7.739 -0.1661 -0.1506  0.3025
  478loPI   C1B 7645   6.420  18.165   9.594 -0.0892 -0.0687  0.2915
  478loPI   C2B 7646   6.523  18.178   9.150  0.0304  0.1770  0.0956
  478loPI   C3B 7647   6.533  18.292   8.679  0.0874  0.1146  0.0400
  478loPI   C4B 7648   6.554  18.157   8.240 -0.0909 -0.3570 -0.0510
  479loPI    C1 7649  16.083   0.458  10.500  0.2826  0.0956 -0.0563
  479loPI    C2 7650  15.829   0.695  10.301 -0.1702 -0.2053  0.1462
  479loPI    C3 7651  16.015   0.831  10.628 -0.0997  0.0041  0.0205
  479loPI   PO4 7652  16.176   0.354  10.271 -0.2078 -0.1773  0.1099
  479loPI   GL1 7653  15.944   0.365   9.938  0.2758 -0.1435  0.2848
  479loPI   GL2 7654  15.761   0.367   9.970  0.2269 -0.0224 -0.0619
  479loPI   C1A 7655  15.869   0.096   9.581 -0.2532 -0.0390  0.0698
  479loPI   C2A 7656  16.016  -0.133   9.200 -0.2791 -0.1100 -0.0189
  479loPI   C3A 7657  15.835  -0.248   8.771  0.0072 -0.1935  0.1164
  479loPI   C4A 7658  15.540  -0.027   8.448  0.0038  0.2402 -0.1052
  479loPI   C5A 7659  15.218   0.131   8.356 -0.2304 -0.1186  0.1304
  479loPI   C6A 7660  15.021   0.570   8.336 -0.0286  0.2242 -0.3664
  479loPI   C1B 7661  15.428   0.325   9.613  0.0711  0.0483  0.1972
  479loPI   C2B 7662  15.469  -0.023   9.339 -0.1610 -0.1329  0.2761
  479loPI   C3B 7663  15.446  -0.337   9.032  0.2197  0.1918  0.1393
  479loPI   C4B 7664  15.345  -0.491   8.587 -0.0953 -0.3024  0.2815
  480loPI    C1 7665  10.599  13.849  10.758 -0.0218 -0.2129  0.0073
  480loPI    C2 7666  10.937  13.931  10.559  0.0266 -0.1175  0.1278
  480loPI    C3 7667  10.952  13.743  10.912 -0.0504 -0.1661  0.1057
  480loPI   PO4 7668  10.420  14.087  10.585 -0.1093 -0.4699  0.1530
  480loPI   GL1 7669  10.466  14.247  10.097 -0.1325 -0.2509  0.1135
  480loPI   GL2 7670  10.238  14.381  10.052  0.3200  0.3603  0.1015
  480loPI   C1A 7671  10.516  14.220   9.654 -0.1967 -0.0102  0.0070
  480loPI   C2A 7672  10.558  14.178   9.210  0.3272  0.0950 -0.1539
  480loPI   C3A 7673  10.618  14.369   8.831 -0.0177 -0.1806  0.1792
  480loPI   C4A 7674  10.710  14.317   8.348 -0.3466  0.0709 -0.1505
  480loPI   C5A 7675  10.747  14.292   7.915 -0.1231 -0.3118 -0.2391
  480loPI   C6A 7676  10.839  14.195   7.488  0.1830 -0.1599  0.1644
  480loPI   C1B 7677  10.083  14.389   9.620 -0.0139 -0.0322  0.2724
  480loPI   C2B 7678  10.112  14.441   9.189 -0.0043 -0.3263  0.1159
  480loPI   C3B 7679   9.966  14.303   8.791  0.1631  0.2077 -0.2900
  480loPI   C4B 7680  10.235  14.330   8.468  0.0274  0.1736 -0.0715
  481loPI    C1 7681  15.405   2.526  10.601 -0.0357 -0.3846 -0.0148
  481loPI    C2 7682  15.708   2.762  10.712 -0.1647 -0.1814 -0.0891
  481loPI    C3 7683  15.770   2.371  10.652  0.0692 -0.1519 -0.0486
  481loPI   PO4 7684  15.277   2.622  10.379 -0.0769 -0.2225 -0.2062
  481loPI   GL1 7685  15.261   2.756   9.988  0.1199  0.2026 -0.2869
  481loPI   GL2 7686  14.925   2.735   9.826 -0.1619 -0.0930  0.0740
  481loPI   C1A 7687  15.324   2.627   9.594 -0.1606  0.1344 -0.1475
  481loPI   C2A 7688  15.291   2.546   9.150  0.1380  0.0887  0.1253
  481loPI   C3A 7689  15.022   2.580   8.730  0.0181 -0.0523 -0.0874
  481loPI   C4A 7690  14.871   2.677   8.282  0.0810 -0.0811 -0.2323
  481loPI   C5A 7691  15.113   2.694   7.887 -0.0536  0.0786  0.0889
  481loPI   C6A 7692  15.216   2.957   7.632 -0.1157 -0.3039 -0.5072
  481loPI   C1B 7693  14.846   2.782   9.347  0.1351 -0.4553 -0.0404
  481loPI   C2B 7694  14.677   2.760   8.987  0.0292 -0.1222  0.1140
  481loPI   C3B 7695  14.383   2.492   8.667 -0.1786  0.2020 -0.0968
  481loPI   C4B 7696  14.413   2.258   8.283 -0.0577 -0.0516  0.2546
  482loPI    C1 7697   1.770   0.842  10.519 -0.0262  0.1110 -0.0177
  482loPI    C2 7698   1.768   0.528  10.768  0.0672 -0.0115 -0.1692
  482loPI    C3 7699   1.840   0.896  10.909 -0.1284 -0.0455  0.0229
  482loPI   PO4 7700   1.939   0.764  10.302  0.2032 -0.2287 -0.2287
  482loPI   GL1 7701   2.025   0.736   9.901  0.3253  0.0000 -0.0708
  482loPI   GL2 7702   2.059   0.388   9.944  0.1073  0.2462  0.1354
  482loPI   C1A 7703   2.052   0.575   9.481  0.1677  0.0802  0.1568
  482loPI   C2A 7704   2.135   0.523   9.094  0.0753  0.2041  0.0914
  482loPI   C3A 7705   1.878   0.498   8.674 -0.0841  0.1184 -0.1981
  482loPI   C4A 7706   1.697   0.328   8.292  0.0705 -0.2145 -0.0944
  482loPI   C5A 7707   1.747   0.591   7.884 -0.1132  0.2256  0.0353
  482loPI   C6A 7708   1.523   0.694   7.530  0.0090 -0.2505 -0.2818
  482loPI   C1B 7709   2.343   0.194   9.641  0.2108 -0.2832 -0.1147
  482loPI   C2B 7710   2.424   0.146   9.212  0.0156 -0.0402 -0.1971
  482loPI   C3B 7711   2.324   0.124   8.824 -0.0147 -0.2005  0.2899
  482loPI   C4B 7712   2.043   0.006   8.405  0.4064  0.0365 -0.3324
  483loPI    C1 7713   1.482   0.327  10.406  0.1468  0.2012  0.1619
  483loPI    C2 7714   1.542   0.006  10.637  0.1312  0.0989  0.0249
  483loPI    C3 7715   1.239   0.255  10.715  0.1894  0.1226  0.1773
  483loPI   PO4 7716   1.658   0.326  10.198  0.0575 -0.0631  0.0588
  483loPI   GL1 7717   1.446   0.291   9.769  0.0077 -0.3323  0.2514
  483loPI   GL2 7718   1.574   0.591   9.651  0.1842  0.1653  0.0181
  483loPI   C1A 7719   1.224   0.104   9.421 -0.1855  0.0075  0.0620
  483loPI   C2A 7720   1.055   0.197   9.023 -0.3160  0.0513  0.2161
  483loPI   C3A 7721   0.765   0.351   8.724  0.0234 -0.0847 -0.1048
  483loPI   C4A 7722   0.562   0.511   8.310  0.1248  0.1324  0.0294
  483loPI   C5A 7723   0.486   0.562   7.888 -0.0861  0.1036  0.1259
  483loPI   C6A 7724   0.449   0.571   7.470 -0.0269 -0.0248  0.2890
  483loPI   C1B 7725   1.325   0.570   9.289  0.0529 -0.1963 -0.2480
  483loPI   C2B 7726   1.302   0.621   8.845 -0.1573  0.0274 -0.4544
  483loPI   C3B 7727   1.356   0.656   8.510 -0.1637 -0.0598  0.2126
  483loPI   C4B 7728   1.314   0.712   8.110  0.3343 -0.1246  0.0271
  484loPI    C1 7729   7.970   1.209  10.243 -0.1393 -0.1534 -0.0017
  484loPI    C2 7730   7.575   1.271  10.240 -0.1009  0.0986 -0.0744
  484loPI    C3 7731   7.804   1.456  10.511 -0.0271 -0.0139 -0.0594
  484loPI   PO4 7732   7.955   0.913  10.277  0.0674  0.1806  0.3233
  484loPI   GL1 7733   7.778   0.752   9.836  0.2659 -0.1079 -0.0839
  484loPI   GL2 7734   7.578   0.977   9.807 -0.0622 -0.0395  0.1812
  484loPI   C1A 7735   7.971   0.682   9.471  0.0666 -0.2253 -0.1149
  484loPI   C2A 7736   8.135   0.488   9.083 -0.1115  0.0387 -0.1061
  484loPI   C3A 7737   8.195   0.489   8.675 -0.1858 -0.1747  0.0174
  484loPI   C4A 7738   8.171   0.441   8.273  0.0421  0.2249 -0.2297
  484loPI   C5A 7739   8.134   0.512   7.816 -0.0337  0.1569 -0.2373
  484loPI   C6A 7740   8.316   0.780   7.554 -0.1467 -0.0281  0.0254
  484loPI   C1B 7741   7.519   1.096   9.425 -0.1683 -0.1966  0.1470
  484loPI   C2B 7742   7.453   1.126   8.950  0.0489  0.2551 -0.2549
  484loPI   C3B 7743   7.361   1.147   8.526 -0.4166  0.0919  0.4267
  484loPI   C4B 7744   7.565   1.083   8.118  0.0489  0.0412  0.0722
  485loPI    C1 7745  13.321   3.231  10.189  0.1916 -0.0118 -0.0989
  485loPI    C2 7746  13.427   3.066   9.840  0.0398 -0.0968 -0.1057
  485loPI    C3 7747  13.538   2.894  10.184  0.4006  0.1212 -0.1080
  485loPI   PO4 7748  13.115   3.420  10.046 -0.0902  0.0009 -0.3160
  485loPI   GL1 7749  13.120   3.481   9.637 -0.0926 -0.1039 -0.3122
  485loPI   GL2 7750  13.315   3.730   9.506  0.4217 -0.1107  0.0908
  485loPI   C1A 7751  12.863   3.278   9.251 -0.0762  0.2326  0.2131
  485loPI   C2A 7752  12.928   3.277   8.852  0.3352  0.1322 -0.0478
  485loPI   C3A 7753  12.840   3.357   8.486 -0.2419  0.0636  0.4964
  485loPI   C4A 7754  12.814   3.329   8.034  0.0156  0.1381  0.0817
  485loPI   C5A 7755  12.901   3.448   7.736 -0.3455  0.0962 -0.2511
  485loPI   C6A 7756  12.748   3.278   7.364  0.0449  0.0168  0.1057
  485loPI   C1B 7757  13.268   3.967   9.029 -0.2787  0.3347 -0.0673
  485loPI   C2B 7758  13.375   4.164   8.587  0.0952 -0.1086 -0.3876
  485loPI   C3B 7759  13.730   4.474   8.366  0.0829 -0.1707 -0.1690
  485loPI   C4B 7760  13.771   4.751   8.059 -0.0900 -0.0875  0.2255
  486loPI    C1 7761   9.007   6.031  10.567 -0.1939 -0.0970  0.1269
  486loPI    C2 7762   8.767   6.342  10.643 -0.1864 -0.0304 -0.1143
  486loPI    C3 7763   9.034   6.224  10.916 -0.2998  0.0725  0.0428
  486loPI   PO4 7764   9.087   6.044  10.328  0.2066 -0.1279 -0.0174
  486loPI   GL1 7765   8.969   6.215  10.016 -0.0967 -0.2148 -0.0094
  486loPI   GL2 7766   9.243   6.129   9.842  0.3559 -0.3728 -0.2483
  486loPI   C1A 7767   8.892   6.421   9.651  0.1519 -0.0233  0.2656
  486loPI   C2A 7768   8.838   6.536   9.263 -0.1129 -0.1103 -0.3111
  486loPI   C3A 7769   8.838   6.517   8.818 -0.2184 -0.0503  0.0941
  486loPI   C4A 7770   8.788   6.627   8.377  0.2502 -0.0029 -0.0682
  486loPI   C5A 7771   8.874   6.759   7.933 -0.2430  0.0335  0.1184
  486loPI   C6A 7772   9.183   6.937   7.720  0.0186 -0.0909 -0.0082
  486loPI   C1B 7773   9.450   5.911   9.474  0.0717 -0.1757 -0.1001
  486loPI   C2B 7774   9.494   5.910   8.941 -0.0556 -0.0149  0.0983
  486loPI   C3B 7775   9.611   5.881   8.546 -0.3996  0.3802 -0.1585
  486loPI   C4B 7776   9.560   5.799   8.054  0.0039  0.1838  0.0510
  487loPI    C1 7777  16.757  17.928  10.663 -0.1470  0.0752  0.0685
  487loPI    C2 7778  16.868  18.251  10.872  0.0705  0.0718 -0.0397
  487loPI    C3 7779  16.766  17.915  11.063 -0.1720  0.2071  0.0739
  487loPI   PO4 7780  16.562  17.993  10.465 -0.3550 -0.2304  0.0844
  487loPI   GL1 7781  16.455  17.976   9.998 -0.2542 -0.1924 -0.0256
  487loPI   GL2 7782  16.719  18.036   9.990  0.0127  0.1941  0.2482
  487loPI   C1A 7783  16.385  17.975   9.524  0.3773  0.0462  0.0989
  487loPI   C2A 7784  16.298  17.922   9.107  0.0912 -0.2401 -0.0794
  487loPI   C3A 7785  16.281  17.872   8.665 -0.3504 -0.2957 -0.1445
  487loPI   C4A 7786  16.209  17.768   8.275 -0.0133 -0.0276  0.1134
  487loPI   C5A 7787  15.913  17.611   8.049  0.1941  0.1723  0.0435
  487loPI   C6A 7788  15.538  17.406   8.039  0.1406  0.1315 -0.3323
  487loPI   C1B 7789  16.921  17.956   9.554  0.0675  0.5870  0.3523
  487loPI   C2B 7790  16.785  17.870   9.085  0.0396 -0.3322  0.0979
  487loPI   C3B 7791  16.831  17.849   8.701  0.1625 -0.2786 -0.0049
  487loPI   C4B 7792  16.569  18.081   8.321  0.1709  0.1060  0.0105
  488loPI    C1 7793   7.187   4.533  10.431  0.1132  0.0288  0.0384
  488loPI    C2 7794   6.902   4.575  10.709  0.2798 -0.0923  0.2310
  488loPI    C3 7795   7.267   4.448  10.814  0.3883  0.0024 -0.0223
  488loPI   PO4 7796   7.119   4.539  10.199 -0.1662  0.0846  0.1173
  488loPI   GL1 7797   7.158   4.430   9.894 -0.3737 -0.1254 -0.1204
  488loPI   GL2 7798   7.176   4.704   9.699  0.0312 -0.1056 -0.2088
  488loPI   C1A 7799   7.057   4.212   9.530  0.1446 -0.0787 -0.1961
  488loPI   C2A 7800   7.046   4.220   9.158 -0.2143  0.0232 -0.0072
  488loPI   C3A 7801   6.855   4.174   8.764 -0.2608  0.0251  0.2203
  488loPI   C4A 7802   6.821   3.973   8.329 -0.2736 -0.3792 -0.1541
  488loPI   C5A 7803   6.758   4.197   7.989 -0.1165  0.3424 -0.2095
  488loPI   C6A 7804   6.828   4.663   7.934  0.1978 -0.1838 -0.0468
  488loPI   C1B 7805   7.088   4.718   9.254  0.1032  0.1600  0.0079
  488loPI   C2B 7806   7.069   4.644   8.764 -0.0449  0.1141 -0.0534
  488loPI   C3B 7807   7.130   4.520   8.361 -0.1734  0.0845  0.1212
  488loPI   C4B 7808   7.329   4.250   8.109  0.3682 -0.1327 -0.2220
  489loPI    C1 7809  14.703   1.339  10.688 -0.2434 -0.2177  0.0196
  489loPI    C2 7810  14.598   1.723  10.654 -0.0458 -0.1801 -0.1934
  489loPI    C3 7811  14.621   1.554  11.016 -0.1199  0.0118 -0.0973
  489loPI   PO4 7812  14.488   1.196  10.580  0.0835  0.2561 -0.0916
  489loPI   GL1 7813  14.513   1.047  10.109 -0.2056  0.0395  0.2023
  489loPI   GL2 7814  14.409   1.271   9.786 -0.2038  0.0244  0.1059
  489loPI   C1A 7815  14.894   1.184   9.963 -0.0634 -0.1880 -0.1046
  489loPI   C2A 7816  15.136   1.326   9.685 -0.0739 -0.2679 -0.0687
  489loPI   C3A 7817  15.226   1.370   9.207 -0.1481 -0.0648  0.1320
  489loPI   C4A 7818  15.391   1.547   8.865 -0.0330  0.0826  0.1449
  489loPI   C5A 7819  15.174   1.615   8.484 -0.1854  0.0329  0.1498
  489loPI   C6A 7820  15.199   1.799   8.033  0.2562  0.2797 -0.1248
  489loPI   C1B 7821  14.618   1.161   9.456 -0.0030 -0.1306  0.3820
  489loPI   C2B 7822  14.865   1.063   9.217  0.2498  0.0282 -0.1244
  489loPI   C3B 7823  15.089   1.118   8.784 -0.3713  0.1734 -0.0067
  489loPI   C4B 7824  15.246   1.026   8.390  0.0373  0.1121 -0.3141
  490loPI    C1 7825   5.800   0.111  10.917  0.0861 -0.1503 -0.0385
  490loPI    C2 7826   5.823   0.458  11.115  0.2001 -0.1800  0.0006
  490loPI    C3 7827   5.498   0.228  11.152  0.1768 -0.1361  0.0719
  490loPI   PO4 7828   5.817   0.206  10.664 -0.3201 -0.1723 -0.0857
  490loPI   GL1 7829   5.684   0.247  10.263  0.1706 -0.2049 -0.1301
  490loPI   GL2 7830   5.963   0.298  10.187 -0.3457 -0.1647  0.0847
  490loPI   C1A 7831   5.673   0.514   9.855 -0.1875 -0.0069 -0.0119
  490loPI   C2A 7832   5.972   0.515   9.529 -0.2502 -0.0163  0.2051
  490loPI   C3A 7833   6.012   0.428   9.113  0.0746  0.2334  0.2648
  490loPI   C4A 7834   6.254   0.293   8.772  0.1689 -0.2850  0.0812
  490loPI   C5A 7835   6.414   0.242   8.354 -0.4208 -0.0892 -0.0343
  490loPI   C6A 7836   6.687   0.169   7.972  0.2815  0.3934  0.3978
  490loPI   C1B 7837   5.953   0.072   9.811  0.1821 -0.0646 -0.0612
  490loPI   C2B 7838   6.041   0.045   9.405 -0.2369 -0.2141 -0.4066
  490loPI   C3B 7839   6.107  -0.095   8.995 -0.0331  0.0412  0.2261
  490loPI   C4B 7840   6.048  -0.126   8.486  0.0015  0.1972  0.3300
  491loPI    C1 7841   4.992   3.982  10.200 -0.2792  0.1577 -0.0930
  491loPI    C2 7842   4.809   3.746  10.465  0.1552 -0.1408 -0.0484
  491loPI    C3 7843   4.930   4.111  10.573  0.1486 -0.1834  0.1058
  491loPI   PO4 7844   5.097   3.779  10.054  0.4100 -0.1553  0.0102
  491loPI   GL1 7845   5.263   3.762   9.711  0.0053  0.2950 -0.2254
  491loPI   GL2 7846   5.498   3.883   9.799 -0.1486  0.0039 -0.1364
  491loPI   C1A 7847   5.313   3.870   9.321 -0.1153  0.2922  0.0175
  491loPI   C2A 7848   5.321   4.018   8.810  0.1248  0.0372  0.2134
  491loPI   C3A 7849   5.640   3.982   8.507  0.0272 -0.0144  0.0975
  491loPI   C4A 7850   5.823   3.850   8.111 -0.0286  0.2477 -0.1376
  491loPI   C5A 7851   5.994   4.159   7.872  0.2402 -0.3113 -0.2784
  491loPI   C6A 7852   5.679   4.391   7.634  0.1474 -0.0303  0.4660
  491loPI   C1B 7853   5.776   3.758   9.470 -0.0647  0.0173  0.3152
  491loPI   C2B 7854   6.013   3.543   9.155 -0.1992  0.1181 -0.1468
  491loPI   C3B 7855   6.339   3.322   8.947 -0.0346 -0.2670 -0.3015
  491loPI   C4B 7856   6.420   3.375   8.452  0.1052  0.1343  0.4494
  492loPI    C1 7857   8.858   1.206  10.597 -0.1122  0.2905  0.0044
  492loPI    C2 7858   8.628   1.002  10.853 -0.1634  0.0122 -0.2574
  492loPI    C3 7859   9.020   1.042  10.924 -0.1526 -0.1802 -0.2037
  492loPI   PO4 7860   8.742   1.069  10.391  0.2035  0.0738 -0.1263
  492loPI   GL1 7861   8.384   1.061  10.060  0.2107 -0.2673  0.1912
  492loPI   GL2 7862   8.654   1.167   9.902  0.0687 -0.1731 -0.0170
  492loPI   C1A 7863   8.067   1.141   9.677  0.0964  0.0134  0.1686
  492loPI   C2A 7864   7.999   1.062   9.135 -0.0145 -0.1056 -0.0119
  492loPI   C3A 7865   7.989   0.948   8.778 -0.3189  0.2976 -0.1610
  492loPI   C4A 7866   8.029   1.138   8.391  0.1799  0.1666 -0.0107
  492loPI   C5A 7867   8.027   1.027   7.917  0.0283  0.0737 -0.0505
  492loPI   C6A 7868   8.276   1.333   7.599 -0.2960  0.0770 -0.1624
  492loPI   C1B 7869   8.778   1.302   9.598 -0.1858 -0.1054 -0.3726
  492loPI   C2B 7870   8.776   1.296   9.169 -0.0075  0.3560  0.0183
  492loPI   C3B 7871   8.762   1.338   8.757  0.0626  0.1664  0.0890
  492loPI   C4B 7872   8.850   1.383   8.330 -0.1244  0.2758 -0.0432
  493loPI    C1 7873  11.375  15.405  10.813  0.1581  0.0601 -0.2126
  493loPI    C2 7874  11.667  15.664  10.730  0.3610 -0.0805  0.0488
  493loPI    C3 7875  11.436  15.719  11.052  0.0501  0.0680 -0.1945
  493loPI   PO4 7876  11.344  15.257  10.587 -0.1222 -0.1819 -0.2253
  493loPI   GL1 7877  11.184  15.219  10.219  0.1528  0.1994 -0.2244
  493loPI   GL2 7878  11.228  15.530  10.190 -0.0684 -0.6787  0.1324
  493loPI   C1A 7879  11.058  15.127   9.804 -0.1720 -0.0388 -0.0672
  493loPI   C2A 7880  11.008  15.232   9.417 -0.5103 -0.0626 -0.0966
  493loPI   C3A 7881  11.060  15.316   9.038 -0.1285 -0.1825 -0.1485
  493loPI   C4A 7882  11.118  15.142   8.620  0.0941 -0.0863 -0.0364
  493loPI   C5A 7883  11.291  15.249   8.154 -0.1674  0.1199  0.0671
  493loPI   C6A 7884  11.438  15.086   7.688 -0.2002  0.1966  0.1545
  493loPI   C1B 7885  11.380  15.529   9.702  0.2288  0.0480  0.1443
  493loPI   C2B 7886  11.500  15.136   9.356  0.1606  0.1430  0.2389
  493loPI   C3B 7887  11.285  14.861   9.159  0.2076 -0.1419 -0.0632
  493loPI   C4B 7888  11.059  14.442   9.280 -0.1200  0.1662 -0.0105
  494loPI    C1 7889  13.469  18.018  10.488 -0.0706  0.1359  0.0349
  494loPI    C2 7890  13.125  17.830  10.568 -0.1023  0.2162  0.0895
  494loPI    C3 7891  13.395  17.882  10.857  0.0164  0.0310  0.0142
  494loPI   PO4 7892  13.395  18.255  10.493  0.0194  0.3269 -0.2747
  494loPI   GL1 7893  13.379  18.532  10.043 -0.1076 -0.0223 -0.2156
  494loPI   GL2 7894  13.661  18.663  10.214 -0.1526 -0.0355  0.3039
  494loPI   C1A 7895  13.444  18.271   9.664 -0.1459 -0.1101 -0.0456
  494loPI   C2A 7896  13.636  18.282   9.311 -0.0884  0.0178 -0.1235
  494loPI   C3A 7897  13.675  18.417   8.916 -0.0339  0.0413  0.3263
  494loPI   C4A 7898  13.593  18.397   8.521 -0.0452 -0.1509 -0.5374
  494loPI   C5A 7899  13.483  18.363   8.168 -0.0136  0.1368  0.0253
  494loPI   C6A 7900  13.337  18.233   7.804  0.1771  0.0988  0.0071
  494loPI   C1B 7901  13.724  18.735   9.706  0.2149 -0.0643  0.5404
  494loPI   C2B 7902  13.963  18.909   9.427  0.1707  0.1295  0.1287
  494loPI   C3B 7903  14.227  18.720   9.112 -0.0922  0.3480  0.1062
  494loPI   C4B 7904  14.592  18.796   8.724  0.1712  0.2804  0.1794
  495loPI    C1 7905   2.907  14.151  10.314 -0.1352  0.1074  0.0508
  495loPI    C2 7906   2.916  14.123  10.712 -0.1250 -0.2176  0.0304
  495loPI    C3 7907   3.256  14.168  10.508 -0.1439  0.1137  0.0661
  495loPI   PO4 7908   2.749  13.963  10.210  0.2612  0.2870 -0.1159
  495loPI   GL1 7909   2.571  13.849   9.719  0.0655 -0.3023  0.1650
  495loPI   GL2 7910   2.826  13.701   9.768 -0.1139 -0.1131 -0.1357
  495loPI   C1A 7911   2.647  14.221   9.581  0.0744  0.1646  0.1551
  495loPI   C2A 7912   2.840  14.292   9.207 -0.0844  0.1670  0.1973
  495loPI   C3A 7913   3.039  14.287   8.779  0.0446 -0.1073 -0.4062
  495loPI   C4A 7914   3.139  14.492   8.339 -0.0386  0.1898  0.0462
  495loPI   C5A 7915   3.271  14.659   7.999 -0.2730  0.3463  0.0116
  495loPI   C6A 7916   3.183  14.957   7.800 -0.0271  0.0371  0.2069
  495loPI   C1B 7917   2.758  13.668   9.316  0.0180  0.0917 -0.1502
  495loPI   C2B 7918   2.865  13.801   8.985  0.2308 -0.2633  0.3458
  495loPI   C3B 7919   2.943  13.842   8.575 -0.2217  0.0534  0.0751
  495loPI   C4B 7920   2.956  14.014   8.197 -0.1344 -0.0020  0.0772
  496loPI    C1 7921   8.470   5.491  10.378  0.0226 -0.1909  0.0310
  496loPI    C2 7922   8.219   5.239  10.561 -0.0616 -0.1913 -0.0843
  496loPI    C3 7923   8.469   5.464  10.777 -0.2601 -0.0876  0.0397
  496loPI   PO4 7924   8.612   5.348  10.157  0.0275 -0.1812 -0.2252
  496loPI   GL1 7925   8.690   5.418   9.712 -0.0940  0.0879  0.0372
  496loPI   GL2 7926   8.426   5.273   9.692 -0.1398  0.0110  0.0959
  496loPI   C1A 7927   8.667   5.575   9.237  0.0133  0.0917 -0.0313
  496loPI   C2A 7928   8.647   5.695   8.782 -0.0996  0.0276 -0.0374
  496loPI   C3A 7929   8.725   5.638   8.429 -0.1239  0.0059 -0.0996
  496loPI   C4A 7930   8.697   5.717   8.016 -0.1021 -0.0534  0.1457
  496loPI   C5A 7931   8.445   5.565   7.728 -0.2613 -0.0013 -0.3808
  496loPI   C6A 7932   8.398   5.190   7.854  0.1258  0.0133  0.2760
  496loPI   C1B 7933   8.425   5.012   9.399  0.1300  0.3375  0.1195
  496loPI   C2B 7934   8.373   4.821   9.011 -0.0652  0.1412 -0.0953
  496loPI   C3B 7935   8.559   4.800   8.615  0.0874 -0.1768  0.1077
  496loPI   C4B 7936   8.601   4.891   8.150  0.0600  0.0364 -0.1486
  497loPI    C1 7937  15.750  15.603  10.528  0.1854  0.2425  0.1174
  497loPI    C2 7938  15.661  15.469  10.894  0.0397 -0.0394 -0.0177
  497loPI    C3 7939  15.741  15.857  10.837  0.3360 -0.0391  0.3582
  497loPI   PO4 7940  15.970  15.465  10.407  0.0773 -0.1280 -0.1322
  497loPI   GL1 7941  15.993  15.416   9.952 -0.0350  0.1812 -0.1660
  497loPI   GL2 7942  15.787  15.751   9.997  0.1672 -0.0362 -0.0118
  497loPI   C1A 7943  16.094  15.198   9.637  0.0094  0.0757  0.3650
  497loPI   C2A 7944  16.080  15.085   9.124 -0.0293  0.1044 -0.0001
  497loPI   C3A 7945  16.011  14.978   8.679  0.2942  0.0544  0.2769
  497loPI   C4A 7946  16.020  15.049   8.209 -0.1618 -0.0119 -0.1276
  497loPI   C5A 7947  15.690  14.906   7.868 -0.2506  0.0095  0.2617
  497loPI   C6A 7948  15.240  14.912   7.657  0.2233  0.1745  0.2443
  497loPI   C1B 7949  15.675  15.652   9.604 -0.0341  0.1143  0.1194
  497loPI   C2B 7950  15.740  15.445   9.245  0.1191  0.0143 -0.0263
  497loPI   C3B 7951  15.745  15.382   8.887  0.1212  0.0186 -0.1481
  497loPI   C4B 7952  15.636  15.310   8.473  0.1413 -0.0325  0.0210
  498loPI    C1 7953  10.873  18.070  10.890 -0.2013  0.0249 -0.0489
  498loPI    C2 7954  10.715  17.864  11.195 -0.0351 -0.2567 -0.1494
  498loPI    C3 7955  11.105  17.954  11.196 -0.1680  0.3602  0.0566
  498loPI   PO4 7956  10.763  17.951  10.610  0.0124  0.3651  0.0985
  498loPI   GL1 7957  10.565  18.148  10.265 -0.0035  0.0404 -0.0125
  498loPI   GL2 7958  10.613  18.511  10.155  0.2507 -0.1222  0.0348
  498loPI   C1A 7959  10.560  18.010   9.894 -0.0574  0.2234  0.1148
  498loPI   C2A 7960  10.375  17.964   9.420  0.3023  0.1560 -0.1661
  498loPI   C3A 7961  10.183  17.905   8.983  0.0656  0.1469 -0.1071
  498loPI   C4A 7962  10.167  17.777   8.547 -0.0353  0.3064  0.3655
  498loPI   C5A 7963  10.115  17.731   8.062  0.0897 -0.0456  0.0778
  498loPI   C6A 7964  10.285  17.845   7.683 -0.2166 -0.0302  0.1094
  498loPI   C1B 7965  10.646  18.497   9.769  0.0942 -0.1643 -0.1246
  498loPI   C2B 7966  10.649  18.535   9.333  0.2076  0.2426  0.1236
  498loPI   C3B 7967  10.615  18.238   9.085  0.0783 -0.1983 -0.3297
  498loPI   C4B 7968  10.467  18.355   8.703 -0.2214 -0.2106 -0.0509
  499loPI    C1 7969   7.402  17.118  10.756 -0.1293  0.1700 -0.0090
  499loPI    C2 7970   7.505  16.835  10.493  0.2601  0.1572  0.1501
  499loPI    C3 7971   7.183  16.785  10.725  0.1307  0.0006 -0.0598
  499loPI   PO4 7972   7.467  17.347  10.641  0.2421 -0.1065 -0.1963
  499loPI   GL1 7973   7.436  17.491  10.249 -0.2578  0.0880 -0.1700
  499loPI   GL2 7974   7.371  17.216  10.086 -0.1627 -0.2460  0.0422
  499loPI   C1A 7975   7.625  17.581   9.802 -0.1035 -0.0712  0.0305
  499loPI   C2A 7976   7.598  17.457   9.460 -0.0702  0.0470 -0.2625
  499loPI   C3A 7977   7.768  17.653   9.186  0.0254  0.2055 -0.1204
  499loPI   C4A 7978   7.788  17.712   8.730 -0.0172 -0.0712  0.2002
  499loPI   C5A 7979   7.774  17.679   8.258  0.1443  0.5192  0.1368
  499loPI   C6A 7980   7.488  17.673   7.868  0.2586  0.0187 -0.2354
  499loPI   C1B 7981   7.281  17.169   9.658  0.2062 -0.5327  0.0614
  499loPI   C2B 7982   7.237  17.140   9.220 -0.0642 -0.2919 -0.0445
  499loPI   C3B 7983   7.536  17.336   8.905  0.2400  0.0257 -0.2875
  499loPI   C4B 7984   7.486  17.337   8.447 -0.0178  0.0997 -0.1790
  500loPI    C1 7985  15.211  10.184  10.572 -0.2002  0.0817 -0.0263
  500loPI    C2 7986  15.170  10.106  10.962  0.2040  0.0159  0.0074
  500loPI    C3 7987  15.148  10.483  10.830  0.2541  0.0589  0.1206
  500loPI   PO4 7988  15.100  10.056  10.460  0.1498 -0.0558 -0.1704
  500loPI   GL1 7989  14.888  10.060  10.039 -0.0620 -0.0540  0.0018
  500loPI   GL2 7990  15.152   9.852   9.944  0.1206 -0.1347 -0.4112
  500loPI   C1A 7991  14.685  10.106   9.711  0.1652 -0.1357  0.1433
  500loPI   C2A 7992  14.744  10.042   9.321 -0.0743  0.0942  0.4438
  500loPI   C3A 7993  14.620   9.953   8.828  0.0008 -0.0257  0.2372
  500loPI   C4A 7994  14.581   9.930   8.351  0.0338  0.2468  0.0817
  500loPI   C5A 7995  14.491  10.182   8.015  0.0182 -0.2065 -0.0243
  500loPI   C6A 7996  14.450  10.528   7.750 -0.3267  0.2147 -0.0196
  500loPI   C1B 7997  15.057   9.714   9.508  0.2253  0.1956  0.2330
  500loPI   C2B 7998  14.963   9.582   9.078  0.2193 -0.1395 -0.0138
  500loPI   C3B 7999  14.527   9.476   8.813  0.1097 -0.0754  0.0508
  500loPI   C4B 8000  14.272   9.547   8.578 -0.0495 -0.1069 -0.2061
  501loPI    C1 8001   6.822   8.870  10.869  0.1379 -0.0272 -0.1030
  501loPI    C2 8002   6.551   8.967  11.147  0.0375  0.2516 -0.2941
  501loPI    C3 8003   6.870   8.747  11.247 -0.1723  0.0592 -0.0328
  501loPI   PO4 8004   6.713   8.685  10.662 -0.2161  0.1914  0.0760
  501loPI   GL1 8005   6.619   8.728  10.215 -0.1242 -0.1586  0.1464
  501loPI   GL2 8006   6.923   8.959  10.172 -0.0075 -0.1677 -0.1708
  501loPI   C1A 8007   6.775   8.605   9.839 -0.0826  0.0975  0.1231
  501loPI   C2A 8008   7.006   8.702   9.440 -0.2465  0.2977  0.1084
  501loPI   C3A 8009   6.997   8.806   9.074 -0.1628 -0.1820  0.1790
  501loPI   C4A 8010   6.811   8.591   8.789 -0.1200 -0.2607 -0.0594
  501loPI   C5A 8011   6.895   8.815   8.382 -0.0118  0.2361  0.1821
  501loPI   C6A 8012   6.833   8.691   7.938  0.0517  0.5743 -0.0594
  501loPI   C1B 8013   7.221   8.753   9.980  0.3500 -0.0248 -0.1446
  501loPI   C2B 8014   7.734   8.853   9.854 -0.1327  0.1477  0.0328
  501loPI   C3B 8015   7.761   8.969   9.531 -0.1285  0.3245  0.0746
  501loPI   C4B 8016   7.839   8.901   9.126 -0.0306  0.0030 -0.5039
  502loPI    C1 8017   4.471   4.165  10.401 -0.1193 -0.0032 -0.1368
  502loPI    C2 8018   4.179   4.173  10.673 -0.0070 -0.0454 -0.0140
  502loPI    C3 8019   4.515   4.381  10.735 -0.0546  0.0912 -0.2056
  502loPI   PO4 8020   4.393   3.925  10.251 -0.2221  0.0387 -0.0086
  502loPI   GL1 8021   4.269   3.674   9.885  0.1790 -0.0824 -0.1663
  502loPI   GL2 8022   4.035   3.664   9.914  0.0091 -0.3944  0.0957
  502loPI   C1A 8023   4.099   3.515   9.436  0.0190 -0.0136 -0.1112
  502loPI   C2A 8024   3.995   3.503   9.006 -0.0252  0.4037  0.0285
  502loPI   C3A 8025   3.679   3.466   8.741 -0.3831  0.0033 -0.4169
  502loPI   C4A 8026   3.653   3.526   8.302  0.1611  0.0313 -0.1218
  502loPI   C5A 8027   3.382   3.744   7.989  0.2783  0.1578 -0.1476
  502loPI   C6A 8028   2.940   3.901   7.973  0.2708  0.3267  0.3900
  502loPI   C1B 8029   3.629   3.464   9.685 -0.0973 -0.1742 -0.1236
  502loPI   C2B 8030   3.555   3.267   9.343 -0.0328  0.0645  0.0666
  502loPI   C3B 8031   3.795   3.024   9.128 -0.0809  0.1425  0.1113
  502loPI   C4B 8032   3.947   2.698   9.370  0.0318 -0.0333 -0.0350
  503loPI    C1 8033  15.910  18.375  10.220 -0.1219 -0.3378  0.0885
  503loPI    C2 8034  15.747  18.529  10.551  0.0629 -0.2063  0.1199
  503loPI    C3 8035  16.096  18.333  10.572  0.0504 -0.2408  0.0105
  503loPI   PO4 8036  15.699  18.212  10.154  0.0231 -0.0664  0.0095
  503loPI   GL1 8037  15.438  18.179   9.783 -0.1574  0.0880  0.2455
  503loPI   GL2 8038  15.155  18.192   9.875 -0.3162  0.1162  0.2829
  503loPI   C1A 8039  15.729  18.003   9.465 -0.0850 -0.3122  0.0530
  503loPI   C2A 8040  15.812  17.809   9.018 -0.1660  0.3516 -0.3541
  503loPI   C3A 8041  15.802  17.724   8.595  0.3700 -0.2493 -0.0253
  503loPI   C4A 8042  15.725  18.003   8.238  0.0893 -0.0081  0.0588
  503loPI   C5A 8043  15.977  18.060   7.886 -0.1949 -0.0939 -0.2437
  503loPI   C6A 8044  16.141  18.157   7.510 -0.0469 -0.1482  0.1349
  503loPI   C1B 8045  15.095  18.114   9.403  0.0551  0.2239  0.0693
  503loPI   C2B 8046  14.952  18.098   8.935  0.0091 -0.1514 -0.1308
  503loPI   C3B 8047  14.903  18.345   8.590  0.2148  0.0951  0.2997
  503loPI   C4B 8048  14.745  18.549   8.279 -0.0740  0.1809  0.1569
  504loPI    C1 8049  10.261  16.659  10.813  0.0154  0.0978  0.0735
  504loPI    C2 8050  10.394  16.749  11.179  0.1064  0.2634  0.0008
  504loPI    C3 8051  10.064  16.527  11.135  0.1051  0.2277  0.1826
  504loPI   PO4 8052  10.486  16.633  10.695 -0.1120  0.0776  0.2371
  504loPI   GL1 8053  10.539  16.454  10.377  0.2580 -0.2191  0.0373
  504loPI   GL2 8054  10.320  16.324  10.258  0.1360 -0.0920 -0.2146
  504loPI   C1A 8055  10.550  16.523   9.843 -0.0877 -0.0327 -0.1416
  504loPI   C2A 8056  10.731  16.688   9.596 -0.0294 -0.3877  0.1294
  504loPI   C3A 8057  10.623  16.677   9.276  0.1174  0.0082 -0.0103
  504loPI   C4A 8058  10.523  16.842   8.823  0.4127  0.0961  0.2428
  504loPI   C5A 8059  10.523  16.769   8.318 -0.0506  0.1840 -0.1944
  504loPI   C6A 8060  10.394  16.867   7.931 -0.0592 -0.0121 -0.1655
  504loPI   C1B 8061  10.093  16.392   9.871  0.2425 -0.0880 -0.1774
  504loPI   C2B 8062  10.194  16.450   9.395  0.0613  0.2591 -0.1805
  504loPI   C3B 8063  10.192  16.503   8.960 -0.2508 -0.1759  0.1242
  504loPI   C4B 8064  10.241  16.403   8.607 -0.1736  0.3326 -0.1856
  505loPI    C1 8065  10.403   1.533  10.206 -0.0037  0.0453  0.0793
  505loPI    C2 8066  10.235   1.858  10.367 -0.0164  0.0121  0.1332
  505loPI    C3 8067  10.015   1.609  10.145 -0.0619 -0.0813  0.2814
  505loPI   PO4 8068  10.375   1.350  10.364  0.3069 -0.0123 -0.3046
  505loPI   GL1 8069  10.378   1.042  10.008  0.3084 -0.0300  0.2179
  505loPI   GL2 8070  10.135   1.193   9.899 -0.1445  0.1126 -0.2617
  505loPI   C1A 8071  10.541   0.973   9.606 -0.0478 -0.3335 -0.2479
  505loPI   C2A 8072  10.384   1.021   9.112 -0.0307 -0.0411 -0.0329
  505loPI   C3A 8073  10.514   0.836   8.661 -0.0845 -0.0804  0.0190
  505loPI   C4A 8074  10.493   0.659   8.275  0.0924  0.2594 -0.2547
  505loPI   C5A 8075  10.799   0.540   8.045  0.2615  0.0437 -0.0456
  505loPI   C6A 8076  10.873   0.112   8.013 -0.1735 -0.2357  0.4206
  505loPI   C1B 8077  10.354   1.521   9.687 -0.0032  0.3912  0.1382
  505loPI   C2B 8078  10.178   1.717   9.385  0.0445  0.2426 -0.1333
  505loPI   C3B 8079  10.086   1.707   8.844 -0.2133 -0.3799 -0.0848
  505loPI   C4B 8080  10.121   1.652   8.397 -0.0587  0.1034 -0.3371
  506loPI    C1 8081  17.048  12.189  10.166 -0.1267  0.1492  0.1238
  506loPI    C2 8082  16.682  12.091  10.295 -0.0731  0.0779  0.2231
  506loPI    C3 8083  17.003  11.996  10.513  0.0341 -0.2184 -0.0545
  506loPI   PO4 8084  16.990  12.397   9.974  0.0009  0.2658 -0.1953
  506loPI   GL1 8085  17.119  12.473   9.561  0.1457 -0.3990 -0.0632
  506loPI   GL2 8086  17.390  12.388   9.676 -0.0930  0.2585 -0.0953
  506loPI   C1A 8087  17.033  12.480   9.180 -0.3825 -0.0563 -0.1475
  506loPI   C2A 8088  17.043  12.442   8.824 -0.0163 -0.1424  0.2166
  506loPI   C3A 8089  16.970  12.278   8.514  0.1773 -0.1119  0.2821
  506loPI   C4A 8090  16.779  12.255   8.107  0.0922  0.2929 -0.1881
  506loPI   C5A 8091  16.453  12.522   7.907  0.2169 -0.1484 -0.2146
  506loPI   C6A 8092  16.153  12.385   7.596 -0.1367 -0.0888 -0.0525
  506loPI   C1B 8093  17.419  12.140   9.337 -0.4508  0.0822  0.0494
  506loPI   C2B 8094  17.345  12.058   8.943 -0.0707  0.1881 -0.3767
  506loPI   C3B 8095  17.341  11.835   8.570  0.1442  0.0948  0.1345
  506loPI   C4B 8096  17.180  11.955   8.137  0.0075  0.2897 -0.4868
  507loPI    C1 8097  11.733   3.979  10.726  0.1407 -0.0103  0.0648
  507loPI    C2 8098  11.866   3.630  10.583  0.3255  0.0768  0.0214
  507loPI    C3 8099  11.705   3.647  10.948  0.5537 -0.0090  0.1282
  507loPI   PO4 8100  11.737   4.100  10.381 -0.0761  0.1421 -0.1564
  507loPI   GL1 8101  11.651   4.034   9.942 -0.0646 -0.0183 -0.0288
  507loPI   GL2 8102  11.476   4.295   9.845  0.1260  0.2716  0.0031
  507loPI   C1A 8103  11.800   4.071   9.481 -0.2039  0.1701  0.3161
  507loPI   C2A 8104  11.891   4.092   9.069  0.2931  0.0458  0.0809
  507loPI   C3A 8105  11.943   4.245   8.682 -0.0594  0.3002  0.0916
  507loPI   C4A 8106  11.972   4.390   8.321  0.2500  0.0858  0.0074
  507loPI   C5A 8107  12.147   4.741   8.088  0.1390  0.1220 -0.2151
  507loPI   C6A 8108  12.404   4.808   7.764 -0.2068  0.2184 -0.5611
  507loPI   C1B 8109  11.286   4.568   9.653 -0.1918 -0.0092  0.3199
  507loPI   C2B 8110  11.046   4.906   9.570  0.3686 -0.0296 -0.4220
  507loPI   C3B 8111  11.187   5.220   9.272  0.0556 -0.0105  0.0364
  507loPI   C4B 8112  11.536   5.547   9.122 -0.1284  0.1673 -0.0289
  508loPI    C1 8113   9.244   7.048  10.465  0.0699 -0.2290  0.1163
  508loPI    C2 8114   9.446   7.233  10.756  0.0715 -0.0390 -0.0032
  508loPI    C3 8115   9.049   7.193  10.782  0.0986 -0.2301  0.1345
  508loPI   PO4 8116   9.400   7.084  10.277 -0.0674 -0.0707 -0.0547
  508loPI   GL1 8117   9.340   7.231   9.906 -0.0482 -0.0450  0.1533
  508loPI   GL2 8118   9.163   6.870   9.865  0.3082 -0.1742 -0.0334
  508loPI   C1A 8119   9.492   7.269   9.536 -0.2596  0.0842  0.1970
  508loPI   C2A 8120   9.500   7.293   9.065 -0.2451  0.0815  0.0712
  508loPI   C3A 8121   9.543   7.363   8.698 -0.0715 -0.1447 -0.0046
  508loPI   C4A 8122   9.787   7.324   8.309  0.1376  0.1096 -0.0818
  508loPI   C5A 8123  10.222   7.197   8.145 -0.2643 -0.2892 -0.2293
  508loPI   C6A 8124  10.445   7.012   7.774  0.1201  0.3027  0.0482
  508loPI   C1B 8125   9.216   6.850   9.405  0.0900  0.3922  0.3430
  508loPI   C2B 8126   9.208   6.914   8.997 -0.1902  0.0006 -0.0546
  508loPI   C3B 8127   9.202   7.027   8.590 -0.0013 -0.0698  0.0426
  508loPI   C4B 8128   9.212   7.287   8.216 -0.2117  0.2071  0.1729
  509loPI    C1 8129  14.424  13.645  10.452 -0.1265 -0.2998  0.2524
  509loPI    C2 8130  14.326  13.982  10.645 -0.0249 -0.1969  0.1262
  509loPI    C3 8131  14.670  13.795  10.728  0.1563  0.0047 -0.1533
  509loPI   PO4 8132  14.404  13.808  10.150  0.1104 -0.1472 -0.0362
  509loPI   GL1 8133  14.208  13.552   9.844 -0.1327 -0.2027 -0.1513
  509loPI   GL2 8134  13.900  13.549   9.758  0.0670 -0.4036 -0.1787
  509loPI   C1A 8135  14.378  13.971   9.542 -0.0265 -0.1757  0.5898
  509loPI   C2A 8136  14.612  13.919   9.106 -0.0543 -0.3478  0.1779
  509loPI   C3A 8137  14.739  13.851   8.622 -0.1045 -0.1028 -0.2406
  509loPI   C4A 8138  14.849  14.081   8.245  0.1357  0.1386 -0.0571
  509loPI   C5A 8139  14.810  14.022   7.860 -0.1266  0.1227  0.0994
  509loPI   C6A 8140  14.656  14.208   7.453 -0.5286 -0.0523 -0.0410
  509loPI   C1B 8141  14.046  13.627   9.372  0.1463  0.2382  0.2263
  509loPI   C2B 8142  14.232  13.575   9.037  0.0310  0.1234  0.0605
  509loPI   C3B 8143  14.287  13.633   8.581  0.1801 -0.1453 -0.0918
  509loPI   C4B 8144  14.391  13.871   8.294  0.1130  0.1544 -0.1064
  510loPI    C1 8145   5.466  13.239  10.512  0.2234 -0.0784  0.0078
  510loPI    C2 8146   5.533  12.951  10.781 -0.1476  0.0304  0.2255
  510loPI    C3 8147   5.617  13.331  10.871 -0.0829  0.0442  0.1090
  510loPI   PO4 8148   5.493  13.199  10.253  0.2099 -0.0625  0.2292
  510loPI   GL1 8149   5.720  13.370   9.815 -0.2994 -0.2093 -0.2518
  510loPI   GL2 8150   5.870  13.302   9.534 -0.3237  0.1996  0.0741
  510loPI   C1A 8151   5.568  12.977   9.527  0.1975  0.1942 -0.0860
  510loPI   C2A 8152   5.554  12.975   9.090 -0.2978  0.0553  0.2021
  510loPI   C3A 8153   5.321  12.744   8.682  0.0634  0.1402 -0.2690
  510loPI   C4A 8154   5.397  12.348   8.437 -0.0770 -0.2609 -0.2739
  510loPI   C5A 8155   5.374  11.940   8.210 -0.2079 -0.3001  0.0443
  510loPI   C6A 8156   5.229  11.729   7.943  0.3918 -0.1731  0.0122
  510loPI   C1B 8157   6.075  13.155   9.085 -0.1074  0.1038 -0.1824
  510loPI   C2B 8158   5.938  13.046   8.744  0.0348 -0.1110 -0.2135
  510loPI   C3B 8159   5.600  13.100   8.476 -0.3066 -0.0579 -0.4533
  510loPI   C4B 8160   5.440  12.852   8.198 -0.0203  0.1054 -0.0106
  511loPI    C1 8161  13.849  13.856  10.638  0.1967  0.0619 -0.0849
  511loPI    C2 8162  13.591  14.063  10.863 -0.1479 -0.1248 -0.2997
  511loPI    C3 8163  13.881  13.848  11.036 -0.0410  0.2040 -0.0613
  511loPI   PO4 8164  13.886  14.057  10.420 -0.1233 -0.1223  0.2459
  511loPI   GL1 8165  13.950  14.123   9.973 -0.2202  0.1138 -0.2351
  511loPI   GL2 8166  13.971  14.441   9.995 -0.0693 -0.2438  0.2964
  511loPI   C1A 8167  13.945  14.173   9.457  0.0301  0.3276  0.0172
  511loPI   C2A 8168  13.950  14.050   9.188 -0.0324  0.1522 -0.6434
  511loPI   C3A 8169  13.852  13.886   8.870  0.1574 -0.3692  0.2229
  511loPI   C4A 8170  13.892  13.943   8.404 -0.0661  0.4415 -0.0721
  511loPI   C5A 8171  13.863  13.900   7.910 -0.2250 -0.0287 -0.0352
  511loPI   C6A 8172  13.679  14.186   7.716  0.2742  0.1660  0.4196
  511loPI   C1B 8173  14.304  14.416   9.755  0.0699  0.1798  0.1506
  511loPI   C2B 8174  14.315  14.479   9.328  0.1091  0.0465  0.2338
  511loPI   C3B 8175  14.323  14.409   8.915  0.0594 -0.0819 -0.0529
  511loPI   C4B 8176  14.216  14.172   8.670  0.1855 -0.0832 -0.0395
  512loPI    C1 8177   6.922  15.596  10.577 -0.1822  0.0754 -0.1280
  512loPI    C2 8178   6.628  15.532  10.840  0.0670  0.0710  0.1547
  512loPI    C3 8179   6.994  15.387  10.910  0.1304  0.0448 -0.2117
  512loPI   PO4 8180   6.852  15.617  10.379 -0.0073  0.0205  0.1202
  512loPI   GL1 8181   6.741  15.498  10.027  0.2076 -0.0986  0.0086
  512loPI   GL2 8182   7.041  15.460   9.890  0.0348  0.2617  0.0832
  512loPI   C1A 8183   6.529  15.792   9.822 -0.3204  0.2370 -0.0128
  512loPI   C2A 8184   6.520  15.871   9.339  0.1153  0.0811  0.0611
  512loPI   C3A 8185   6.799  15.879   9.070  0.0012 -0.1446  0.0574
  512loPI   C4A 8186   7.059  15.951   8.639  0.1605  0.1214  0.1037
  512loPI   C5A 8187   7.230  16.179   8.272 -0.0363  0.0457  0.2783
  512loPI   C6A 8188   7.458  15.889   7.971 -0.2452  0.1556 -0.0743
  512loPI   C1B 8189   6.845  15.521   9.438  0.2674  0.0833  0.0573
  512loPI   C2B 8190   6.684  15.370   9.000  0.0693  0.0708 -0.0909
  512loPI   C3B 8191   6.800  15.422   8.615 -0.0495  0.1811  0.2536
  512loPI   C4B 8192   6.799  15.404   8.125 -0.1808 -0.2061  0.2705
  513loPI    C1 8193   4.799   0.581  10.712  0.2406  0.2416 -0.1757
  513loPI    C2 8194   5.034   0.495  11.023 -0.0981  0.0454  0.0322
  513loPI    C3 8195   4.642   0.552  11.078 -0.1224  0.2550 -0.3256
  513loPI   PO4 8196   4.989   0.703  10.564 -0.1427 -0.1598 -0.0411
  513loPI   GL1 8197   5.016   0.766  10.121 -0.0552  0.1750  0.1945
  513loPI   GL2 8198   4.830   1.023   9.841 -0.2887  0.2818 -0.1653
  513loPI   C1A 8199   5.192   0.505   9.820 -0.0858  0.0064  0.1839
  513loPI   C2A 8200   5.120   0.444   9.401 -0.1117 -0.2775  0.0656
  513loPI   C3A 8201   5.328   0.467   8.991 -0.1179 -0.1552 -0.0195
  513loPI   C4A 8202   5.184   0.511   8.483  0.1636 -0.0183 -0.1583
  513loPI   C5A 8203   5.173   0.375   8.100  0.1861 -0.0223 -0.0239
  513loPI   C6A 8204   5.140   0.141   7.876 -0.1285 -0.0903  0.1217
  513loPI   C1B 8205   4.902   1.021   9.390  0.3702 -0.2231  0.0700
  513loPI   C2B 8206   4.915   0.841   9.025 -0.2437 -0.2583 -0.0936
  513loPI   C3B 8207   4.751   0.811   8.554 -0.0122 -0.1633 -0.0501
  513loPI   C4B 8208   4.892   0.789   8.185  0.0287 -0.2767 -0.0078
  514loPI    C1 8209   7.982  16.599  10.670 -0.0106 -0.0309  0.0706
  514loPI    C2 8210   8.247  16.341  10.822  0.1158  0.0875  0.0528
  514loPI    C3 8211   7.939  16.466  11.045 -0.0335 -0.1965  0.0098
  514loPI   PO4 8212   7.964  16.567  10.406 -0.1341 -0.0428 -0.1295
  514loPI   GL1 8213   8.082  16.699  10.041 -0.2497  0.0458 -0.0135
  514loPI   GL2 8214   7.954  16.391   9.857 -0.3006 -0.0668  0.2697
  514loPI   C1A 8215   8.233  16.750   9.641  0.2430 -0.0901  0.0334
  514loPI   C2A 8216   8.277  16.821   9.211  0.1288  0.3765  0.1402
  514loPI   C3A 8217   8.174  16.859   8.757  0.1121 -0.3543 -0.0337
  514loPI   C4A 8218   8.280  16.677   8.416  0.2397  0.2886  0.1774
  514loPI   C5A 8219   8.299  16.443   8.026 -0.1300  0.1581 -0.2880
  514loPI   C6A 8220   8.308  16.216   7.553  0.0697 -0.0884  0.1331
  514loPI   C1B 8221   7.905  16.501   9.337  0.1007 -0.1101  0.1303
  514loPI   C2B 8222   7.745  16.836   9.055 -0.1022 -0.0642  0.1355
  514loPI   C3B 8223   7.664  16.863   8.580  0.1313 -0.0688  0.2702
  514loPI   C4B 8224   7.859  16.894   8.190 -0.4614 -0.1814 -0.2022
  515loPI    C1 8225   3.009  11.047  10.274 -0.0529 -0.2955 -0.1673
  515loPI    C2 8226   3.147  11.000  10.647 -0.0515 -0.0498 -0.1350
  515loPI    C3 8227   3.129  10.686  10.399  0.0951 -0.1833  0.0208
  515loPI   PO4 8228   3.208  11.301  10.147  0.2861 -0.1020 -0.0146
  515loPI   GL1 8229   3.401  11.383   9.800 -0.2682  0.0644 -0.2723
  515loPI   GL2 8230   3.441  11.132   9.628  0.2732 -0.2295  0.1934
  515loPI   C1A 8231   3.450  11.664   9.467 -0.0532  0.0248  0.2306
  515loPI   C2A 8232   3.598  11.628   9.051  0.1867  0.0305 -0.0224
  515loPI   C3A 8233   3.581  11.536   8.606 -0.1742  0.0956 -0.1284
  515loPI   C4A 8234   3.413  11.682   8.253  0.1631 -0.2330  0.1407
  515loPI   C5A 8235   3.333  11.747   7.808  0.0003 -0.0953 -0.0055
  515loPI   C6A 8236   3.236  11.438   7.550 -0.1356  0.1498 -0.2247
  515loPI   C1B 8237   3.621  11.128   9.268 -0.1640  0.0011  0.1612
  515loPI   C2B 8238   3.624  10.941   8.821 -0.0030  0.0882 -0.0151
  515loPI   C3B 8239   3.524  10.975   8.316  0.0875  0.0846 -0.0202
  515loPI   C4B 8240   3.327  11.215   8.029  0.2958 -0.0593 -0.0230
  516loPI    C1 8241  17.665  10.317  10.192 -0.2498 -0.1381  0.2597
  516loPI    C2 8242  18.054  10.224  10.214 -0.1440  0.1867 -0.1148
  516loPI    C3 8243  17.806  10.120  10.510  0.2269 -0.0164  0.1325
  516loPI   PO4 8244  17.584  10.146   9.965  0.0080  0.1439 -0.2357
  516loPI   GL1 8245  17.269  10.060   9.602  0.3114  0.2797  0.2568
  516loPI   GL2 8246  17.009  10.365   9.738  0.0767 -0.1779  0.2761
  516loPI   C1A 8247  17.166  10.284   9.138 -0.0039 -0.0985 -0.0078
  516loPI   C2A 8248  16.926  10.414   8.764  0.0209 -0.0048 -0.1287
  516loPI   C3A 8249  17.073  10.518   8.443 -0.2392  0.3691 -0.0072
  516loPI   C4A 8250  17.372  10.664   8.163 -0.0487 -0.3928  0.0887
  516loPI   C5A 8251  17.567  11.117   8.108 -0.5383  0.0085 -0.0637
  516loPI   C6A 8252  18.058  11.352   7.982 -0.1474 -0.0120 -0.2194
  516loPI   C1B 8253  17.279  10.607   9.499 -0.0965  0.0157 -0.0158
  516loPI   C2B 8254  17.497  10.651   9.141 -0.0460  0.3448  0.1833
  516loPI   C3B 8255  17.491  10.377   8.734  0.0277 -0.4756 -0.0921
  516loPI   C4B 8256  17.517  10.171   8.327 -0.0712  0.1434  0.2309
  517loPI    C1 8257   1.425  12.283  10.207  0.1672 -0.2317  0.1615
  517loPI    C2 8258   1.159  12.403  10.481 -0.0872 -0.1611 -0.1105
  517loPI    C3 8259   1.547  12.488  10.528 -0.1774  0.1896  0.0336
  517loPI   PO4 8260   1.230  12.405   9.952 -0.2651 -0.2453  0.0205
  517loPI   GL1 8261   1.160  12.542   9.452 -0.1282  0.3180  0.0898
  517loPI   GL2 8262   1.165  12.876   9.672 -0.1701 -0.0281 -0.0195
  517loPI   C1A 8263   1.347  12.537   9.112  0.2307  0.3073  0.0049
  517loPI   C2A 8264   1.379  12.557   8.707  0.0093  0.0044  0.0321
  517loPI   C3A 8265   1.226  12.599   8.370 -0.1652 -0.1628 -0.0732
  517loPI   C4A 8266   1.139  12.785   8.058  0.0210  0.1581 -0.0880
  517loPI   C5A 8267   0.895  13.104   7.824 -0.0674  0.1118  0.3631
  517loPI   C6A 8268   0.780  13.517   7.887 -0.0051 -0.2968 -0.1911
  517loPI   C1B 8269   1.296  13.076   9.272 -0.0157  0.1542 -0.0772
  517loPI   C2B 8270   1.368  13.115   8.753  0.4791  0.1209  0.3367
  517loPI   C3B 8271   1.112  13.126   8.373 -0.1004 -0.0419 -0.0015
  517loPI   C4B 8272   0.693  13.252   8.262  0.0024 -0.1070  0.1189
  518loPI    C1 8273  16.050   9.803  10.539  0.0655  0.1444  0.0663
  518loPI    C2 8274  16.423   9.823  10.681  0.1499 -0.0444 -0.1219
  518loPI    C3 8275  16.131   9.671  10.908  0.1641  0.1968  0.0637
  518loPI   PO4 8276  16.076   9.680  10.299 -0.3896 -0.0951 -0.0125
  518loPI   GL1 8277  16.186   9.879   9.858 -0.0922 -0.1468  0.1777
  518loPI   GL2 8278  15.844  10.033   9.913  0.2029  0.0896 -0.1490
  518loPI   C1A 8279  16.211  10.063   9.481  0.0803  0.2269  0.0482
  518loPI   C2A 8280  16.230   9.970   9.043  0.2377 -0.1980 -0.0467
  518loPI   C3A 8281  16.139  10.034   8.782  0.1675 -0.0867  0.4156
  518loPI   C4A 8282  16.102  10.119   8.399  0.2864  0.1061 -0.0767
  518loPI   C5A 8283  16.026  10.133   7.942  0.0627  0.2987  0.2067
  518loPI   C6A 8284  15.600  10.074   7.733 -0.0654 -0.2495  0.1387
  518loPI   C1B 8285  15.758   9.951   9.559  0.1391 -0.1764 -0.0541
  518loPI   C2B 8286  15.740   9.973   9.106  0.0126 -0.1736  0.3024
  518loPI   C3B 8287  15.666  10.040   8.694  0.0950 -0.2297  0.0644
  518loPI   C4B 8288  15.658   9.906   8.228 -0.0327  0.0894 -0.2077
  519loPI    C1 8289   9.453   9.381  10.658 -0.1222  0.0572  0.1683
  519loPI    C2 8290   9.806   9.500  10.514 -0.0790 -0.0254  0.2050
  519loPI    C3 8291   9.792   9.253  10.828 -0.1639 -0.2535  0.0237
  519loPI   PO4 8292   9.379   9.352  10.369 -0.2780 -0.0785 -0.2981
  519loPI   GL1 8293   9.190   9.380  10.090  0.2824 -0.1032 -0.0829
  519loPI   GL2 8294   9.222   9.135   9.863 -0.0207 -0.0134 -0.3564
  519loPI   C1A 8295   9.052   9.586   9.669  0.1250 -0.1777  0.2575
  519loPI   C2A 8296   9.118   9.662   9.196 -0.2439  0.1882 -0.2228
  519loPI   C3A 8297   9.379   9.951   8.843 -0.1336 -0.0401  0.0128
  519loPI   C4A 8298   9.470  10.033   8.503 -0.2711  0.2683  0.2387
  519loPI   C5A 8299   9.522   9.948   8.109  0.2274  0.1655 -0.2855
  519loPI   C6A 8300   9.237   9.849   7.802 -0.1910 -0.0868 -0.1210
  519loPI   C1B 8301   9.318   9.105   9.476 -0.4192  0.1422  0.1014
  519loPI   C2B 8302   9.281   9.152   9.040 -0.1926  0.0199  0.2345
  519loPI   C3B 8303   9.139   9.189   8.647 -0.0630  0.0763 -0.0026
  519loPI   C4B 8304   9.437   9.109   8.338 -0.1770 -0.0686  0.1185
  520loPI    C1 8305   5.615  15.204  10.335  0.0329 -0.0712 -0.1149
  520loPI    C2 8306   5.261  15.347  10.215  0.1237  0.0485 -0.2432
  520loPI    C3 8307   5.309  15.222  10.592 -0.0433  0.0696 -0.2141
  520loPI   PO4 8308   5.693  14.965  10.094  0.0431 -0.0759 -0.0845
  520loPI   GL1 8309   5.458  15.098   9.715 -0.1952  0.4512 -0.1094
  520loPI   GL2 8310   5.635  14.788   9.579 -0.2369 -0.0120 -0.0699
  520loPI   C1A 8311   5.342  15.436   9.406 -0.3551  0.0905 -0.1298
  520loPI   C2A 8312   5.227  15.342   8.935 -0.3811  0.1467 -0.0738
  520loPI   C3A 8313   5.101  15.387   8.452 -0.0242  0.1168  0.1964
  520loPI   C4A 8314   4.980  15.532   8.013 -0.0439 -0.0212  0.1472
  520loPI   C5A 8315   5.152  15.964   7.939 -0.2262 -0.0249  0.0979
  520loPI   C6A 8316   5.459  16.273   8.179  0.3978  0.2379  0.0704
  520loPI   C1B 8317   5.835  14.476   9.248  0.1432  0.0620  0.0162
  520loPI   C2B 8318   5.863  14.415   8.796 -0.1422  0.1004 -0.1516
  520loPI   C3B 8319   6.006  14.305   8.324  0.1393 -0.0941  0.2630
  520loPI   C4B 8320   6.124  14.569   7.987  0.0183 -0.0904  0.1274
  521loPI    C1 8321   5.458   1.337  10.672  0.2245 -0.0365 -0.1870
  521loPI    C2 8322   5.406   0.986  10.488  0.0362  0.0301 -0.2641
  521loPI    C3 8323   5.252   1.045  10.852 -0.0715  0.0867 -0.3184
  521loPI   PO4 8324   5.381   1.508  10.436  0.2302  0.1837 -0.0395
  521loPI   GL1 8325   5.019   1.561  10.179  0.0059 -0.1579 -0.0753
  521loPI   GL2 8326   4.863   1.849  10.109  0.0168 -0.1295 -0.0342
  521loPI   C1A 8327   5.085   1.480   9.757 -0.0328 -0.0860 -0.0221
  521loPI   C2A 8328   5.195   1.409   9.345  0.0139  0.1622  0.1483
  521loPI   C3A 8329   5.240   1.201   8.937  0.1755  0.1160 -0.3267
  521loPI   C4A 8330   5.330   1.151   8.512 -0.0990  0.0217 -0.1915
  521loPI   C5A 8331   5.193   1.248   8.054  0.1882 -0.1273 -0.1296
  521loPI   C6A 8332   4.977   1.192   7.690  0.1335 -0.0387 -0.4504
  521loPI   C1B 8333   5.006   1.950   9.751  0.3402  0.0623 -0.1383
  521loPI   C2B 8334   5.139   2.005   9.352 -0.1964  0.2562  0.0617
  521loPI   C3B 8335   5.365   1.696   9.007  0.1534 -0.2301  0.4819
  521loPI   C4B 8336   5.284   1.650   8.502 -0.4428 -0.1193  0.1833
  522loPI    C1 8337  10.214   8.638  10.431  0.2879  0.3081 -0.0585
  522loPI    C2 8338  10.409   8.334  10.603 -0.0121  0.1941  0.0884
  522loPI    C3 8339  10.289   8.645  10.824 -0.1406  0.1862  0.0303
  522loPI   PO4 8340  10.068   8.446  10.139 -0.0385 -0.0258 -0.1329
  522loPI   GL1 8341  10.063   8.258   9.786  0.2034  0.1419  0.0528
  522loPI   GL2 8342  10.151   7.928   9.745 -0.0354 -0.0321  0.1433
  522loPI   C1A 8343   9.971   8.418   9.348  0.1634  0.0557 -0.3985
  522loPI   C2A 8344   9.949   8.632   8.934  0.0959 -0.0575  0.1850
  522loPI   C3A 8345  10.077   8.606   8.536  0.1219 -0.0775  0.1627
  522loPI   C4A 8346  10.060   8.319   8.233  0.0994  0.0747  0.1121
  522loPI   C5A 8347   9.724   8.111   7.975 -0.0719 -0.2150 -0.1736
  522loPI   C6A 8348   9.380   8.282   8.032  0.2853 -0.1718 -0.0015
  522loPI   C1B 8349  10.161   7.922   9.354  0.3909 -0.1805  0.0943
  522loPI   C2B 8350  10.311   7.630   9.047 -0.0085 -0.0345  0.2282
  522loPI   C3B 8351  10.601   7.847   8.696  0.3175  0.0187  0.2280
  522loPI   C4B 8352  10.513   8.084   8.358  0.0246  0.1279  0.1884
  523loPI    C1 8353   6.596   9.206  10.516 -0.0478 -0.0893 -0.1017
  523loPI    C2 8354   6.409   9.354  10.836  0.0491 -0.1965  0.0058
  523loPI    C3 8355   6.316   8.989  10.702 -0.1482 -0.0650 -0.2231
  523loPI   PO4 8356   6.622   9.351  10.292 -0.1579 -0.2363 -0.1743
  523loPI   GL1 8357   7.023   9.441  10.074 -0.2583  0.1885 -0.0836
  523loPI   GL2 8358   7.231   9.715   9.952  0.3419 -0.0665  0.0360
  523loPI   C1A 8359   6.895   9.158   9.746  0.0745 -0.1246  0.0531
  523loPI   C2A 8360   6.857   9.188   9.385 -0.0621 -0.0983  0.3830
  523loPI   C3A 8361   6.621   9.090   8.995 -0.2136  0.0128 -0.0564
  523loPI   C4A 8362   6.581   9.233   8.497 -0.0098  0.1451 -0.1605
  523loPI   C5A 8363   6.682   9.158   8.085  0.0771 -0.1968  0.0493
  523loPI   C6A 8364   6.858   9.523   7.861 -0.2014 -0.0862 -0.3625
  523loPI   C1B 8365   7.098   9.616   9.531 -0.0102  0.1452 -0.2153
  523loPI   C2B 8366   7.110   9.527   9.119  0.1279  0.0706 -0.1766
  523loPI   C3B 8367   6.988   9.413   8.790 -0.0572 -0.1672  0.0054
  523loPI   C4B 8368   7.051   9.495   8.355  0.0801  0.2568  0.0608
  524loPI    C1 8369  10.182   0.506  10.480 -0.1059 -0.1710 -0.0031
  524loPI    C2 8370  10.143   0.904  10.469  0.2790 -0.1260  0.1208
  524loPI    C3 8371  10.066   0.705  10.807  0.0312 -0.1660  0.0430
  524loPI   PO4 8372  10.450   0.407  10.391  0.3400 -0.0839 -0.0779
  524loPI   GL1 8373  10.556   0.504  10.057  0.1025 -0.1892 -0.1288
  524loPI   GL2 8374  10.909   0.470  10.006 -0.1848 -0.1493 -0.3688
  524loPI   C1A 8375  10.299   0.401   9.666 -0.0827 -0.2915 -0.0967
  524loPI   C2A 8376  10.271   0.412   9.261 -0.1823  0.0413  0.0031
  524loPI   C3A 8377  10.207   0.328   8.871  0.2879  0.3662  0.1346
  524loPI   C4A 8378  10.210   0.257   8.407 -0.1443  0.1491  0.0853
  524loPI   C5A 8379  10.410   0.207   7.987  0.0380  0.2348 -0.0142
  524loPI   C6A 8380  10.223   0.183   7.511  0.2360 -0.1024 -0.1111
  524loPI   C1B 8381  10.782   0.513   9.601 -0.0143 -0.1646  0.1952
  524loPI   C2B 8382  10.710   0.595   9.251 -0.1239 -0.1100  0.2481
  524loPI   C3B 8383  10.710   0.416   8.913  0.0102 -0.1842 -0.2573
  524loPI   C4B 8384  10.703   0.250   8.491 -0.1387 -0.2321  0.1713
  525loPI    C1 8385  16.380  13.723  10.643  0.0645 -0.0511 -0.0474
  525loPI    C2 8386  16.263  13.372  10.794 -0.0711 -0.0438 -0.1337
  525loPI    C3 8387  16.618  13.525  10.895 -0.1285 -0.0736  0.1192
  525loPI   PO4 8388  16.344  13.812  10.421  0.0659  0.1555  0.1593
  525loPI   GL1 8389  15.947  13.944  10.138 -0.0582 -0.2404  0.2815
  525loPI   GL2 8390  15.758  14.230  10.122  0.0240 -0.1068 -0.1465
  525loPI   C1A 8391  16.003  13.687   9.683 -0.2885  0.3318  0.0703
  525loPI   C2A 8392  15.921  13.719   9.215 -0.1095 -0.2917 -0.3570
  525loPI   C3A 8393  15.861  13.665   8.696 -0.2784  0.4273  0.0432
  525loPI   C4A 8394  15.835  13.653   8.254 -0.1088 -0.0235 -0.3062
  525loPI   C5A 8395  15.712  13.647   7.877 -0.0302  0.3784 -0.0422
  525loPI   C6A 8396  15.376  13.875   7.507 -0.0080  0.3102 -0.0890
  525loPI   C1B 8397  15.688  14.191   9.781  0.1267  0.2229 -0.0944
  525loPI   C2B 8398  15.585  14.059   9.367  0.0046 -0.1980 -0.1346
  525loPI   C3B 8399  15.532  14.173   8.923 -0.3774 -0.1208 -0.1827
  525loPI   C4B 8400  15.672  14.065   8.472  0.0530 -0.2196  0.1077
  526loPI    C1 8401  13.156  15.673  10.203 -0.2591  0.0661  0.1092
  526loPI    C2 8402  13.206  15.572  10.587  0.0857  0.1536  0.0905
  526loPI    C3 8403  13.054  15.930  10.493 -0.1592  0.0659  0.1448
  526loPI   PO4 8404  13.373  15.632  10.022 -0.1760 -0.1909  0.3268
  526loPI   GL1 8405  13.530  15.968   9.769  0.1171  0.1406 -0.2067
  526loPI   GL2 8406  13.676  16.212   9.832 -0.0901 -0.0495 -0.0732
  526loPI   C1A 8407  13.435  15.771   9.383  0.1599 -0.2988  0.3547
  526loPI   C2A 8408  13.160  15.509   9.137  0.1290 -0.4635  0.0278
  526loPI   C3A 8409  13.105  15.452   8.737 -0.1142 -0.1633 -0.1429
  526loPI   C4A 8410  12.953  15.541   8.300 -0.3056 -0.0252 -0.0276
  526loPI   C5A 8411  12.503  15.611   8.159 -0.1825  0.1626 -0.0746
  526loPI   C6A 8412  12.237  15.347   7.933 -0.2136  0.1236  0.3107
  526loPI   C1B 8413  13.649  16.249   9.317  0.0367 -0.0180  0.0179
  526loPI   C2B 8414  13.430  16.317   8.849 -0.1984 -0.1095  0.1527
  526loPI   C3B 8415  13.314  16.554   8.600  0.0860 -0.2761  0.1192
  526loPI   C4B 8416  12.874  16.733   8.735 -0.0460 -0.0359 -0.1079
  527loPI    C1 8417   4.102   9.069  10.305 -0.0656  0.1030  0.1072
  527loPI    C2 8418   3.813   8.810  10.401  0.0234  0.0559  0.2500
  527loPI    C3 8419   4.129   8.856  10.642  0.2575 -0.0733 -0.0257
  527loPI   PO4 8420   4.186   8.957   9.923  0.1689 -0.1902 -0.0412
  527loPI   GL1 8421   3.984   8.711   9.602  0.0045 -0.1588 -0.1730
  527loPI   GL2 8422   3.706   9.031   9.531  0.1154  0.3978  0.1097
  527loPI   C1A 8423   4.198   8.824   9.282  0.2116 -0.1667 -0.1860
  527loPI   C2A 8424   4.275   8.726   8.882 -0.1886 -0.3058 -0.1230
  527loPI   C3A 8425   4.416   8.631   8.470 -0.0013 -0.1854 -0.4288
  527loPI   C4A 8426   4.368   8.565   8.082 -0.4112  0.0601  0.2692
  527loPI   C5A 8427   4.233   8.324   7.742  0.0864 -0.0135 -0.0840
  527loPI   C6A 8428   3.902   8.114   7.423  0.2731  0.1141 -0.0641
  527loPI   C1B 8429   3.704   9.145   9.071  0.1845  0.0739  0.4025
  527loPI   C2B 8430   3.729   9.112   8.581  0.0462  0.0079  0.2858
  527loPI   C3B 8431   3.975   8.784   8.288  0.2987 -0.0677  0.0066
  527loPI   C4B 8432   3.756   8.378   7.992 -0.1707  0.0700  0.0474
  528loPI    C1 8433  16.909   1.963  10.319 -0.1290  0.0719  0.1370
  528loPI    C2 8434  17.039   1.835  10.675  0.0131 -0.0734  0.0342
  528loPI    C3 8435  16.864   2.193  10.643  0.1699  0.0217  0.2172
  528loPI   PO4 8436  16.933   1.766  10.207 -0.1281  0.0762  0.5588
  528loPI   GL1 8437  16.807   1.757   9.757  0.1674 -0.2092 -0.1768
  528loPI   GL2 8438  16.865   1.483   9.777  0.3346  0.0939  0.1667
  528loPI   C1A 8439  17.033   1.766   9.362  0.0127 -0.1369 -0.1093
  528loPI   C2A 8440  17.068   1.650   8.992 -0.2916 -0.1425  0.0776
  528loPI   C3A 8441  17.171   1.698   8.616  0.0065  0.0757 -0.1791
  528loPI   C4A 8442  17.220   1.455   8.197 -0.0794 -0.1551 -0.0805
  528loPI   C5A 8443  17.509   1.673   7.888  0.0384  0.2558 -0.2071
  528loPI   C6A 8444  17.548   1.974   7.511  0.2693 -0.2073 -0.2948
  528loPI   C1B 8445  16.861   1.223   9.487 -0.1788  0.0885  0.1722
  528loPI   C2B 8446  16.810   1.195   9.090 -0.0675  0.3770 -0.0226
  528loPI   C3B 8447  16.719   1.309   8.664  0.2298 -0.0214 -0.0358
  528loPI   C4B 8448  16.893   1.077   8.325 -0.0748 -0.0061  0.2172
  529loPI    C1 8449  17.779   0.777  10.758 -0.1812 -0.0860 -0.0098
  529loPI    C2 8450  17.981   0.457  10.889 -0.1010 -0.0656 -0.0823
  529loPI    C3 8451  17.818   0.712  11.151 -0.1629 -0.1640 -0.0244
  529loPI   PO4 8452  17.927   0.852  10.532 -0.0195  0.2025  0.2299
  529loPI   GL1 8453  17.966   0.773  10.092  0.0977  0.0678  0.3307
  529loPI   GL2 8454  18.250   0.918  10.100  0.0757 -0.3808  0.1487
  529loPI   C1A 8455  17.647   0.607   9.793 -0.2635 -0.5365  0.0920
  529loPI   C2A 8456  17.651   0.566   9.376 -0.2995 -0.2912  0.0192
  529loPI   C3A 8457  17.445   0.271   9.098 -0.2060 -0.3035  0.3356
  529loPI   C4A 8458  17.217   0.421   8.819  0.0157  0.0132 -0.1918
  529loPI   C5A 8459  17.409   0.575   8.445 -0.0053  0.0338  0.1180
  529loPI   C6A 8460  17.305   0.930   8.032  0.0589  0.0093 -0.1900
  529loPI   C1B 8461  18.117   0.915   9.635 -0.0576 -0.2464 -0.1578
  529loPI   C2B 8462  18.126   1.261   9.401  0.0552 -0.2009  0.1502
  529loPI   C3B 8463  18.309   1.249   9.068 -0.0398 -0.0262  0.2286
  529loPI   C4B 8464  18.526   1.152   8.839 -0.1395 -0.0247  0.3652
  530loPI    C1 8465  15.213  12.561  10.494  0.2228 -0.0881  0.1654
  530loPI    C2 8466  15.288  12.632  10.881 -0.1350  0.0698  0.2094
  530loPI    C3 8467  15.187  12.934  10.638 -0.1567 -0.0650  0.0491
  530loPI   PO4 8468  15.250  12.260  10.453 -0.1829  0.0050  0.0533
  530loPI   GL1 8469  15.463  12.163  10.136  0.1972 -0.2664 -0.0716
  530loPI   GL2 8470  15.659  11.911  10.037  0.0715 -0.1651  0.0256
  530loPI   C1A 8471  15.477  12.319   9.708 -0.0897  0.2208 -0.0775
  530loPI   C2A 8472  15.438  12.190   9.239  0.1137 -0.1185 -0.2634
  530loPI   C3A 8473  15.376  12.328   8.809 -0.0381  0.0744 -0.0553
  530loPI   C4A 8474  15.086  12.520   8.401 -0.0854  0.1346 -0.3244
  530loPI   C5A 8475  14.894  12.551   7.998 -0.2017 -0.0074  0.2941
  530loPI   C6A 8476  14.791  12.722   7.532  0.0173 -0.0723  0.2438
  530loPI   C1B 8477  15.683  11.898   9.559  0.0322 -0.1266  0.0145
  530loPI   C2B 8478  15.679  11.792   9.151 -0.0807  0.1484 -0.0625
  530loPI   C3B 8479  15.625  11.800   8.736 -0.2403  0.0645  0.0367
  530loPI   C4B 8480  15.402  12.068   8.376  0.0969 -0.1411 -0.3027
  531loPI    C1 8481   0.990  13.621  10.007 -0.1482 -0.1193  0.1348
  531loPI    C2 8482   1.007  13.386  10.329 -0.2109  0.0280  0.2469
  531loPI    C3 8483   1.288  13.665  10.270  0.1306 -0.3805 -0.1295
  531loPI   PO4 8484   0.718  13.690   9.989 -0.0932  0.1993 -0.0939
  531loPI   GL1 8485   0.598  13.508   9.658  0.1391 -0.1134  0.2450
  531loPI   GL2 8486   0.380  13.363   9.513  0.1386 -0.0139 -0.0007
  531loPI   C1A 8487   0.812  13.465   9.272 -0.2867 -0.3958  0.3147
  531loPI   C2A 8488   0.872  13.373   8.835 -0.0542 -0.0507 -0.0429
  531loPI   C3A 8489   0.992  13.612   8.463 -0.1519  0.1411  0.0225
  531loPI   C4A 8490   0.723  13.929   8.225 -0.1721 -0.0098 -0.1119
  531loPI   C5A 8491   0.951  14.301   8.114 -0.2645  0.1761 -0.0676
  531loPI   C6A 8492   0.931  14.811   8.096 -0.2653 -0.1420  0.0723
  531loPI   C1B 8493   0.433  13.260   9.056 -0.2870 -0.0161  0.2921
  531loPI   C2B 8494   0.375  13.180   8.654  0.0148 -0.0572 -0.0100
  531loPI   C3B 8495   0.183  12.983   8.319  0.0593 -0.2211 -0.1551
  531loPI   C4B 8496   0.039  12.739   8.019  0.1712  0.2231  0.0926
  532loPI    C1 8497   9.058   4.283  10.739  0.1155 -0.1498 -0.2511
  532loPI    C2 8498   9.202   4.459  11.068  0.0404 -0.1744 -0.2047
  532loPI    C3 8499   9.106   4.071  11.075 -0.1547 -0.1271 -0.1959
  532loPI   PO4 8500   9.216   4.276  10.452  0.0143 -0.1424  0.0184
  532loPI   GL1 8501   9.149   4.220   9.910 -0.0798  0.0445 -0.0182
  532loPI   GL2 8502   9.246   4.575  10.048 -0.2475  0.2925 -0.1292
  532loPI   C1A 8503   9.086   4.180   9.464  0.2368 -0.3777 -0.1191
  532loPI   C2A 8504   9.187   4.198   9.023  0.1943  0.1190  0.0213
  532loPI   C3A 8505   9.121   4.069   8.617 -0.1603  0.0357 -0.0229
  532loPI   C4A 8506   9.100   4.097   8.208 -0.2476 -0.1384 -0.2476
  532loPI   C5A 8507   9.102   4.039   7.883  0.1830 -0.0252  0.1662
  532loPI   C6A 8508   9.200   3.915   7.411  0.0371  0.3698 -0.0649
  532loPI   C1B 8509   9.453   4.511   9.671 -0.0362 -0.2122 -0.1414
  532loPI   C2B 8510   9.406   4.533   9.285  0.1097 -0.2626 -0.3338
  532loPI   C3B 8511   9.471   4.564   8.809 -0.1819  0.2048  0.1242
  532loPI   C4B 8512   9.480   4.447   8.409  0.4052  0.0826 -0.0930
  533loPI    C1 8513   8.169   3.321  10.508  0.2183 -0.0130  0.0733
  533loPI    C2 8514   8.476   3.574  10.554  0.1881  0.0601 -0.1190
  533loPI    C3 8515   8.112   3.673  10.688  0.2586 -0.0510  0.1608
  533loPI   PO4 8516   8.241   3.151  10.292  0.0757 -0.0505  0.2861
  533loPI   GL1 8517   8.195   3.284   9.945 -0.1104  0.0911  0.2802
  533loPI   GL2 8518   8.064   3.248   9.685  0.0152 -0.0897 -0.3081
  533loPI   C1A 8519   8.496   3.451   9.600  0.1585 -0.0112 -0.0585
  533loPI   C2A 8520   8.470   3.316   9.213 -0.1994 -0.0935 -0.3052
  533loPI   C3A 8521   8.436   3.289   8.778  0.3377  0.1613  0.1394
  533loPI   C4A 8522   8.470   3.253   8.360 -0.1387 -0.0655 -0.0478
  533loPI   C5A 8523   8.777   3.149   7.995  0.1883  0.0841  0.1236
  533loPI   C6A 8524   9.003   2.880   7.659 -0.0457  0.0579 -0.0231
  533loPI   C1B 8525   8.070   2.981   9.449  0.1482 -0.0364  0.0819
  533loPI   C2B 8526   8.116   2.944   9.067  0.0863  0.0875 -0.1299
  533loPI   C3B 8527   8.080   2.901   8.656 -0.1472 -0.3000 -0.3946
  533loPI   C4B 8528   8.245   2.769   8.309 -0.2043 -0.0049 -0.1158
  534loPI    C1 8529  16.609  11.116  10.614 -0.0038 -0.1709  0.1033
  534loPI    C2 8530  16.288  11.287  10.447  0.2364  0.0464 -0.1473
  534loPI    C3 8531  16.339  11.301  10.844  0.0885  0.2738 -0.1345
  534loPI   PO4 8532  16.720  11.119  10.401  0.0082  0.0222  0.2594
  534loPI   GL1 8533  16.726  11.214  10.032  0.0392 -0.1278 -0.0625
  534loPI   GL2 8534  16.863  10.897  10.000 -0.0403  0.0671  0.2700
  534loPI   C1A 8535  16.812  11.434   9.667  0.1561  0.2272 -0.1591
  534loPI   C2A 8536  16.400  11.530   9.537 -0.2869  0.1210 -0.1675
  534loPI   C3A 8537  16.232  11.766   9.144 -0.3801 -0.0130 -0.0797
  534loPI   C4A 8538  16.154  11.758   8.735 -0.0222  0.0399 -0.3593
  534loPI   C5A 8539  16.279  11.783   8.307 -0.0445 -0.0515 -0.0515
  534loPI   C6A 8540  16.406  11.976   8.014  0.0609  0.1577 -0.0166
  534loPI   C1B 8541  16.762  10.842   9.518 -0.3619 -0.0075 -0.0860
  534loPI   C2B 8542  16.964  10.741   9.143 -0.5445  0.3292 -0.1834
  534loPI   C3B 8543  17.199  10.846   8.774  0.1401  0.0477 -0.2181
  534loPI   C4B 8544  17.173  11.037   8.441  0.2573 -0.0045 -0.1703
  535loPI    C1 8545   9.357   0.270  10.723  0.1676  0.1412 -0.3122
  535loPI    C2 8546   9.753   0.214  10.719  0.1543 -0.0631  0.2551
  535loPI    C3 8547   9.530   0.039  11.001 -0.3589 -0.0419 -0.1238
  535loPI   PO4 8548   9.322   0.187  10.394  0.1529 -0.2540 -0.0675
  535loPI   GL1 8549   9.410   0.270  10.010 -0.0298 -0.3151  0.2535
  535loPI   GL2 8550   9.438   0.555   9.981 -0.1913 -0.1656  0.3028
  535loPI   C1A 8551   9.230   0.041   9.697 -0.1837  0.3218  0.1872
  535loPI   C2A 8552   9.201   0.152   9.342  0.1324 -0.4544  0.0679
  535loPI   C3A 8553   9.273   0.384   9.090 -0.0200  0.0968  0.1490
  535loPI   C4A 8554   9.171   0.378   8.655  0.1770  0.1115  0.0617
  535loPI   C5A 8555   9.210   0.348   8.292 -0.0140 -0.2282 -0.0335
  535loPI   C6A 8556   9.450   0.116   8.034  0.1379  0.2273 -0.0305
  535loPI   C1B 8557   9.373   0.582   9.521  0.0802 -0.1009 -0.1871
  535loPI   C2B 8558   9.509   0.834   9.114 -0.1488  0.1403 -0.0692
  535loPI   C3B 8559   9.500   0.791   8.701  0.3055  0.4807  0.3030
  535loPI   C4B 8560   9.514   0.778   8.307  0.1304 -0.1312  0.0999
  536loPI    C1 8561   2.908   3.493  10.619 -0.0600  0.0857  0.0811
  536loPI    C2 8562   2.934   3.874  10.737 -0.1666  0.0278  0.2955
  536loPI    C3 8563   2.862   3.586  11.005 -0.1307 -0.1386  0.1281
  536loPI   PO4 8564   2.953   3.582  10.291  0.0786 -0.0745  0.0764
  536loPI   GL1 8565   3.197   3.519   9.966  0.1062 -0.1255 -0.1456
  536loPI   GL2 8566   3.225   3.254   9.988  0.0843 -0.1509  0.1655
  536loPI   C1A 8567   3.129   3.540   9.532 -0.2996 -0.0678  0.0320
  536loPI   C2A 8568   3.040   3.248   9.235  0.0862  0.2434  0.1303
  536loPI   C3A 8569   3.246   3.195   8.806 -0.2307 -0.0230 -0.0633
  536loPI   C4A 8570   3.306   3.074   8.366  0.5172  0.1589 -0.0966
  536loPI   C5A 8571   3.653   3.022   8.110  0.1597 -0.2407 -0.2017
  536loPI   C6A 8572   4.102   2.877   8.111 -0.0558 -0.3685  0.1297
  536loPI   C1B 8573   2.993   2.964   9.716  0.2104 -0.0926 -0.2040
  536loPI   C2B 8574   2.847   2.819   9.281  0.1898 -0.0587 -0.2785
  536loPI   C3B 8575   2.824   2.737   8.930  0.0562  0.1429 -0.1144
  536loPI   C4B 8576   3.004   2.724   8.622  0.1431  0.1590  0.2455
  537loPI    C1 8577   8.759   6.837  10.446  0.2318  0.0967 -0.0535
  537loPI    C2 8578   8.641   6.534  10.213 -0.0091  0.0023  0.1859
  537loPI    C3 8579   9.028   6.577  10.303  0.0539 -0.1052 -0.0258
  537loPI   PO4 8580   8.782   7.092  10.305 -0.0482  0.3234  0.0026
  537loPI   GL1 8581   8.636   7.461  10.192 -0.0558 -0.0409 -0.1664
  537loPI   GL2 8582   8.816   7.401   9.896  0.0350 -0.0913 -0.4940
  537loPI   C1A 8583   8.229   7.625  10.075 -0.0425 -0.0946 -0.2247
  537loPI   C2A 8584   8.086   7.883   9.732 -0.1907 -0.0900  0.2835
  537loPI   C3A 8585   8.143   7.900   9.425  0.0162  0.0320  0.2414
  537loPI   C4A 8586   8.197   7.976   8.907 -0.0331  0.0602 -0.4541
  537loPI   C5A 8587   8.217   8.015   8.468 -0.0335  0.2340 -0.0204
  537loPI   C6A 8588   7.876   7.832   8.228  0.0451 -0.1609  0.0296
  537loPI   C1B 8589   8.930   7.339   9.583  0.3787 -0.1029  0.2050
  537loPI   C2B 8590   8.993   7.412   9.117 -0.0253  0.0086  0.1008
  537loPI   C3B 8591   9.001   7.543   8.625 -0.0690 -0.3479 -0.2106
  537loPI   C4B 8592   8.815   7.692   8.283 -0.0063 -0.4391  0.0404
  538loPI    C1 8593   0.218   8.157  10.502  0.1053  0.1200  0.2667
  538loPI    C2 8594  -0.053   8.446  10.451 -0.2489 -0.2033  0.2685
  538loPI    C3 8595   0.052   8.334  10.820  0.0787  0.0895  0.2697
  538loPI   PO4 8596   0.117   7.970  10.287 -0.0433  0.0054 -0.0460
  538loPI   GL1 8597   0.104   7.965   9.793  0.0205 -0.2344  0.0859
  538loPI   GL2 8598  -0.121   7.725   9.628  0.1411 -0.1193  0.0948
  538loPI   C1A 8599  -0.023   8.355   9.453  0.2542 -0.2203  0.0712
  538loPI   C2A 8600  -0.364   8.345   9.126 -0.2255 -0.0432 -0.1276
  538loPI   C3A 8601  -0.562   8.485   8.803 -0.0854  0.1107 -0.0332
  538loPI   C4A 8602  -0.937   8.479   8.501 -0.0535 -0.1589  0.0673
  538loPI   C5A 8603  -0.947   8.741   8.082  0.0039  0.1187 -0.2549
  538loPI   C6A 8604  -1.285   8.707   7.732 -0.0173 -0.1167  0.2112
  538loPI   C1B 8605  -0.238   7.726   9.212  0.2205  0.1646  0.3228
  538loPI   C2B 8606  -0.303   7.833   8.808 -0.2542 -0.0383 -0.0080
  538loPI   C3B 8607  -0.221   8.256   8.507 -0.3570 -0.2001  0.4277
  538loPI   C4B 8608  -0.548   8.327   8.164  0.0978 -0.2427 -0.0953
  539loPI    C1 8609   4.659   0.345  10.286  0.0806  0.0379  0.0846
  539loPI    C2 8610   4.339   0.441  10.507 -0.0343  0.1533 -0.1291
  539loPI    C3 8611   4.524   0.722  10.289  0.0766  0.0407 -0.1813
  539loPI   PO4 8612   4.724   0.167  10.357 -0.0988  0.0837 -0.3025
  539loPI   GL1 8613   4.966  -0.098  10.126  0.1625 -0.2663  0.1288
  539loPI   GL2 8614   4.706  -0.333   9.987  0.3718  0.1583  0.1358
  539loPI   C1A 8615   4.936   0.086   9.684  0.3925  0.0919 -0.4834
  539loPI   C2A 8616   4.759   0.142   9.291  0.0772 -0.1394 -0.1910
  539loPI   C3A 8617   4.815   0.290   8.862 -0.0149  0.0866  0.1052
  539loPI   C4A 8618   4.682   0.355   8.387  0.2794 -0.3121 -0.0062
  539loPI   C5A 8619   4.665   0.185   8.058  0.1966 -0.1094  0.2416
  539loPI   C6A 8620   4.384  -0.013   7.877 -0.2715 -0.2459  0.0630
  539loPI   C1B 8621   4.589  -0.322   9.520  0.1071  0.0338  0.0425
  539loPI   C2B 8622   4.679  -0.319   9.175  0.1513  0.2538  0.1006
  539loPI   C3B 8623   4.710  -0.202   8.765  0.0395 -0.3283  0.1023
  539loPI   C4B 8624   4.608  -0.224   8.362  0.0178  0.1253  0.2086
  540loPI    C1 8625   4.489   5.248  10.408  0.1004 -0.2390  0.0666
  540loPI    C2 8626   4.469   5.614  10.567 -0.3220 -0.2262 -0.0044
  540loPI    C3 8627   4.594   5.306  10.789  0.1466 -0.0254  0.0230
  540loPI   PO4 8628   4.483   5.392  10.159  0.0047 -0.0783 -0.2410
  540loPI   GL1 8629   4.653   5.291   9.682 -0.1134 -0.2335  0.2052
  540loPI   GL2 8630   4.969   5.382   9.797  0.5115  0.0684  0.3047
  540loPI   C1A 8631   4.498   5.419   9.249 -0.0169 -0.1937  0.1385
  540loPI   C2A 8632   4.447   5.396   8.830  0.1206  0.0707  0.0497
  540loPI   C3A 8633   4.412   5.303   8.330 -0.0242  0.0910 -0.0717
  540loPI   C4A 8634   4.573   5.168   7.967  0.0553  0.1043 -0.0756
  540loPI   C5A 8635   4.810   5.031   7.540 -0.2716 -0.1231  0.0122
  540loPI   C6A 8636   5.215   4.963   7.499 -0.0689 -0.0817  0.0614
  540loPI   C1B 8637   4.965   5.602   9.381  0.2505  0.2386  0.0431
  540loPI   C2B 8638   5.035   5.611   9.010  0.0959 -0.0618  0.0589
  540loPI   C3B 8639   4.914   5.532   8.536  0.2850  0.0301  0.0725
  540loPI   C4B 8640   4.916   5.581   8.052 -0.0537  0.0553  0.1282
  541POPI    C1 8641   4.952  16.683  10.316 -0.1001  0.3102  0.0371
  541POPI    C2 8642   5.234  16.539  10.561 -0.0740  0.0996 -0.1146
  541POPI    C3 8643   5.251  16.919  10.438  0.0496  0.1357  0.0117
  541POPI   PO4 8644   4.837  16.390  10.250 -0.4221 -0.2024 -0.2353
  541POPI   GL1 8645   5.085  16.098  10.061 -0.0605  0.1052 -0.4430
  541POPI   GL2 8646   4.771  15.959   9.968 -0.1318  0.1731  0.0503
  541POPI   C1A 8647   5.191  16.276   9.655  0.2774  0.0182  0.0651
  541POPI   D2A 8648   5.525  16.526   9.496  0.2158  0.3453 -0.1103
  541POPI   C3A 8649   5.567  16.568   9.024  0.1708  0.0760 -0.5107
  541POPI   C4A 8650   5.710  16.472   8.612 -0.4313  0.1488  0.1312
  541POPI   C1B 8651   4.704  16.178   9.540  0.0336 -0.2170 -0.0688
  541POPI   C2B 8652   4.580  16.105   9.171 -0.0701 -0.1240  0.1214
  541POPI   C3B 8653   4.732  16.044   8.818  0.0897 -0.1293 -0.4440
  541POPI   C4B 8654   5.153  15.796   8.755 -0.1518  0.0956  0.0451
  542POPI    C1 8655   2.402   9.057   9.702  0.1665  0.0650 -0.0525
  542POPI    C2 8656   2.745   9.256   9.750  0.0075  0.2725  0.2592
  542POPI    C3 8657   2.421   9.364   9.957 -0.2542  0.0925 -0.0475
  542POPI   PO4 8658   2.333   9.160   9.387  0.0465 -0.0828  0.1784
  542POPI   GL1 8659   2.508   9.239   8.964  0.1565 -0.2676 -0.2150
  542POPI   GL2 8660   2.734   9.018   8.840  0.0158  0.1222  0.1903
  542POPI   C1A 8661   2.361   9.356   8.565 -0.2362  0.1928 -0.3683
  542POPI   D2A 8662   2.162   9.221   8.220 -0.2654 -0.0459  0.1660
  542POPI   C3A 8663   2.320   9.304   7.709  0.6072  0.0719  0.2476
  542POPI   C4A 8664   2.172   9.197   7.312 -0.0043 -0.0433 -0.1564
  542POPI   C1B 8665   2.834   9.232   8.441  0.0972  0.1557 -0.2590
  542POPI   C2B 8666   2.635   9.365   8.038  0.2229  0.0689 -0.0036
  542POPI   C3B 8667   2.561   9.730   7.780  0.1772  0.2069 -0.0324
  542POPI   C4B 8668   2.477  10.144   7.866 -0.1617 -0.2227 -0.0909
  543POPI    C1 8669  14.725  17.181  10.358 -0.0580  0.2302 -0.3171
  543POPI    C2 8670  15.117  17.123  10.303 -0.0243 -0.0541  0.1619
  543POPI    C3 8671  14.990  17.382  10.580 -0.1738 -0.1323  0.1672
  543POPI   PO4 8672  14.588  17.264  10.136  0.2465 -0.1342  0.0827
  543POPI   GL1 8673  14.489  17.341   9.700  0.0321  0.0583 -0.0493
  543POPI   GL2 8674  14.793  17.478   9.737  0.2601 -0.2631 -0.0616
  543POPI   C1A 8675  14.514  17.178   9.257 -0.0043 -0.1563  0.3207
  543POPI   D2A 8676  14.508  17.281   8.826 -0.2407  0.2263  0.0921
  543POPI   C3A 8677  14.541  17.162   8.353  0.0937  0.4035  0.1501
  543POPI   C4A 8678  14.732  17.012   7.950  0.4811  0.1714 -0.0312
  543POPI   C1B 8679  14.746  17.598   9.168  0.2404  0.2728 -0.0895
  543POPI   C2B 8680  14.549  17.793   8.780  0.1677 -0.0518  0.2155
  543POPI   C3B 8681  14.424  18.070   8.381 -0.3322 -0.3407 -0.1428
  543POPI   C4B 8682  14.638  18.154   7.941  0.1964  0.0376  0.0826
  544POPI    C1 8683  18.438  18.281  10.847 -0.0941  0.1586 -0.1835
  544POPI    C2 8684  18.247  17.930  10.829 -0.2272  0.2252 -0.0818
  544POPI    C3 8685  18.064  18.250  10.985 -0.0863  0.3266 -0.1227
  544POPI   PO4 8686  18.531  18.307  10.540  0.1451  0.1368 -0.2599
  544POPI   GL1 8687  18.361  18.403  10.076  0.0321  0.0803  0.1370
  544POPI   GL2 8688  18.094  18.525  10.016  0.0105  0.0611 -0.0722
  544POPI   C1A 8689  18.471  18.487   9.721 -0.1227 -0.1063  0.2015
  544POPI   D2A 8690  18.596  18.478   9.222 -0.0213  0.0842 -0.1114
  544POPI   C3A 8691  18.411  18.821   8.974  0.1228 -0.1801  0.1699
  544POPI   C4A 8692  18.426  19.118   8.687  0.0235  0.0338  0.0002
  544POPI   C1B 8693  17.967  18.440   9.735  0.1229 -0.1182 -0.3973
  544POPI   C2B 8694  18.168  18.276   9.305 -0.1643  0.0618 -0.0733
  544POPI   C3B 8695  18.180  18.391   8.917 -0.1711  0.1505  0.3115
  544POPI   C4B 8696  18.053  18.502   8.538  0.1668 -0.1150  0.0187
  545POPI    C1 8697   1.674   7.838   9.568 -0.0475 -0.1147 -0.1857
  545POPI    C2 8698   1.425   8.113   9.718  0.0373 -0.1259 -0.0219
  545POPI    C3 8699   1.552   7.811   9.948  0.1732 -0.1406 -0.1151
  545POPI   PO4 8700   1.814   7.958   9.423 -0.0742 -0.1320  0.1714
  545POPI   GL1 8701   2.062   7.714   9.143 -0.0309  0.0641  0.0238
  545POPI   GL2 8702   2.227   7.923   8.981 -0.3251  0.2070  0.1644
  545POPI   C1A 8703   1.856   7.615   8.804 -0.0316 -0.3001  0.1327
  545POPI   D2A 8704   1.630   7.493   8.387 -0.0574 -0.0623 -0.1657
  545POPI   C3A 8705   1.322   7.570   8.052  0.0143 -0.1757  0.1310
  545POPI   C4A 8706   0.967   7.708   7.960 -0.0548  0.0471 -0.1361
  545POPI   C1B 8707   2.182   7.988   8.629  0.0032  0.1115  0.0099
  545POPI   C2B 8708   2.112   7.795   8.251  0.2652  0.0907  0.0762
  545POPI   C3B 8709   1.939   7.641   7.863  0.0848 -0.0431  0.1189
  545POPI   C4B 8710   1.690   7.408   7.546 -0.1609 -0.0182 -0.1259
  546POPI    C1 8711  17.658   4.158  10.380  0.2849 -0.1189  0.0566
  546POPI    C2 8712  17.560   4.100  10.764 -0.0018 -0.1070 -0.0127
  546POPI    C3 8713  17.682   4.461  10.641  0.0237 -0.0932  0.0525
  546POPI   PO4 8714  17.499   4.135  10.233  0.0679 -0.2161  0.0783
  546POPI   GL1 8715  17.529   3.857   9.857 -0.0425  0.1403  0.0609
  546POPI   GL2 8716  17.764   3.703   9.832 -0.4541 -0.1578  0.1908
  546POPI   C1A 8717  17.307   4.016   9.516  0.0597 -0.3826  0.0295
  546POPI   D2A 8718  17.239   4.048   9.052 -0.3019 -0.3171  0.2243
  546POPI   C3A 8719  17.221   3.722   8.843 -0.1232  0.0375 -0.0493
  546POPI   C4A 8720  17.402   3.432   8.624  0.0560 -0.1140 -0.1483
  546POPI   C1B 8721  17.805   3.902   9.375  0.1393 -0.4184  0.0569
  546POPI   C2B 8722  17.720   4.192   9.095 -0.1016  0.1122 -0.0163
  546POPI   C3B 8723  17.714   4.176   8.711  0.0866 -0.0907  0.5225
  546POPI   C4B 8724  17.921   4.102   8.381  0.0358 -0.0454 -0.1406
  547POPI    C1 8725   1.027   7.822   9.990 -0.0772 -0.0059 -0.2817
  547POPI    C2 8726   1.100   7.486  10.194  0.0293  0.1366 -0.0806
  547POPI    C3 8727   1.217   7.838  10.341 -0.2479  0.2820 -0.1991
  547POPI   PO4 8728   1.055   7.754   9.725 -0.0455 -0.0828 -0.0987
  547POPI   GL1 8729   1.185   7.854   9.368 -0.1092 -0.4855 -0.0708
  547POPI   GL2 8730   1.195   8.205   9.287 -0.2832 -0.0829 -0.2078
  547POPI   C1A 8731   1.083   7.783   8.977 -0.0948 -0.1384 -0.1540
  547POPI   D2A 8732   1.167   7.800   8.521 -0.0454  0.0258  0.2299
  547POPI   C3A 8733   1.216   8.140   8.236 -0.4000  0.0394 -0.2244
  547POPI   C4A 8734   1.127   8.294   7.809  0.2779  0.1812  0.2151
  547POPI   C1B 8735   1.255   8.394   8.894  0.1723  0.3067  0.1400
  547POPI   C2B 8736   0.984   8.354   8.645 -0.2388  0.2542  0.1305
  547POPI   C3B 8737   0.762   8.421   8.237  0.1500  0.2718  0.1340
  547POPI   C4B 8738   0.702   8.626   7.815 -0.2228 -0.1622  0.2529
  548POPI    C1 8739  15.332  17.976  10.409  0.3634  0.0333  0.0222
  548POPI    C2 8740  15.302  18.321  10.610 -0.0833  0.0427 -0.0504
  548POPI    C3 8741  15.548  18.034  10.741 -0.1978  0.1349  0.3840
  548POPI   PO4 8742  15.127  17.909  10.296 -0.1939 -0.1974 -0.3559
  548POPI   GL1 8743  15.151  17.547  10.095  0.1184 -0.2376  0.1656
  548POPI   GL2 8744  15.543  17.671  10.047  0.3790 -0.2470 -0.0779
  548POPI   C1A 8745  15.184  17.714   9.640 -0.1576 -0.0199 -0.0147
  548POPI   D2A 8746  15.297  17.664   9.210 -0.1559 -0.1860  0.1102
  548POPI   C3A 8747  15.078  17.651   8.791 -0.1726  0.1200 -0.0716
  548POPI   C4A 8748  14.922  17.832   8.362  0.1173  0.1243 -0.0898
  548POPI   C1B 8749  15.603  17.412   9.669 -0.1060  0.0445 -0.0792
  548POPI   C2B 8750  15.665  17.317   9.305 -0.0818  0.0174 -0.0704
  548POPI   C3B 8751  15.540  17.253   8.860  0.0448 -0.1619  0.2587
  548POPI   C4B 8752  15.465  17.370   8.531  0.0933 -0.1414  0.0422
  549POPI    C1 8753   5.699  12.384  10.128 -0.2254 -0.1899 -0.0839
  549POPI    C2 8754   5.619  12.304  10.511 -0.2181  0.0648 -0.0272
  549POPI    C3 8755   5.830  12.629  10.415  0.1118 -0.2007 -0.2235
  549POPI   PO4 8756   5.512  12.395   9.963 -0.2638  0.0550  0.1331
  549POPI   GL1 8757   5.384  12.497   9.592 -0.2804  0.0108  0.0360
  549POPI   GL2 8758   5.728  12.547   9.483  0.2962  0.1243 -0.2406
  549POPI   C1A 8759   5.113  12.753   9.246 -0.1409  0.1482  0.1202
  549POPI   D2A 8760   4.771  12.624   9.052  0.1901  0.3332 -0.0886
  549POPI   C3A 8761   4.500  12.624   8.643  0.1676 -0.0521 -0.0050
  549POPI   C4A 8762   4.451  12.407   8.210  0.1754  0.1195 -0.0277
  549POPI   C1B 8763   5.544  12.500   9.109  0.4505  0.1939 -0.0527
  549POPI   C2B 8764   5.170  12.347   8.966 -0.0005  0.0164  0.0600
  549POPI   C3B 8765   4.954  12.434   8.563 -0.0010 -0.1565  0.1766
  549POPI   C4B 8766   4.907  12.673   8.105 -0.1415 -0.1136  0.1097
  550POPI    C1 8767   0.535  15.988  10.078 -0.1087  0.1360 -0.1093
  550POPI    C2 8768   0.604  16.065  10.465 -0.3165  0.0380 -0.0516
  550POPI    C3 8769   0.656  15.695  10.322 -0.1700  0.0897 -0.1344
  550POPI   PO4 8770   0.353  16.211  10.048  0.0519 -0.1372 -0.0030
  550POPI   GL1 8771   0.326  16.403   9.737 -0.0397 -0.3807  0.0711
  550POPI   GL2 8772   0.694  16.294   9.733  0.2097  0.0326 -0.3053
  550POPI   C1A 8773   0.273  16.477   9.278  0.0165  0.0866 -0.1325
  550POPI   D2A 8774   0.310  16.628   8.899  0.0016 -0.0997  0.0972
  550POPI   C3A 8775   0.288  16.478   8.516 -0.0635 -0.3096 -0.0343
  550POPI   C4A 8776   0.293  16.472   8.065 -0.0591 -0.2225  0.0193
  550POPI   C1B 8777   0.627  16.082   9.437 -0.0514  0.0178 -0.1652
  550POPI   C2B 8778   0.598  16.139   8.968  0.1461 -0.2382 -0.1795
  550POPI   C3B 8779   0.504  16.019   8.493 -0.0564  0.1924  0.2126
  550POPI   C4B 8780   0.628  15.675   8.309 -0.4884 -0.1984 -0.0113
  551POPI    C1 8781   0.064   5.962   9.865 -0.1969  0.0691  0.0798
  551POPI    C2 8782  -0.189   5.653   9.880 -0.0964 -0.0214 -0.0610
  551POPI    C3 8783  -0.148   5.894  10.197 -0.1935 -0.1372  0.0409
  551POPI   PO4 8784   0.043   6.113   9.591  0.1741  0.1209  0.0804
  551POPI   GL1 8785   0.013   6.406   9.331  0.1897 -0.1148  0.1394
  551POPI   GL2 8786  -0.355   6.435   9.436 -0.1876  0.0201 -0.0195
  551POPI   C1A 8787   0.017   6.399   8.915 -0.1023  0.2931  0.3832
  551POPI   D2A 8788  -0.087   6.484   8.619 -0.0824 -0.0470  0.0483
  551POPI   C3A 8789  -0.133   6.536   8.228  0.1697  0.2157  0.0915
  551POPI   C4A 8790  -0.195   6.372   7.866 -0.2276 -0.3182  0.1004
  551POPI   C1B 8791  -0.262   6.788   9.107  0.0685 -0.0404  0.0343
  551POPI   C2B 8792  -0.375   6.860   8.722  0.0367 -0.4991  0.2461
  551POPI   C3B 8793  -0.461   6.934   8.208 -0.4396  0.0383  0.1128
  551POPI   C4B 8794  -0.508   7.227   7.853 -0.0343  0.0748 -0.0178
  552POPI    C1 8795   2.319   7.341   9.755  0.0343 -0.0947 -0.1978
  552POPI    C2 8796   2.534   7.061   9.568  0.0274 -0.2047 -0.0426
  552POPI    C3 8797   2.144   7.002   9.634  0.0261 -0.1587 -0.0093
  552POPI   PO4 8798   2.384   7.565   9.602  0.1070 -0.0780 -0.4205
  552POPI   GL1 8799   2.542   7.518   9.254 -0.3118 -0.0152  0.0633
  552POPI   GL2 8800   2.840   7.439   9.408  0.2474  0.1546 -0.1432
  552POPI   C1A 8801   2.597   7.587   8.786 -0.3319  0.0085  0.0647
  552POPI   D2A 8802   2.542   7.566   8.298 -0.1671  0.1298 -0.0555
  552POPI   C3A 8803   2.869   7.448   8.017 -0.0528  0.2385 -0.1301
  552POPI   C4A 8804   2.920   7.097   7.779  0.1646 -0.0686  0.1200
  552POPI   C1B 8805   3.061   7.317   9.075  0.1299 -0.4748  0.0696
  552POPI   C2B 8806   3.132   7.290   8.734 -0.0127  0.3938  0.2115
  552POPI   C3B 8807   3.033   7.085   8.261 -0.1437  0.3931 -0.0559
  552POPI   C4B 8808   2.866   6.714   8.171 -0.1366 -0.3011 -0.1840
  553POPI    C1 8809   8.557   0.221  10.445  0.2714  0.2372  0.1338
  553POPI    C2 8810   8.483  -0.108  10.659 -0.0655 -0.0238 -0.3632
  553POPI    C3 8811   8.851   0.048  10.652 -0.0021 -0.1248  0.2293
  553POPI   PO4 8812   8.540   0.133  10.215  0.2067 -0.0300 -0.2012
  553POPI   GL1 8813   8.782  -0.053  10.011  0.0919 -0.1074 -0.0042
  553POPI   GL2 8814   9.151  -0.243  10.134  0.1355 -0.1956 -0.3264
  553POPI   C1A 8815   8.728  -0.079   9.540  0.1232 -0.1129 -0.0680
  553POPI   D2A 8816   8.892   0.018   8.986 -0.1986  0.0205  0.2740
  553POPI   C3A 8817   8.957  -0.130   8.632  0.1230 -0.0347 -0.1012
  553POPI   C4A 8818   9.037  -0.167   8.154  0.0590  0.1803 -0.0181
  553POPI   C1B 8819   9.185  -0.434   9.797  0.0523  0.0496  0.1622
  553POPI   C2B 8820   9.042  -0.375   9.367 -0.0113 -0.4655 -0.1803
  553POPI   C3B 8821   9.079  -0.502   8.901 -0.2837  0.1284 -0.2953
  553POPI   C4B 8822   9.132  -0.564   8.469  0.2887  0.0784 -0.0303
  554POPI    C1 8823   3.350   3.898  10.456 -0.0525  0.1717 -0.0333
  554POPI    C2 8824   3.718   3.894  10.611 -0.0405  0.1588 -0.0619
  554POPI    C3 8825   3.426   4.097  10.794 -0.1148 -0.1558  0.1787
  554POPI   PO4 8826   3.385   3.943  10.162 -0.0876  0.1681 -0.3083
  554POPI   GL1 8827   3.271   3.978   9.745  0.0159 -0.0363  0.0201
  554POPI   GL2 8828   3.672   4.008   9.737  0.0734  0.1571  0.1177
  554POPI   C1A 8829   3.102   3.998   9.315 -0.0994  0.1636 -0.0199
  554POPI   D2A 8830   3.224   3.695   8.987  0.1326  0.0259 -0.2081
  554POPI   C3A 8831   3.318   3.858   8.693  0.0116  0.3142 -0.0895
  554POPI   C4A 8832   3.093   3.619   8.434 -0.2219 -0.0775  0.1440
  554POPI   C1B 8833   3.649   3.932   9.319  0.2586 -0.1314  0.3898
  554POPI   C2B 8834   3.697   4.004   8.940  0.0410 -0.0703 -0.2256
  554POPI   C3B 8835   3.780   4.067   8.449 -0.0025  0.1359  0.0751
  554POPI   C4B 8836   3.927   4.049   7.957  0.1567 -0.0843 -0.3563
  555POPI    C1 8837  10.842   7.783  10.865 -0.1522  0.0170 -0.0751
  555POPI    C2 8838  10.521   7.767  11.103  0.0718 -0.1453  0.2219
  555POPI    C3 8839  10.724   7.433  11.018  0.0923 -0.0624 -0.0644
  555POPI   PO4 8840  10.752   8.007  10.577 -0.2481  0.3308  0.0014
  555POPI   GL1 8841  10.604   7.903  10.145  0.0274 -0.2161  0.1834
  555POPI   GL2 8842  10.421   8.140  10.165 -0.1662  0.1824 -0.0087
  555POPI   C1A 8843  10.958   7.870   9.730  0.1144  0.1312  0.0777
  555POPI   D2A 8844  11.043   8.275   9.459 -0.3170 -0.1251  0.1511
  555POPI   C3A 8845  11.452   8.469   9.502 -0.0889  0.2054  0.4306
  555POPI   C4A 8846  11.726   8.722   9.581 -0.4958 -0.0232  0.0797
  555POPI   C1B 8847  10.597   8.253   9.804 -0.0342  0.1288 -0.1492
  555POPI   C2B 8848  10.527   8.296   9.410  0.2139 -0.0514 -0.0850
  555POPI   C3B 8849  10.331   8.385   9.040  0.1050  0.0048 -0.2498
  555POPI   C4B 8850  10.117   8.100   8.684  0.2638 -0.3983 -0.2159
  556POPI    C1 8851   5.767   7.818  10.586  0.3670 -0.1106  0.2075
  556POPI    C2 8852   5.657   7.649  10.931  0.2596 -0.0155  0.2204
  556POPI    C3 8853   5.730   8.042  10.915  0.0181  0.0258  0.0803
  556POPI   PO4 8854   5.787   7.623  10.426 -0.1228  0.2285  0.2284
  556POPI   GL1 8855   5.966   7.615  10.014  0.0856 -0.1019 -0.0791
  556POPI   GL2 8856   6.265   7.542  10.029 -0.2959  0.1511 -0.1938
  556POPI   C1A 8857   5.855   7.636   9.585 -0.1445  0.0257 -0.1717
  556POPI   D2A 8858   5.940   7.379   9.216  0.1895  0.0022 -0.3827
  556POPI   C3A 8859   6.070   6.945   9.076 -0.1730  0.1205 -0.0635
  556POPI   C4A 8860   5.777   6.626   9.055  0.0210  0.1283 -0.1616
  556POPI   C1B 8861   6.312   7.457   9.597  0.1557 -0.0212  0.0233
  556POPI   C2B 8862   6.471   7.346   9.145 -0.0014  0.0869 -0.1858
  556POPI   C3B 8863   6.729   7.296   8.664 -0.0199 -0.2389  0.0410
  556POPI   C4B 8864   6.993   7.496   8.406  0.0542  0.1571 -0.0685
  557POPI    C1 8865   6.271  15.145  10.747  0.0400 -0.1241 -0.2716
  557POPI    C2 8866   5.889  15.026  10.738 -0.0118  0.0124  0.0086
  557POPI    C3 8867   6.169  14.789  10.898 -0.0585  0.1114  0.2423
  557POPI   PO4 8868   6.358  15.216  10.385  0.0540 -0.2030 -0.2513
  557POPI   GL1 8869   6.204  15.510   9.994  0.1618 -0.4034 -0.0616
  557POPI   GL2 8870   6.136  15.215   9.882 -0.0607 -0.0037  0.0136
  557POPI   C1A 8871   6.344  15.450   9.483 -0.1496  0.2276  0.5135
  557POPI   D2A 8872   6.168  15.321   9.031 -0.2282 -0.1357  0.1230
  557POPI   C3A 8873   6.290  15.337   8.664 -0.0741 -0.3952 -0.0187
  557POPI   C4A 8874   6.321  15.453   8.301  0.2813 -0.0116 -0.1988
  557POPI   C1B 8875   6.045  14.989   9.444  0.0404 -0.3584 -0.1009
  557POPI   C2B 8876   5.770  14.980   9.129 -0.1844 -0.1232  0.0460
  557POPI   C3B 8877   5.857  15.096   8.690 -0.0243  0.0406 -0.3219
  557POPI   C4B 8878   5.561  15.262   8.486 -0.0870  0.4840 -0.2047
  558POPI    C1 8879   8.828  17.953  10.594  0.0086 -0.0447  0.1563
  558POPI    C2 8880   8.532  17.948  10.863  0.0752  0.1903  0.2366
  558POPI    C3 8881   8.888  18.102  10.960  0.1325  0.1810  0.0461
  558POPI   PO4 8882   8.748  18.052  10.362 -0.0761 -0.2768 -0.0000
  558POPI   GL1 8883   8.626  17.864  10.022 -0.1891 -0.2519  0.0347
  558POPI   GL2 8884   8.774  17.606   9.941  0.1479  0.0450  0.2495
  558POPI   C1A 8885   8.526  17.867   9.526 -0.1213  0.1033  0.4037
  558POPI   D2A 8886   8.578  18.047   9.085 -0.0332 -0.1282 -0.1350
  558POPI   C3A 8887   8.613  18.013   8.627  0.2976 -0.1270 -0.1165
  558POPI   C4A 8888   8.639  17.943   8.268  0.1250 -0.1420 -0.1546
  558POPI   C1B 8889   8.934  17.587   9.461  0.1830  0.1590 -0.0833
  558POPI   C2B 8890   8.821  17.573   8.992 -0.1504  0.4538  0.0679
  558POPI   C3B 8891   8.780  17.509   8.487  0.0904 -0.0996  0.1148
  558POPI   C4B 8892   8.673  17.450   8.094  0.2733  0.1103 -0.1513
  559POPI    C1 8893  12.858  13.996  10.370 -0.2143  0.3861 -0.1689
  559POPI    C2 8894  13.102  13.935  10.680  0.0158  0.2403 -0.3748
  559POPI    C3 8895  12.740  14.094  10.739 -0.0804 -0.1044  0.0117
  559POPI   PO4 8896  13.039  14.142  10.192 -0.3108  0.4797 -0.1889
  559POPI   GL1 8897  12.873  14.133   9.754  0.1122  0.1710 -0.0910
  559POPI   GL2 8898  12.737  14.248   9.493 -0.0210 -0.0772  0.0099
  559POPI   C1A 8899  12.979  13.839   9.540 -0.0225 -0.1318  0.1933
  559POPI   D2A 8900  13.123  13.444   9.657  0.1099  0.3569  0.1755
  559POPI   C3A 8901  13.255  13.169   9.279  0.1277 -0.1996 -0.2092
  559POPI   C4A 8902  13.103  13.050   8.902  0.1389  0.1656  0.0434
  559POPI   C1B 8903  12.854  14.002   9.128  0.1450 -0.1546  0.0545
  559POPI   C2B 8904  13.015  14.013   8.785 -0.2637 -0.3077  0.1494
  559POPI   C3B 8905  13.066  13.815   8.304 -0.0034  0.0281 -0.1800
  559POPI   C4B 8906  13.345  13.921   7.997  0.1501  0.0436  0.1473
  560POPI    C1 8907  10.131  13.625  10.661  0.0656  0.0461 -0.1446
  560POPI    C2 8908   9.956  13.929  10.853  0.2864  0.0742  0.0165
  560POPI    C3 8909   9.964  13.565  11.020  0.0517 -0.0149 -0.1611
  560POPI   PO4 8910   9.964  13.489  10.389  0.1606 -0.0379 -0.2337
  560POPI   GL1 8911   9.758  13.627  10.012  0.0145 -0.0622 -0.4234
  560POPI   GL2 8912   9.889  13.410   9.830 -0.0139  0.2906 -0.1452
  560POPI   C1A 8913   9.488  13.730   9.658  0.1096 -0.2076 -0.0833
  560POPI   D2A 8914   9.207  13.943   9.490 -0.0434  0.0338  0.0007
  560POPI   C3A 8915   9.174  14.318   9.378  0.1401 -0.0140 -0.0795
  560POPI   C4A 8916   8.960  14.667   9.413 -0.1317  0.1003  0.1693
  560POPI   C1B 8917   9.752  13.300   9.464 -0.0765 -0.3567  0.1927
  560POPI   C2B 8918   9.667  13.274   8.959 -0.1724 -0.1558 -0.1393
  560POPI   C3B 8919   9.693  13.170   8.517  0.0441  0.0401  0.0331
  560POPI   C4B 8920   9.921  13.291   8.159 -0.0892 -0.0919 -0.2492
  561POPI    C1 8921   0.701   1.411  10.224  0.0396 -0.0969 -0.0925
  561POPI    C2 8922   0.478   1.547  10.527  0.1425  0.1901 -0.1419
  561POPI    C3 8923   0.763   1.274  10.595 -0.2187 -0.1818 -0.0789
  561POPI   PO4 8924   0.668   1.685  10.072  0.1647 -0.0411 -0.0274
  561POPI   GL1 8925   0.460   1.600   9.690  0.0248  0.1711 -0.0771
  561POPI   GL2 8926   0.622   1.344   9.728 -0.2378 -0.1238 -0.2201
  561POPI   C1A 8927   0.405   1.561   9.268  0.0623  0.2494  0.0766
  561POPI   D2A 8928   0.127   1.672   8.985 -0.2130 -0.0575  0.1768
  561POPI   C3A 8929  -0.095   1.561   8.479 -0.1970  0.0873 -0.0757
  561POPI   C4A 8930  -0.485   1.640   8.218  0.1004 -0.1634 -0.0091
  561POPI   C1B 8931   0.882   1.423   9.323 -0.2330  0.2879 -0.2586
  561POPI   C2B 8932   1.028   1.615   8.913 -0.0682 -0.0304  0.1992
  561POPI   C3B 8933   0.894   1.580   8.485  0.0212 -0.1266 -0.1221
  561POPI   C4B 8934   0.867   1.436   8.091  0.0907 -0.1720 -0.1657
  562POPI    C1 8935  16.510   2.889  10.192  0.0084  0.3435 -0.0683
  562POPI    C2 8936  16.508   3.155  10.491 -0.1450 -0.1372  0.3743
  562POPI    C3 8937  16.174   3.088  10.281 -0.0547  0.1518  0.1315
  562POPI   PO4 8938  16.652   2.942   9.998 -0.0291  0.2473  0.2187
  562POPI   GL1 8939  16.886   2.813   9.787 -0.3023 -0.0545 -0.2774
  562POPI   GL2 8940  17.139   2.605   9.691  0.2123  0.0261 -0.1422
  562POPI   C1A 8941  17.109   3.016   9.369 -0.2077  0.1433  0.0684
  562POPI   D2A 8942  17.147   3.185   9.024 -0.2404  0.0639 -0.2151
  562POPI   C3A 8943  17.017   3.098   8.640 -0.1165 -0.2730  0.2987
  562POPI   C4A 8944  17.004   3.314   8.251  0.1122 -0.5051  0.1790
  562POPI   C1B 8945  17.428   2.611   9.250  0.0496  0.1326 -0.0892
  562POPI   C2B 8946  17.606   2.611   8.885  0.0081  0.3374  0.1021
  562POPI   C3B 8947  17.748   2.402   8.480 -0.0230  0.2713 -0.0746
  562POPI   C4B 8948  17.903   2.498   8.136 -0.2029 -0.2836 -0.2011
  563POPI    C1 8949  14.388  10.942  10.327  0.0089 -0.1092 -0.2112
  563POPI    C2 8950  14.353  11.329  10.232  0.1389 -0.0449 -0.0050
  563POPI    C3 8951  14.574  11.220  10.547 -0.2261 -0.2566  0.1851
  563POPI   PO4 8952  14.510  10.831  10.170  0.1834 -0.0859 -0.2392
  563POPI   GL1 8953  14.756  10.716   9.881  0.1413 -0.0091  0.4200
  563POPI   GL2 8954  15.056  10.601   9.958 -0.1011  0.0706 -0.3086
  563POPI   C1A 8955  14.826  10.604   9.454  0.2995  0.1366  0.2091
  563POPI   D2A 8956  14.798  10.530   9.097  0.0483 -0.0129 -0.1709
  563POPI   C3A 8957  14.867  10.420   8.743  0.1869  0.2116 -0.0771
  563POPI   C4A 8958  14.827  10.397   8.325 -0.1772 -0.0752 -0.1703
  563POPI   C1B 8959  15.347  10.803   9.634  0.0573  0.0322  0.3128
  563POPI   C2B 8960  15.317  10.831   9.277 -0.0400 -0.0452  0.2623
  563POPI   C3B 8961  15.205  10.852   8.789  0.0417  0.0081  0.0200
  563POPI   C4B 8962  15.121  10.820   8.400  0.0321  0.0639  0.1162
  564POPI    C1 8963  18.337   4.647   9.873 -0.0275 -0.0246  0.1412
  564POPI    C2 8964  18.319   4.886  10.193 -0.2223 -0.1801  0.2484
  564POPI    C3 8965  18.551   4.560  10.200  0.0752  0.0230  0.0874
  564POPI   PO4 8966  18.238   4.786   9.714 -0.2237 -0.3038  0.0353
  564POPI   GL1 8967  17.979   4.735   9.313  0.1738 -0.0588 -0.2502
  564POPI   GL2 8968  18.289   4.832   9.239 -0.1201 -0.0355  0.1208
  564POPI   C1A 8969  17.804   4.774   8.805 -0.1222  0.0518  0.0855
  564POPI   D2A 8970  17.671   4.596   8.371  0.0455 -0.0382  0.0695
  564POPI   C3A 8971  17.758   4.795   7.983  0.1152  0.0555 -0.4095
  564POPI   C4A 8972  18.097   4.972   7.830  0.3481  0.2401 -0.0214
  564POPI   C1B 8973  18.284   4.978   8.800 -0.0789 -0.2324 -0.2663
  564POPI   C2B 8974  18.473   5.097   8.316 -0.2548 -0.0784 -0.1763
  564POPI   C3B 8975  18.641   5.159   7.860  0.4844  0.0347 -0.0795
  564POPI   C4B 8976  18.474   5.479   7.560 -0.3553 -0.1907 -0.0449
  565POPI    C1 8977  11.762  14.763  10.490 -0.0273 -0.1100 -0.0780
  565POPI    C2 8978  11.575  14.853  10.832 -0.2664 -0.0526 -0.2210
  565POPI    C3 8979  11.793  14.518  10.805  0.0949  0.1471  0.1129
  565POPI   PO4 8980  11.581  14.870  10.337  0.0274 -0.1659 -0.3010
  565POPI   GL1 8981  11.548  14.959   9.911  0.2850  0.3304  0.0162
  565POPI   GL2 8982  11.755  14.781   9.640  0.3036 -0.2744  0.1163
  565POPI   C1A 8983  11.272  14.671   9.684  0.3919 -0.3311  0.1676
  565POPI   D2A 8984  10.931  14.331   9.869 -0.0220  0.4345 -0.0177
  565POPI   C3A 8985  11.037  14.033   9.576 -0.0898 -0.0072  0.0453
  565POPI   C4A 8986  11.338  13.874   9.210 -0.4834 -0.0787  0.2263
  565POPI   C1B 8987  11.825  14.804   9.111 -0.0017 -0.1307  0.1143
  565POPI   C2B 8988  11.688  14.795   8.716 -0.0475 -0.0218 -0.0527
  565POPI   C3B 8989  11.828  14.708   8.393 -0.0604 -0.1582 -0.0049
  565POPI   C4B 8990  11.774  14.655   7.977  0.2139  0.0047  0.3579
  566POPI    C1 8991  10.618   9.766  10.519 -0.3483 -0.0632  0.3437
  566POPI    C2 8992  10.825   9.985  10.782 -0.2045  0.0706  0.1228
  566POPI    C3 8993  10.425  10.004  10.776 -0.2062  0.1037  0.2976
  566POPI   PO4 8994  10.791   9.784  10.298  0.1948  0.1059  0.2890
  566POPI   GL1 8995  10.682   9.447   9.982  0.1144 -0.1194 -0.1668
  566POPI   GL2 8996  10.790   9.584   9.675 -0.2559  0.0767 -0.0648
  566POPI   C1A 8997  10.686   9.081   9.676  0.0504  0.3570 -0.2370
  566POPI   D2A 8998  10.768   9.036   9.190 -0.0977  0.0904 -0.0166
  566POPI   C3A 8999  10.826   8.546   9.107  0.0932  0.0653 -0.1702
  566POPI   C4A 9000  10.737   8.387   8.644  0.0609 -0.1009 -0.1456
  566POPI   C1B 9001  10.787   9.556   9.289  0.2400 -0.2076  0.2821
  566POPI   C2B 9002  10.871   9.419   8.810 -0.1524  0.1570 -0.4155
  566POPI   C3B 9003  10.939   9.270   8.393  0.1966 -0.0142 -0.2787
  566POPI   C4B 9004  11.089   9.342   7.944  0.0966 -0.0165 -0.3910
  567POPI    C1 9005   4.978  15.731  10.388 -0.0734 -0.0540  0.0861
  567POPI    C2 9006   4.942  15.660  10.780  0.1393 -0.2081  0.0795
  567POPI    C3 9007   5.068  16.017  10.652 -0.3178 -0.0192  0.1351
  567POPI   PO4 9008   4.767  15.549  10.264 -0.1540  0.0133 -0.0305
  567POPI   GL1 9009   4.643  15.400   9.844 -0.1822 -0.0251 -0.1477
  567POPI   GL2 9010   4.981  15.354   9.755 -0.0266  0.1941 -0.4008
  567POPI   C1A 9011   4.564  15.674   9.464 -0.0252 -0.2688  0.3393
  567POPI   D2A 9012   4.785  15.587   9.096 -0.1886  0.0030  0.2588
  567POPI   C3A 9013   4.680  15.470   8.676  0.0071  0.0291 -0.0731
  567POPI   C4A 9014   4.477  15.371   8.257  0.2447  0.0101  0.1841
  567POPI   C1B 9015   4.799  15.085   9.425  0.1745  0.0283  0.4297
  567POPI   C2B 9016   4.845  15.044   8.931 -0.2161 -0.0745 -0.0611
  567POPI   C3B 9017   4.674  14.931   8.594  0.2188  0.0853 -0.3507
  567POPI   C4B 9018   4.764  14.933   8.193  0.2329 -0.2259  0.1100
  568POPI    C1 9019  17.944   2.199  10.625  0.2826  0.0714 -0.0220
  568POPI    C2 9020  17.975   2.073  11.003 -0.0568 -0.1708 -0.0715
  568POPI    C3 9021  17.822   2.434  10.925  0.0768 -0.0928  0.0251
  568POPI   PO4 9022  17.767   2.075  10.523 -0.1679  0.1114 -0.0719
  568POPI   GL1 9023  17.771   2.044  10.155 -0.1714  0.0308 -0.0736
  568POPI   GL2 9024  17.570   1.792   9.936  0.0060  0.1188  0.3925
  568POPI   C1A 9025  18.028   2.010   9.812  0.1465  0.0963  0.1692
  568POPI   D2A 9026  18.031   2.109   9.421  0.2513  0.2490  0.1827
  568POPI   C3A 9027  17.756   2.117   9.114 -0.1630 -0.1206 -0.1404
  568POPI   C4A 9028  17.340   2.052   9.085 -0.1472 -0.3338 -0.0135
  568POPI   C1B 9029  17.361   1.489   9.684 -0.2620 -0.1043  0.1079
  568POPI   C2B 9030  17.290   1.319   9.265  0.6231 -0.0042  0.1276
  568POPI   C3B 9031  17.235   1.244   8.786  0.2774  0.3056  0.0901
  568POPI   C4B 9032  17.410   1.039   8.505 -0.2008 -0.1307  0.2675
  569POPI    C1 9033   3.541   1.679  10.384 -0.0377  0.0548  0.0068
  569POPI    C2 9034   3.800   1.984  10.367  0.2039 -0.1425  0.0888
  569POPI    C3 9035   3.694   1.832  10.721 -0.1470  0.0368  0.0649
  569POPI   PO4 9036   3.561   1.618  10.095 -0.1753 -0.2816  0.2016
  569POPI   GL1 9037   3.455   1.390   9.625 -0.2667 -0.1022  0.1445
  569POPI   GL2 9038   3.708   1.679   9.548  0.1864  0.0930  0.0022
  569POPI   C1A 9039   3.478   1.391   9.132  0.2816 -0.1959  0.0652
  569POPI   D2A 9040   3.468   1.217   8.741  0.2531  0.1804  0.0192
  569POPI   C3A 9041   3.348   0.807   8.553  0.2189  0.1655 -0.1345
  569POPI   C4A 9042   3.052   0.461   8.382  0.2586 -0.1134 -0.0613
  569POPI   C1B 9043   3.801   1.849   9.138  0.3251  0.1672 -0.1775
  569POPI   C2B 9044   3.958   1.896   8.723 -0.2197 -0.2118  0.1166
  569POPI   C3B 9045   4.023   1.905   8.360  0.1829  0.3571 -0.0217
  569POPI   C4B 9046   4.251   1.954   8.052  0.1214  0.0555 -0.0038
  570POPI    C1 9047  11.270   4.155  10.478  0.1081  0.2631  0.0384
  570POPI    C2 9048  10.988   4.181  10.761  0.0460  0.0309 -0.0003
  570POPI    C3 9049  11.256   3.883  10.771  0.0880  0.0633 -0.1458
  570POPI   PO4 9050  11.155   4.224  10.244  0.2354 -0.1383  0.1710
  570POPI   GL1 9051  11.011   4.145   9.901 -0.1796 -0.2093 -0.0716
  570POPI   GL2 9052  11.018   3.820   9.880 -0.1453  0.2254  0.0816
  570POPI   C1A 9053  11.122   4.173   9.430  0.3285  0.1266  0.0716
  570POPI   D2A 9054  11.408   4.264   9.141 -0.0447  0.2612 -0.0599
  570POPI   C3A 9055  11.376   4.629   9.058 -0.3876  0.1413  0.0784
  570POPI   C4A 9056  11.031   4.880   8.819  0.0825 -0.0817  0.2608
  570POPI   C1B 9057  11.382   3.817   9.641 -0.0881  0.2160  0.0078
  570POPI   C2B 9058  11.522   3.772   9.167 -0.0773  0.1337  0.2646
  570POPI   C3B 9059  11.553   3.922   8.787 -0.0994  0.1078 -0.0369
  570POPI   C4B 9060  11.621   3.846   8.446  0.0473  0.1144  0.1399
  571POPI    C1 9061   5.496  13.787  10.528  0.0887  0.0478  0.1718
  571POPI    C2 9062   5.765  13.620  10.283 -0.1128 -0.0212 -0.0061
  571POPI    C3 9063   5.857  13.686  10.667  0.0963 -0.2032 -0.0229
  571POPI   PO4 9064   5.271  13.694  10.299  0.1304  0.2870  0.2664
  571POPI   GL1 9065   5.186  13.441   9.965  0.0188  0.0394  0.0249
  571POPI   GL2 9066   5.102  13.808   9.813 -0.0962  0.0560 -0.0514
  571POPI   C1A 9067   5.158  13.244   9.525  0.1160  0.0817 -0.0351
  571POPI   D2A 9068   5.085  13.251   9.122  0.0940 -0.0155 -0.2820
  571POPI   C3A 9069   5.176  13.224   8.736  0.0328  0.2471  0.0760
  571POPI   C4A 9070   5.118  13.246   8.271  0.1742 -0.1251  0.0211
  571POPI   C1B 9071   5.292  13.746   9.449 -0.0908 -0.2376 -0.1650
  571POPI   C2B 9072   5.522  13.453   9.286  0.1264 -0.1641  0.1387
  571POPI   C3B 9073   5.750  13.474   8.880  0.0820  0.3469 -0.1282
  571POPI   C4B 9074   6.017  13.550   8.532  0.0796  0.4021  0.0324
  572POPI    C1 9075   4.031  14.829  10.680  0.0237 -0.1879  0.0443
  572POPI    C2 9076   4.417  14.930  10.703 -0.0417  0.0350  0.2047
  572POPI    C3 9077   4.309  14.545  10.718  0.1855 -0.0410 -0.0283
  572POPI   PO4 9078   3.943  14.994  10.433 -0.0569 -0.1874 -0.1635
  572POPI   GL1 9079   4.018  14.940   9.954  0.0086  0.2166 -0.0651
  572POPI   GL2 9080   3.855  15.318   9.994  0.0423  0.0749  0.0518
  572POPI   C1A 9081   4.447  14.870   9.730  0.0032 -0.3081 -0.0699
  572POPI   D2A 9082   4.572  14.569   9.544 -0.2049 -0.2325 -0.0333
  572POPI   C3A 9083   4.834  14.582   9.174  0.0722 -0.0309  0.0492
  572POPI   C4A 9084   4.907  14.455   8.764 -0.0513  0.1744  0.0059
  572POPI   C1B 9085   4.023  15.270   9.590  0.3038  0.0336 -0.1939
  572POPI   C2B 9086   4.305  15.213   9.322 -0.0373 -0.2538  0.1272
  572POPI   C3B 9087   4.375  14.868   9.213 -0.3781  0.0318  0.0583
  572POPI   C4B 9088   3.988  14.815   8.979 -0.3034 -0.0761  0.3289
  573POPI    C1 9089   6.154   4.401  10.522 -0.3502  0.1285 -0.1237
  573POPI    C2 9090   6.466   4.437  10.770 -0.3201  0.0222 -0.1457
  573POPI    C3 9091   6.150   4.215  10.876 -0.4194  0.1870 -0.0935
  573POPI   PO4 9092   6.142   4.664  10.352 -0.0217  0.0482  0.1836
  573POPI   GL1 9093   6.159   4.530   9.983 -0.1208  0.0378  0.0588
  573POPI   GL2 9094   6.074   4.352   9.700  0.2688  0.0672  0.1637
  573POPI   C1A 9095   6.319   4.867   9.595 -0.1919  0.4587  0.3007
  573POPI   D2A 9096   6.266   5.005   9.121  0.0654 -0.2329  0.2989
  573POPI   C3A 9097   6.395   5.028   8.844  0.0311  0.0403 -0.0521
  573POPI   C4A 9098   6.349   5.158   8.471  0.0130 -0.1871  0.0876
  573POPI   C1B 9099   6.022   4.573   9.327  0.0799 -0.0607  0.2329
  573POPI   C2B 9100   6.030   4.624   8.820  0.3339  0.2141  0.0667
  573POPI   C3B 9101   5.988   4.645   8.402 -0.1758 -0.0565 -0.0514
  573POPI   C4B 9102   5.940   4.686   7.918 -0.1215 -0.1024 -0.1561
  574DPPI    C1 9103   0.481   9.813   9.403  0.0162  0.0197 -0.0816
  574DPPI    C2 9104   0.723   9.575   9.615  0.0041  0.1890  0.1272
  574DPPI    C3 9105   0.878   9.835   9.353  0.0028 -0.2584 -0.3348
  574DPPI   PO4 9106   0.322   9.874   9.572 -0.1454 -0.1827 -0.0402
  574DPPI   GL1 9107  -0.069   9.838   9.349 -0.0751 -0.0492 -0.3455
  574DPPI   GL2 9108   0.118  10.128   9.166 -0.2025  0.0042  0.3089
  574DPPI   C1A 9109  -0.261   9.865   8.924 -0.3492 -0.0170  0.1018
  574DPPI   C2A 9110  -0.149   9.821   8.550 -0.0492 -0.1474  0.0786
  574DPPI   C3A 9111  -0.183   9.735   8.133 -0.1474  0.1290  0.2506
  574DPPI   C4A 9112  -0.355   9.410   7.840 -0.1201 -0.2585  0.0676
  574DPPI   C1B 9113   0.269   9.792   8.909  0.1458  0.1638  0.0304
  574DPPI   C2B 9114   0.356   9.682   8.487 -0.1283  0.0276 -0.0034
  574DPPI   C3B 9115   0.266   9.534   8.142 -0.1323  0.0716  0.0542
  574DPPI   C4B 9116   0.191   9.501   7.698  0.0511 -0.3603  0.0557
  575DPPI    C1 9117   3.027  14.659  10.603  0.0848  0.0868  0.0648
  575DPPI    C2 9118   2.642  14.571  10.539  0.2003 -0.2927 -0.1386
  575DPPI    C3 9119   2.791  14.552  10.909  0.0545 -0.2690 -0.0777
  575DPPI   PO4 9120   3.085  14.602  10.282 -0.0769 -0.0984  0.0833
  575DPPI   GL1 9121   3.120  14.449   9.767  0.0387  0.0219 -0.1817
  575DPPI   GL2 9122   3.065  14.141   9.802  0.2735 -0.0644  0.1932
  575DPPI   C1A 9123   3.272  14.510   9.394  0.0186  0.3235 -0.4899
  575DPPI   C2A 9124   3.476  14.524   8.943 -0.2177 -0.3974 -0.0590
  575DPPI   C3A 9125   3.637  14.583   8.483  0.0347  0.1187  0.1697
  575DPPI   C4A 9126   3.797  14.325   8.304 -0.2269 -0.3292  0.0044
  575DPPI   C1B 9127   3.181  13.992   9.386  0.1320 -0.0345 -0.1922
  575DPPI   C2B 9128   3.343  13.975   8.964  0.1458 -0.1043 -0.3484
  575DPPI   C3B 9129   3.443  14.043   8.533 -0.0029 -0.2374 -0.0674
  575DPPI   C4B 9130   3.422  14.160   8.039  0.1633  0.2806 -0.0819
  576DPPI    C1 9131   2.349  10.189   9.844  0.0730 -0.1027 -0.1310
  576DPPI    C2 9132   2.633   9.960  10.008  0.0141 -0.1966 -0.1595
  576DPPI    C3 9133   2.451  10.239  10.228  0.0662 -0.1962 -0.1166
  576DPPI   PO4 9134   2.435  10.255   9.580 -0.2668  0.0376  0.1031
  576DPPI   GL1 9135   2.237  10.416   9.231  0.3246  0.2006  0.1836
  576DPPI   GL2 9136   2.450  10.595   9.147 -0.1657 -0.1265  0.0666
  576DPPI   C1A 9137   1.958  10.285   8.996 -0.2049  0.2049 -0.1148
  576DPPI   C2A 9138   1.912  10.124   8.512  0.0912 -0.0621  0.0733
  576DPPI   C3A 9139   2.048  10.231   8.179 -0.2190  0.0407 -0.2967
  576DPPI   C4A 9140   2.001  10.386   7.718 -0.3980 -0.0664  0.0476
  576DPPI   C1B 9141   2.377  10.786   8.827 -0.1691 -0.0343 -0.4252
  576DPPI   C2B 9142   2.178  10.935   8.504  0.1723  0.0922 -0.1211
  576DPPI   C3B 9143   2.040  10.770   8.179 -0.3149 -0.1664 -0.0054
  576DPPI   C4B 9144   1.967  10.951   7.717  0.3021  0.0648 -0.1128
  577DPPI    C1 9145   5.623   5.175  10.223 -0.1231  0.1643 -0.0158
  577DPPI    C2 9146   5.490   5.301  10.579 -0.2082 -0.1375  0.0629
  577DPPI    C3 9147   5.775   5.021  10.560  0.0304  0.1118 -0.1082
  577DPPI   PO4 9148   5.342   5.143  10.043 -0.0691 -0.2529  0.2801
  577DPPI   GL1 9149   5.448   5.245   9.577  0.3048 -0.0068 -0.1472
  577DPPI   GL2 9150   5.369   5.587   9.730 -0.2811 -0.1132 -0.1266
  577DPPI   C1A 9151   5.310   5.237   9.159  0.2165  0.1071  0.2656
  577DPPI   C2A 9152   5.345   5.327   8.691 -0.0725  0.1717 -0.0232
  577DPPI   C3A 9153   5.441   5.328   8.218 -0.2053 -0.2543 -0.0355
  577DPPI   C4A 9154   5.540   5.114   7.789  0.0647  0.1451  0.1914
  577DPPI   C1B 9155   5.661   5.573   9.313 -0.2342 -0.1494  0.0863
  577DPPI   C2B 9156   5.561   5.742   8.928 -0.3277 -0.0493 -0.0071
  577DPPI   C3B 9157   5.548   5.737   8.485  0.0739 -0.0049 -0.1736
  577DPPI   C4B 9158   5.699   6.042   8.134 -0.1852 -0.0954  0.3008
  578DPPI    C1 9159   6.493   7.821  10.656  0.0996 -0.0870  0.2032
  578DPPI    C2 9160   6.172   7.758  10.885 -0.1053  0.3314  0.0426
  578DPPI    C3 9161   6.460   8.005  11.010  0.0110  0.1911  0.0540
  578DPPI   PO4 9162   6.349   7.802  10.431 -0.0771 -0.2023  0.0150
  578DPPI   GL1 9163   6.492   7.941  10.146  0.0210  0.0446  0.2830
  578DPPI   GL2 9164   6.616   8.116   9.994  0.0520 -0.1319 -0.0573
  578DPPI   C1A 9165   6.201   7.920   9.753 -0.1729 -0.2739 -0.0200
  578DPPI   C2A 9166   6.211   7.882   9.335 -0.0991 -0.2153  0.3273
  578DPPI   C3A 9167   6.327   7.725   8.903  0.1589 -0.0758  0.2270
  578DPPI   C4A 9168   6.491   7.755   8.498  0.1647 -0.0062  0.3373
  578DPPI   C1B 9169   6.701   7.815   9.679  0.1583 -0.1530 -0.0948
  578DPPI   C2B 9170   6.732   7.769   9.301  0.0109 -0.4800  0.2015
  578DPPI   C3B 9171   6.831   7.740   8.885  0.2207 -0.3314  0.0855
  578DPPI   C4B 9172   6.936   8.013   8.546 -0.2945 -0.0278 -0.1411
  579DPPI    C1 9173   6.111   9.326  10.421  0.0079  0.1395 -0.0921
  579DPPI    C2 9174   6.094   8.980  10.223  0.1813  0.0724  0.0087
  579DPPI    C3 9175   5.847   9.046  10.530  0.0676  0.0859 -0.0851
  579DPPI   PO4 9176   6.156   9.474  10.158  0.0905 -0.0755  0.0751
  579DPPI   GL1 9177   6.153   9.184   9.717 -0.0474 -0.0744 -0.2916
  579DPPI   GL2 9178   6.437   9.083   9.881  0.1755 -0.1532  0.0567
  579DPPI   C1A 9179   6.202   9.070   9.190 -0.0259 -0.1793  0.1221
  579DPPI   C2A 9180   6.123   9.136   8.767  0.4879 -0.0404  0.1244
  579DPPI   C3A 9181   6.130   9.416   8.380 -0.0532 -0.0586  0.0188
  579DPPI   C4A 9182   6.443   9.587   8.121 -0.2360 -0.0928 -0.0932
  579DPPI   C1B 9183   6.493   8.866   9.484 -0.0378 -0.0180  0.3137
  579DPPI   C2B 9184   6.495   8.641   9.137  0.0204 -0.1680  0.0284
  579DPPI   C3B 9185   6.342   8.715   8.692  0.0443 -0.0888 -0.2598
  579DPPI   C4B 9186   6.398   8.673   8.304  0.1944 -0.2152  0.1180
  580DPPI    C1 9187   2.197  12.106  10.082 -0.1397 -0.2862 -0.0936
  580DPPI    C2 9188   1.932  12.296  10.314  0.1275  0.2006 -0.1722
  580DPPI    C3 9189   2.181  12.026  10.473 -0.2269 -0.0625 -0.0499
  580DPPI   PO4 9190   2.315  12.267   9.925  0.2358  0.0247  0.0717
  580DPPI   GL1 9191   2.496  12.129   9.563  0.0271  0.1739 -0.1413
  580DPPI   GL2 9192   2.647  12.474   9.580  0.1295  0.1790  0.0337
  580DPPI   C1A 9193   2.649  12.229   9.189  0.0238  0.3302 -0.4647
  580DPPI   C2A 9194   2.801  12.221   8.741  0.2487  0.4112  0.2193
  580DPPI   C3A 9195   2.668  12.421   8.325  0.1055 -0.0780 -0.3088
  580DPPI   C4A 9196   2.519  12.443   7.982 -0.1259  0.2818 -0.2286
  580DPPI   C1B 9197   2.782  12.723   9.350  0.0462 -0.0279 -0.1539
  580DPPI   C2B 9198   2.851  12.759   8.846  0.1642  0.1534 -0.1405
  580DPPI   C3B 9199   2.638  12.911   8.508  0.0115 -0.1276  0.0285
  580DPPI   C4B 9200   2.646  12.899   8.101 -0.0899 -0.0121  0.0947
  581DPPI    C1 9201   4.387   2.424  10.679  0.1008 -0.0521 -0.0976
  581DPPI    C2 9202   4.094   2.187  10.814  0.0014 -0.0069 -0.2320
  581DPPI    C3 9203   4.474   2.113  10.917 -0.0480 -0.1145 -0.1236
  581DPPI   PO4 9204   4.299   2.442  10.420  0.2322  0.3464  0.0296
  581DPPI   GL1 9205   4.469   2.411  10.018 -0.0454  0.2839 -0.1175
  581DPPI   GL2 9206   4.216   2.550   9.693 -0.2698 -0.4911 -0.0363
  581DPPI   C1A 9207   4.497   2.138   9.692 -0.1198  0.0571  0.1467
  581DPPI   C2A 9208   4.663   2.066   9.238 -0.0583  0.1024 -0.2413
  581DPPI   C3A 9209   4.970   2.040   8.815  0.0222 -0.2571  0.3218
  581DPPI   C4A 9210   5.085   2.162   8.392 -0.2342 -0.0457  0.1252
  581DPPI   C1B 9211   4.549   2.562   9.339  0.1300 -0.1421  0.1235
  581DPPI   C2B 9212   4.598   2.625   8.910  0.0552  0.2904  0.1885
  581DPPI   C3B 9213   4.493   2.865   8.509  0.1119  0.0780 -0.2882
  581DPPI   C4B 9214   4.246   3.206   8.472  0.1690 -0.0097 -0.0790
  582DPPI    C1 9215   8.831  14.738  10.425 -0.0241 -0.2779 -0.1267
  582DPPI    C2 9216   8.447  14.818  10.500  0.0866  0.0001  0.1685
  582DPPI    C3 9217   8.600  14.461  10.598 -0.0993 -0.1211  0.0260
  582DPPI   PO4 9218   8.881  14.975  10.286  0.1997 -0.1169  0.0723
  582DPPI   GL1 9219   8.597  15.197   9.956 -0.0532 -0.1582  0.0193
  582DPPI   GL2 9220   8.777  14.914   9.797 -0.2695 -0.3751 -0.3068
  582DPPI   C1A 9221   8.542  15.579   9.697 -0.2125 -0.1016 -0.1206
  582DPPI   C2A 9222   8.582  15.880   9.505 -0.1335  0.2155 -0.2460
  582DPPI   C3A 9223   8.551  15.940   9.097  0.1729 -0.1975  0.1129
  582DPPI   C4A 9224   8.648  15.855   8.700 -0.0004 -0.1301  0.3060
  582DPPI   C1B 9225   8.671  15.132   9.427 -0.0533  0.1322 -0.2406
  582DPPI   C2B 9226   8.650  14.908   9.052  0.2069 -0.1451 -0.0475
  582DPPI   C3B 9227   8.626  14.578   9.080 -0.0723  0.1622  0.0011
  582DPPI   C4B 9228   8.755  14.255   8.791  0.0548  0.0261 -0.3535
  583DPPI    C1 9229   5.797   5.637  10.400  0.1405  0.0266  0.0154
  583DPPI    C2 9230   5.893   5.971  10.599 -0.0035  0.1027 -0.0414
  583DPPI    C3 9231   5.812   5.635  10.800 -0.3739  0.2379  0.0439
  583DPPI   PO4 9232   5.822   5.649  10.206 -0.2118 -0.5441  0.0951
  583DPPI   GL1 9233   5.891   5.479   9.811 -0.1020  0.0412  0.1276
  583DPPI   GL2 9234   6.061   5.741   9.786  0.2148 -0.1550 -0.1810
  583DPPI   C1A 9235   5.910   5.137   9.475 -0.1832  0.0429 -0.0584
  583DPPI   C2A 9236   5.760   5.127   9.023  0.1747  0.4186 -0.3309
  583DPPI   C3A 9237   5.827   5.182   8.641  0.2799 -0.0123 -0.1768
  583DPPI   C4A 9238   5.897   5.140   8.155  0.1320  0.2663 -0.0797
  583DPPI   C1B 9239   5.882   5.994   9.400 -0.0839 -0.3001  0.1290
  583DPPI   C2B 9240   5.929   6.131   8.975  0.0127  0.0245  0.2561
  583DPPI   C3B 9241   5.982   6.168   8.522  0.0785 -0.1072  0.1567
  583DPPI   C4B 9242   6.146   6.486   8.321 -0.6226  0.3237 -0.4266
  584DPPI    C1 9243   0.251   2.612  10.380  0.4897 -0.2193  0.1583
  584DPPI    C2 9244   0.384   2.942  10.197  0.0975 -0.2131 -0.1284
  584DPPI    C3 9245   0.274   2.957  10.581  0.1471 -0.0260 -0.1205
  584DPPI   PO4 9246   0.143   2.493  10.149 -0.0919  0.2198  0.1953
  584DPPI   GL1 9247   0.352   2.600   9.789  0.0046  0.0364  0.2686
  584DPPI   GL2 9248   0.681   2.717   9.727  0.0910 -0.0545  0.2998
  584DPPI   C1A 9249   0.429   2.514   9.296 -0.0050  0.4042 -0.4275
  584DPPI   C2A 9250   0.289   2.426   8.838  0.0697  0.0556  0.2015
  584DPPI   C3A 9251   0.383   2.344   8.434 -0.1416  0.0242  0.3172
  584DPPI   C4A 9252   0.315   2.376   7.997 -0.1923 -0.0664 -0.0750
  584DPPI   C1B 9253   0.653   2.955   9.311  0.1843  0.1325  0.2105
  584DPPI   C2B 9254   0.627   3.202   8.944 -0.2104  0.1115  0.1660
  584DPPI   C3B 9255   0.544   3.160   8.462  0.1888 -0.2051 -0.2485
  584DPPI   C4B 9256   0.311   2.937   8.169 -0.0524 -0.4699  0.0336
  585DPPI    C1 9257  13.690   8.731  10.291 -0.0415 -0.1165 -0.1788
  585DPPI    C2 9258  13.666   8.991  10.594 -0.1211 -0.0727 -0.2219
  585DPPI    C3 9259  13.947   8.706  10.596 -0.1499 -0.1010 -0.0854
  585DPPI   PO4 9260  13.435   8.602  10.243 -0.1274 -0.0886  0.1546
  585DPPI   GL1 9261  13.140   8.389  10.027  0.3621 -0.0368 -0.4160
  585DPPI   GL2 9262  12.916   8.625   9.866 -0.0307  0.0466 -0.0321
  585DPPI   C1A 9263  13.089   8.162   9.651 -0.1747  0.1514 -0.0983
  585DPPI   C2A 9264  12.960   8.147   9.268 -0.0872  0.0070 -0.1042
  585DPPI   C3A 9265  12.919   8.372   8.902 -0.1053  0.0734  0.4079
  585DPPI   C4A 9266  12.981   8.560   8.526  0.3449  0.0033 -0.0678
  585DPPI   C1B 9267  12.752   8.666   9.446  0.0683 -0.2227 -0.0254
  585DPPI   C2B 9268  12.769   8.794   9.147  0.0498  0.0332 -0.0017
  585DPPI   C3B 9269  12.553   8.749   8.798  0.2893  0.1246 -0.2850
  585DPPI   C4B 9270  12.594   8.874   8.301 -0.0672 -0.0598 -0.1872
  586DPPI    C1 9271  16.975  15.532  10.474  0.2031 -0.0485 -0.1941
  586DPPI    C2 9272  17.344  15.401  10.552  0.0992 -0.2711 -0.0694
  586DPPI    C3 9273  17.030  15.158  10.605 -0.0698 -0.0667 -0.1245
  586DPPI   PO4 9274  16.941  15.696  10.299  0.0944  0.2381 -0.0978
  586DPPI   GL1 9275  17.037  15.861   9.916  0.0046  0.1142  0.1643
  586DPPI   GL2 9276  16.889  16.139   9.968  0.0763  0.0127  0.0667
  586DPPI   C1A 9277  17.219  15.671   9.534 -0.0090  0.0775 -0.2039
  586DPPI   C2A 9278  17.327  15.687   9.104 -0.0338  0.0861  0.0949
  586DPPI   C3A 9279  17.286  15.714   8.642  0.0062 -0.0672 -0.0310
  586DPPI   C4A 9280  17.150  15.347   8.267 -0.1203  0.0676  0.2154
  586DPPI   C1B 9281  16.984  16.111   9.497 -0.2172 -0.1687 -0.1419
  586DPPI   C2B 9282  17.014  16.110   9.008 -0.1166 -0.2382 -0.0675
  586DPPI   C3B 9283  16.965  16.086   8.547  0.2003  0.3608  0.2427
  586DPPI   C4B 9284  17.036  15.969   8.237  0.0394 -0.0779  0.0916
  587DPPI    C1 9285  11.610   5.765  10.369 -0.0598 -0.0045 -0.0496
  587DPPI    C2 9286  11.932   5.859  10.588 -0.0116 -0.0415 -0.1045
  587DPPI    C3 9287  11.595   5.742  10.769 -0.0598  0.1970 -0.0369
  587DPPI   PO4 9288  11.705   5.683  10.123  0.0873  0.2672  0.0182
  587DPPI   GL1 9289  11.816   5.886   9.793 -0.0579 -0.1498 -0.2575
  587DPPI   GL2 9290  11.440   5.797   9.758 -0.1881 -0.1754  0.2267
  587DPPI   C1A 9291  11.762   5.903   9.370  0.1695 -0.3219 -0.2230
  587DPPI   C2A 9292  11.929   6.123   8.986 -0.1564 -0.2295 -0.0935
  587DPPI   C3A 9293  12.189   6.157   8.637 -0.0726 -0.0027  0.3217
  587DPPI   C4A 9294  12.655   6.100   8.476  0.0347  0.1750  0.2310
  587DPPI   C1B 9295  11.281   5.872   9.417 -0.1155 -0.0440 -0.0155
  587DPPI   C2B 9296  11.372   6.033   9.122 -0.3111 -0.0116  0.0131
  587DPPI   C3B 9297  11.463   6.075   8.658 -0.2792 -0.1506 -0.0460
  587DPPI   C4B 9298  11.337   6.253   8.284  0.2275  0.2636 -0.1764
  588DPPI    C1 9299  10.564  13.510  10.406  0.0644 -0.0994  0.1188
  588DPPI    C2 9300  10.958  13.445  10.399  0.0434 -0.2148 -0.0424
  588DPPI    C3 9301  10.746  13.352  10.725  0.1761  0.0139  0.1115
  588DPPI   PO4 9302  10.467  13.733  10.198 -0.1089  0.4454  0.4563
  588DPPI   GL1 9303  10.380  13.779   9.817  0.0032 -0.0505  0.1278
  588DPPI   GL2 9304  10.079  13.899   9.729 -0.0911  0.0403 -0.0340
  588DPPI   C1A 9305  10.621  13.699   9.449  0.2504  0.5561  0.1176
  588DPPI   C2A 9306  10.854  13.755   9.089 -0.1320 -0.2758 -0.0821
  588DPPI   C3A 9307  11.137  14.156   8.777  0.1235  0.0469  0.2469
  588DPPI   C4A 9308  11.070  14.628   8.712  0.3033 -0.1408  0.5155
  588DPPI   C1B 9309  10.132  13.934   9.349 -0.1095 -0.1064 -0.0586
  588DPPI   C2B 9310   9.930  13.851   9.016  0.2731  0.0045 -0.1731
  588DPPI   C3B 9311   9.759  13.858   8.576 -0.0394  0.1877 -0.1093
  588DPPI   C4B 9312   9.856  13.895   8.117  0.1735  0.0041 -0.1494
  589DPPI    C1 9313   8.589  11.520  10.553  0.0700  0.0114  0.1211
  589DPPI    C2 9314   8.237  11.558  10.740 -0.0519  0.1795 -0.1361
  589DPPI    C3 9315   8.488  11.264  10.843 -0.2527  0.0778  0.0715
  589DPPI   PO4 9316   8.526  11.524  10.304 -0.1029 -0.0421  0.3914
  589DPPI   GL1 9317   8.459  11.505   9.878  0.3059 -0.2747 -0.1657
  589DPPI   GL2 9318   8.542  11.103   9.936  0.0206 -0.1796 -0.1125
  589DPPI   C1A 9319   8.913  11.709   9.740 -0.0037 -0.0786  0.1623
  589DPPI   C2A 9320   9.188  11.476   9.392 -0.1092 -0.2008 -0.2317
  589DPPI   C3A 9321   9.328  11.344   8.976 -0.0542  0.0944  0.0734
  589DPPI   C4A 9322   9.289  11.190   8.535  0.0324  0.4858  0.2221
  589DPPI   C1B 9323   8.575  11.282   9.469  0.3080 -0.0052  0.0447
  589DPPI   C2B 9324   8.744  11.298   9.082  0.3287  0.0651  0.2552
  589DPPI   C3B 9325   8.821  11.373   8.633 -0.3010 -0.0495 -0.3881
  589DPPI   C4B 9326   8.909  11.310   8.199  0.2025 -0.1108 -0.1017
  590DPPI    C1 9327   6.829   3.689  10.690 -0.1656 -0.1027  0.3877
  590DPPI    C2 9328   6.908   4.073  10.766 -0.0597 -0.0260 -0.0799
  590DPPI    C3 9329   6.542   3.963  10.648 -0.0282 -0.0316 -0.1737
  590DPPI   PO4 9330   7.064   3.660  10.516 -0.0777 -0.2190  0.4895
  590DPPI   GL1 9331   7.137   3.600  10.157  0.1511 -0.0850  0.1824
  590DPPI   GL2 9332   6.953   3.331  10.098 -0.0763  0.1282  0.0151
  590DPPI   C1A 9333   6.861   3.833   9.856  0.0316  0.0484 -0.1191
  590DPPI   C2A 9334   6.715   3.843   9.438 -0.0070  0.0100 -0.0619
  590DPPI   C3A 9335   6.575   3.815   9.090  0.0605  0.1375  0.1271
  590DPPI   C4A 9336   6.619   3.720   8.723 -0.0324  0.1500  0.0530
  590DPPI   C1B 9337   6.966   3.393   9.683  0.0842 -0.1211 -0.1805
  590DPPI   C2B 9338   7.237   3.750   9.476  0.3101 -0.0063 -0.1731
  590DPPI   C3B 9339   7.562   3.945   9.229  0.3240  0.0446  0.0514
  590DPPI   C4B 9340   7.801   3.965   8.904 -0.0621  0.1737 -0.2296
  591DPPI    C1 9341   6.170   8.559  10.498 -0.1224  0.0332  0.1204
  591DPPI    C2 9342   6.091   8.195  10.645  0.0547 -0.0438  0.0286
  591DPPI    C3 9343   5.879   8.511  10.768 -0.1551 -0.1898  0.0485
  591DPPI   PO4 9344   6.181   8.519  10.230 -0.2530 -0.0872 -0.1586
  591DPPI   GL1 9345   6.275   8.630   9.839 -0.0054 -0.0723  0.0927
  591DPPI   GL2 9346   5.988   8.360   9.707  0.3224 -0.0547 -0.1552
  591DPPI   C1A 9347   6.483   8.296   9.540  0.0205  0.1675 -0.0529
  591DPPI   C2A 9348   6.486   8.192   9.062  0.0314 -0.2128 -0.3655
  591DPPI   C3A 9349   6.507   8.264   8.599  0.0738  0.1906  0.0713
  591DPPI   C4A 9350   6.738   8.321   8.262  0.0912  0.2946 -0.3376
  591DPPI   C1B 9351   6.039   8.393   9.298 -0.0695 -0.0843  0.2282
  591DPPI   C2B 9352   6.025   8.200   8.912  0.0945 -0.1622 -0.1708
  591DPPI   C3B 9353   5.978   7.911   8.539  0.2161 -0.0531 -0.1948
  591DPPI   C4B 9354   5.825   7.887   8.123  0.2616  0.0429 -0.6661
  592DPPI    C1 9355  12.570   3.190  10.447  0.0263  0.2796  0.0458
  592DPPI    C2 9356  12.648   3.404  10.776 -0.1142  0.2833  0.0774
  592DPPI    C3 9357  12.269   3.335  10.667 -0.0684  0.2126 -0.0387
  592DPPI   PO4 9358  12.809   3.161  10.344 -0.0156  0.0047  0.0551
  592DPPI   GL1 9359  12.869   2.999   9.936 -0.2434  0.1605 -0.1439
  592DPPI   GL2 9360  12.501   3.120   9.947 -0.1917 -0.3304  0.1543
  592DPPI   C1A 9361  13.042   2.897   9.539 -0.0717  0.0426 -0.2679
  592DPPI   C2A 9362  13.143   2.752   9.238 -0.0564  0.0502 -0.1068
  592DPPI   C3A 9363  13.081   2.806   8.734 -0.4238 -0.1496  0.0541
  592DPPI   C4A 9364  13.065   2.912   8.303  0.3067 -0.2845 -0.0587
  592DPPI   C1B 9365  12.535   2.939   9.486 -0.0019  0.0878 -0.0830
  592DPPI   C2B 9366  12.636   2.859   9.002  0.0956  0.2167  0.1845
  592DPPI   C3B 9367  12.582   2.907   8.564 -0.1908  0.0206 -0.3733
  592DPPI   C4B 9368  12.589   2.860   8.082 -0.2466  0.0837  0.0873
  593DPPI    C1 9369  14.177   0.214  10.379  0.1650 -0.0836 -0.0257
  593DPPI    C2 9370  14.047   0.255  10.755 -0.0716  0.2273 -0.1370
  593DPPI    C3 9371  13.943  -0.067  10.541 -0.2204  0.2165 -0.0493
  593DPPI   PO4 9372  14.404   0.213  10.320  0.0361 -0.2975 -0.2061
  593DPPI   GL1 9373  14.513   0.556  10.012 -0.0571  0.1760  0.2437
  593DPPI   GL2 9374  14.146   0.745   9.992  0.1252 -0.3051 -0.1101
  593DPPI   C1A 9375  14.779   0.774   9.728  0.0206  0.1134  0.1821
  593DPPI   C2A 9376  15.019   0.624   9.298  0.0825 -0.2134  0.0610
  593DPPI   C3A 9377  15.050   0.564   8.851  0.1146 -0.3426  0.2194
  593DPPI   C4A 9378  15.484   0.547   8.499  0.0775 -0.1029 -0.3977
  593DPPI   C1B 9379  14.131   0.925   9.505 -0.1394 -0.1015 -0.1598
  593DPPI   C2B 9380  14.082   0.802   9.129  0.2030  0.4473 -0.3317
  593DPPI   C3B 9381  14.150   0.592   8.718 -0.1706  0.2130 -0.1156
  593DPPI   C4B 9382  14.304   0.609   8.328 -0.1155 -0.1786 -0.1247
  594PYPI    C1 9383   7.581  12.633  10.565  0.0616 -0.1264 -0.0044
  594PYPI    C2 9384   7.413  12.619  10.928  0.0536  0.1108  0.0020
  594PYPI    C3 9385   7.762  12.807  10.876  0.1716 -0.1250 -0.0691
  594PYPI   PO4 9386   7.464  12.652  10.373 -0.4122 -0.1152 -0.3170
  594PYPI   GL1 9387   7.373  12.567   9.985 -0.1452 -0.0783 -0.0550
  594PYPI   GL2 9388   7.252  12.241   9.931 -0.1545  0.3328  0.0299
  594PYPI   C1A 9389   7.415  12.737   9.473 -0.1134 -0.0661  0.2418
  594PYPI   C2A 9390   7.451  12.926   8.971  0.1296  0.2807  0.4379
  594PYPI   D3A 9391   7.640  12.976   8.515  0.2169  0.2049  0.1294
  594PYPI   C4A 9392   7.447  12.907   8.166 -0.1059  0.0920 -0.1359
  594PYPI   C1B 9393   7.364  12.268   9.494  0.2580 -0.0757  0.2066
  594PYPI   C2B 9394   7.518  12.227   9.148  0.2437  0.0111 -0.0216
  594PYPI   C3B 9395   7.549  12.065   8.770 -0.2164 -0.1793  0.0455
  594PYPI   C4B 9396   7.373  12.062   8.422 -0.1512 -0.0442 -0.0622
  595PYPI    C1 9397  17.889  10.977  10.111 -0.2036 -0.1342 -0.0333
  595PYPI    C2 9398  17.998  11.017  10.494 -0.2531  0.2604 -0.0557
  595PYPI    C3 9399  17.688  10.783  10.397 -0.0069 -0.1417  0.1018
  595PYPI   PO4 9400  17.972  11.108  10.001  0.0292 -0.3299  0.0812
  595PYPI   GL1 9401  18.077  11.079   9.634  0.2555  0.0427  0.0409
  595PYPI   GL2 9402  17.924  10.880   9.472  0.0256 -0.2534  0.0837
  595PYPI   C1A 9403  18.063  11.333   9.296  0.0935 -0.0469 -0.0078
  595PYPI   C2A 9404  18.013  11.411   8.883  0.2904 -0.0698  0.0857
  595PYPI   D3A 9405  17.917  11.275   8.457  0.1182 -0.2667  0.2109
  595PYPI   C4A 9406  18.150  10.847   8.548 -0.0257  0.2096 -0.0627
  595PYPI   C1B 9407  17.926  10.860   9.020  0.0839 -0.0713 -0.0319
  595PYPI   C2B 9408  17.671  10.867   8.614 -0.0106 -0.1817 -0.1064
  595PYPI   C3B 9409  17.913  10.814   8.145 -0.0799  0.0522 -0.1691
  595PYPI   C4B 9410  18.166  10.820   7.702 -0.0826 -0.0676  0.0026
  596PYPI    C1 9411  11.722  12.319  10.746  0.2567 -0.2331 -0.0992
  596PYPI    C2 9412  11.791  12.658  10.945 -0.2605 -0.1068 -0.1201
  596PYPI    C3 9413  12.098  12.431  10.825  0.0839  0.2245  0.1071
  596PYPI   PO4 9414  11.507  12.382  10.562 -0.0975 -0.1138 -0.0096
  596PYPI   GL1 9415  11.351  12.604  10.188 -0.0782 -0.2004 -0.0593
  596PYPI   GL2 9416  11.206  12.891  10.342  0.0397 -0.1393  0.1418
  596PYPI   C1A 9417  11.563  12.597   9.825 -0.1315 -0.1047 -0.1024
  596PYPI   C2A 9418  11.720  12.739   9.393  0.0598  0.4427 -0.2358
  596PYPI   D3A 9419  12.028  12.936   9.045 -0.0655 -0.0115 -0.0992
  596PYPI   C4A 9420  11.726  13.288   8.792  0.0878  0.2805 -0.1433
  596PYPI   C1B 9421  11.170  12.907   9.873 -0.1864  0.0572 -0.0221
  596PYPI   C2B 9422  11.239  12.930   9.424  0.1084  0.1909  0.3321
  596PYPI   C3B 9423  11.407  12.866   9.039 -0.4136 -0.0495 -0.0962
  596PYPI   C4B 9424  11.456  12.951   8.537 -0.1825  0.0590 -0.1348
  597PYPI    C1 9425   5.442  11.108  10.109  0.0418 -0.2225  0.0032
  597PYPI    C2 9426   5.552  10.964  10.465  0.0439  0.4486  0.2894
  597PYPI    C3 9427   5.174  10.924  10.342  0.1025 -0.0147  0.2418
  597PYPI   PO4 9428   5.595  11.370  10.106 -0.0374  0.0537  0.0088
  597PYPI   GL1 9429   5.403  11.636   9.817  0.0078 -0.1791  0.0457
  597PYPI   GL2 9430   5.238  11.363   9.709 -0.1714 -0.1246  0.2215
  597PYPI   C1A 9431   5.525  11.954   9.488 -0.0384 -0.2905 -0.0950
  597PYPI   C2A 9432   5.617  11.986   9.063 -0.0830 -0.0158  0.1189
  597PYPI   D3A 9433   5.738  12.076   8.662  0.2644  0.0164  0.0876
  597PYPI   C4A 9434   5.813  12.542   8.695 -0.0230 -0.1069  0.0683
  597PYPI   C1B 9435   5.410  11.423   9.341  0.0146 -0.3406  0.2639
  597PYPI   C2B 9436   5.583  11.510   8.860  0.1907  0.1129 -0.2051
  597PYPI   C3B 9437   5.545  11.442   8.567  0.0351 -0.4051  0.1063
  597PYPI   C4B 9438   5.615  11.438   8.183  0.1828 -0.1291  0.0415
  598PYPI    C1 9439  12.968  12.209  10.341 -0.3902  0.0050  0.0833
  598PYPI    C2 9440  12.980  12.608  10.334  0.0148 -0.0042  0.0567
  598PYPI    C3 9441  12.943  12.415  10.683 -0.5252  0.0580  0.0422
  598PYPI   PO4 9442  12.776  12.103  10.171 -0.0593 -0.2864 -0.0081
  598PYPI   GL1 9443  12.894  11.863   9.829 -0.2481 -0.0611  0.4705
  598PYPI   GL2 9444  13.091  11.623   9.666  0.1209 -0.0836 -0.0257
  598PYPI   C1A 9445  12.768  12.064   9.414 -0.1189 -0.0692 -0.0765
  598PYPI   C2A 9446  12.789  12.025   8.998  0.0899  0.1589  0.1850
  598PYPI   D3A 9447  12.700  12.262   8.666  0.0097  0.0744 -0.1283
  598PYPI   C4A 9448  12.665  12.209   8.201 -0.1354 -0.1670  0.0035
  598PYPI   C1B 9449  13.069  11.714   9.270 -0.0439 -0.1879  0.1619
  598PYPI   C2B 9450  13.079  11.813   8.706  0.1688  0.0789 -0.0107
  598PYPI   C3B 9451  12.999  11.802   8.280 -0.0027  0.0268 -0.3611
  598PYPI   C4B 9452  12.979  11.904   7.855  0.0269  0.1604  0.0414
  599PYPI    C1 9453   9.713  10.251  10.588  0.0109  0.0699 -0.1664
  599PYPI    C2 9454  10.082  10.378  10.676  0.0496 -0.0713 -0.1211
  599PYPI    C3 9455   9.936  10.051  10.854 -0.1393  0.0468 -0.0563
  599PYPI   PO4 9456   9.692  10.305  10.378 -0.1664 -0.3540  0.0350
  599PYPI   GL1 9457   9.705  10.285   9.994  0.2972 -0.3368 -0.3344
  599PYPI   GL2 9458   9.989  10.158   9.928 -0.0961  0.1032 -0.1526
  599PYPI   C1A 9459   9.524  10.508   9.647 -0.1353  0.1157 -0.1170
  599PYPI   C2A 9460   9.512  10.611   9.252 -0.1999  0.0610  0.1594
  599PYPI   D3A 9461   9.521  10.887   8.907 -0.0312 -0.1421  0.0045
  599PYPI   C4A 9462   9.745  10.865   8.496 -0.0952  0.1658 -0.1489
  599PYPI   C1B 9463   9.992  10.347   9.504 -0.1434  0.0296  0.2871
  599PYPI   C2B 9464  10.226  10.362   9.099  0.0760 -0.0358  0.0767
  599PYPI   C3B 9465  10.243  10.189   8.642 -0.1311 -0.1791 -0.0232
  599PYPI   C4B 9466  10.386  10.117   8.255  0.1307  0.0961 -0.1830
  600PYPI    C1 9467  11.306  17.901  10.197  0.0920  0.0157 -0.1095
  600PYPI    C2 9468  11.209  17.653   9.899  0.1504  0.0598 -0.1652
  600PYPI    C3 9469  10.923  17.804  10.135  0.1023  0.0384 -0.2095
  600PYPI   PO4 9470  11.456  18.116  10.113  0.3307  0.4293 -0.3189
  600PYPI   GL1 9471  11.452  18.055   9.720 -0.0118  0.1567 -0.1674
  600PYPI   GL2 9472  11.643  17.880   9.709 -0.0069  0.2961  0.0677
  600PYPI   C1A 9473  11.540  18.251   9.372 -0.2221  0.2770 -0.0437
  600PYPI   C2A 9474  11.613  18.221   8.933  0.2731  0.0540  0.0324
  600PYPI   D3A 9475  11.538  18.196   8.604  0.2050  0.3541  0.0821
  600PYPI   C4A 9476  11.702  17.881   8.436  0.0348  0.0251  0.1064
  600PYPI   C1B 9477  11.337  17.713   9.367  0.1022 -0.1486 -0.1461
  600PYPI   C2B 9478  11.302  17.774   8.933 -0.1438  0.0660 -0.0789
  600PYPI   C3B 9479  11.158  17.839   8.499 -0.1186 -0.3178 -0.4053
  600PYPI   C4B 9480  11.119  17.590   8.207  0.0774 -0.2022  0.0235
  601PYPI    C1 9481  12.571   0.236  10.378  0.1950  0.3319  0.0810
  601PYPI    C2 9482  12.307   0.437  10.602 -0.0967  0.0105  0.0349
  601PYPI    C3 9483  12.533   0.150  10.766  0.2902  0.3381  0.0917
  601PYPI   PO4 9484  12.367   0.261  10.073  0.0921  0.1734  0.2601
  601PYPI   GL1 9485  12.283   0.193   9.565 -0.1953  0.0912 -0.3383
  601PYPI   GL2 9486  12.293   0.550   9.649 -0.1222 -0.1940 -0.2899
  601PYPI   C1A 9487  12.208   0.239   9.157 -0.0593  0.0923  0.0627
  601PYPI   C2A 9488  11.941   0.292   8.789 -0.2557  0.0960 -0.1198
  601PYPI   D3A 9489  11.763   0.131   8.315 -0.4292 -0.1555  0.0624
  601PYPI   C4A 9490  11.737  -0.243   8.084  0.0147  0.1741  0.1411
  601PYPI   C1B 9491  12.477   0.964   9.422 -0.3165 -0.1870  0.1597
  601PYPI   C2B 9492  12.710   1.136   9.089  0.1576 -0.0711 -0.1638
  601PYPI   C3B 9493  12.795   1.477   8.827  0.1009 -0.0939 -0.0427
  601PYPI   C4B 9494  12.895   1.522   8.518 -0.1752 -0.0812  0.0638
  602PYPI    C1 9495  15.954   1.807  10.151 -0.2478 -0.3156  0.0446
  602PYPI    C2 9496  15.933   1.602  10.493 -0.0912 -0.1363  0.1636
  602PYPI    C3 9497  16.026   1.991  10.498 -0.0267 -0.1467 -0.0881
  602PYPI   PO4 9498  16.106   1.621   9.999 -0.1592  0.3528  0.3788
  602PYPI   GL1 9499  16.387   1.538   9.714  0.0593 -0.1165 -0.1675
  602PYPI   GL2 9500  16.298   1.236   9.774  0.0128  0.1355  0.1630
  602PYPI   C1A 9501  16.410   1.689   9.292  0.0765  0.0011  0.2881
  602PYPI   C2A 9502  16.524   1.732   8.838 -0.0060  0.0215 -0.0934
  602PYPI   D3A 9503  16.578   1.709   8.315  0.1180  0.0578  0.1673
  602PYPI   C4A 9504  16.757   1.444   7.987 -0.2266  0.0277  0.0679
  602PYPI   C1B 9505  16.403   1.224   9.325 -0.2328 -0.0542  0.3325
  602PYPI   C2B 9506  16.290   1.224   8.926 -0.0814 -0.2201 -0.1176
  602PYPI   C3B 9507  16.294   1.252   8.451 -0.1327  0.2715  0.2006
  602PYPI   C4B 9508  16.227   1.382   8.002 -0.0376 -0.4057  0.1646
  603PYPI    C1 9509  15.112  16.263  10.699 -0.1057 -0.0542 -0.0387
  603PYPI    C2 9510  15.203  15.875  10.658 -0.0992 -0.0599  0.0279
  603PYPI    C3 9511  15.294  16.068  10.997 -0.3156 -0.0606  0.0879
  603PYPI   PO4 9512  15.200  16.339  10.463  0.0748 -0.2828  0.1003
  603PYPI   GL1 9513  15.505  15.993  10.332  0.2219 -0.1077 -0.3181
  603PYPI   GL2 9514  15.186  15.843  10.162  0.0579 -0.0148  0.1062
  603PYPI   C1A 9515  15.437  16.075   9.833  0.0928 -0.1359  0.0547
  603PYPI   C2A 9516  15.390  15.997   9.362  0.1356 -0.0239 -0.3984
  603PYPI   D3A 9517  15.451  15.885   8.975 -0.0453  0.1291  0.0124
  603PYPI   C4A 9518  15.342  15.851   8.504 -0.2058  0.1309  0.1183
  603PYPI   C1B 9519  14.954  15.998   9.904  0.3072  0.4628 -0.0134
  603PYPI   C2B 9520  14.919  15.911   9.454  0.0059  0.1093  0.0366
  603PYPI   C3B 9521  14.927  15.880   9.003  0.1570 -0.4646  0.3342
  603PYPI   C4B 9522  14.847  15.829   8.600  0.1319  0.0316 -0.0696
  604PYPI    C1 9523   7.965   5.787  10.333  0.1011 -0.2341 -0.1343
  604PYPI    C2 9524   7.645   5.737  10.567  0.0835 -0.0495 -0.1179
  604PYPI    C3 9525   8.008   5.629  10.698  0.0332 -0.2288 -0.1242
  604PYPI   PO4 9526   7.859   5.658  10.097  0.0427  0.3820 -0.0980
  604PYPI   GL1 9527   7.803   5.562   9.760 -0.0228 -0.1271 -0.0920
  604PYPI   GL2 9528   7.464   5.546   9.666  0.1127 -0.2496 -0.1051
  604PYPI   C1A 9529   7.831   5.689   9.345  0.1075 -0.2242  0.1183
  604PYPI   C2A 9530   7.750   5.645   8.918 -0.1830 -0.1794 -0.1585
  604PYPI   D3A 9531   7.628   5.456   8.430 -0.0593  0.1932  0.0978
  604PYPI   C4A 9532   7.693   5.841   8.092  0.1358 -0.1751 -0.2488
  604PYPI   C1B 9533   7.331   5.743   9.230  0.1198  0.2950  0.0925
  604PYPI   C2B 9534   7.218   5.512   8.811 -0.0925  0.1196 -0.2324
  604PYPI   C3B 9535   7.092   5.466   8.402  0.3220  0.1438 -0.0948
  604PYPI   C4B 9536   7.179   5.552   7.997 -0.1062  0.0136 -0.0331
  605PYPI    C1 9537   6.476  18.400  10.618  0.3095  0.0458  0.0223
  605PYPI    C2 9538   6.307  18.643  10.888  0.1985  0.0212 -0.0245
  605PYPI    C3 9539   6.175  18.268  10.847  0.1246  0.0660 -0.2059
  605PYPI   PO4 9540   6.347  18.556  10.385 -0.1609  0.0241 -0.2594
  605PYPI   GL1 9541   6.462  18.908  10.176 -0.1613  0.1028  0.0716
  605PYPI   GL2 9542   6.483  19.209   9.896 -0.0320  0.3764  0.0024
  605PYPI   C1A 9543   6.456  18.686   9.720 -0.1518 -0.2013  0.0846
  605PYPI   C2A 9544   6.475  18.659   9.335 -0.3482 -0.2778  0.0752
  605PYPI   D3A 9545   6.839  18.557   8.992 -0.2980 -0.1273  0.0906
  605PYPI   C4A 9546   6.911  18.672   8.498  0.0931 -0.1220 -0.2148
  605PYPI   C1B 9547   6.454  19.148   9.527 -0.1161  0.0582  0.1319
  605PYPI   C2B 9548   6.594  19.093   9.044  0.1622  0.1410  0.2765
  605PYPI   C3B 9549   6.659  19.117   8.636  0.2326  0.0548 -0.1998
  605PYPI   C4B 9550   6.847  19.046   8.168  0.2223 -0.2670 -0.1956
  606PYPI    C1 9551   2.781   2.243  10.278 -0.1032 -0.0158 -0.1686
  606PYPI    C2 9552   2.472   2.297  10.526 -0.0745 -0.3169 -0.0630
  606PYPI    C3 9553   2.845   2.286  10.670 -0.0262 -0.1198 -0.1692
  606PYPI   PO4 9554   2.664   2.377  10.085 -0.2497 -0.1167  0.0811
  606PYPI   GL1 9555   2.626   2.521   9.745 -0.5428 -0.0450 -0.1306
  606PYPI   GL2 9556   2.657   2.424   9.478 -0.0249 -0.0177 -0.1750
  606PYPI   C1A 9557   2.281   2.748   9.460 -0.4098  0.1039  0.1271
  606PYPI   C2A 9558   2.099   2.567   9.116 -0.3053  0.2355  0.0793
  606PYPI   D3A 9559   2.023   2.338   8.729 -0.1606 -0.2071  0.1319
  606PYPI   C4A 9560   2.070   2.336   8.381 -0.2216 -0.2771  0.0849
  606PYPI   C1B 9561   2.580   2.405   9.123 -0.0102 -0.0203 -0.0026
  606PYPI   C2B 9562   2.519   2.335   8.700  0.0072 -0.2258  0.0622
  606PYPI   C3B 9563   2.636   2.517   8.410 -0.1886  0.0698 -0.2997
  606PYPI   C4B 9564   2.469   2.558   7.979  0.1713 -0.0691  0.2131
  607ERGO   ROH 9565   8.339   7.221   9.818 -0.1070  0.0061  0.1680
  607ERGO    R1 9566   8.334   7.424   9.621 -0.0322 -0.0118  0.1473
  607ERGO    R2 9567   8.499   7.645   9.631  0.1160 -0.1184  0.0737
  607ERGO    R3 9568   8.567   7.566   9.380 -0.0103 -0.1911  0.0615
  607ERGO    R4 9569   8.691   7.830   9.411 -0.2361 -0.0511 -0.1870
  607ERGO    R5 9570   8.558   7.767   9.250 -0.3084 -0.2685 -0.0463
  607ERGO    C1 9571   8.867   7.863   9.048 -0.5597 -0.0802 -0.3502
  607ERGO    C2 9572   8.895   7.979   8.752 -0.1346 -0.1167 -0.1027
  608ERGO   ROH 9573  17.443  12.891   9.503 -0.1964  0.1216  0.0409
  608ERGO    R1 9574  17.300  12.992   9.281  0.0398  0.2090 -0.0752
  608ERGO    R2 9575  17.421  13.046   9.038  0.2390 -0.0104 -0.0318
  608ERGO    R3 9576  17.226  12.882   8.942  0.1052  0.1732 -0.0771
  608ERGO    R4 9577  17.354  12.993   8.703  0.1658  0.1588 -0.0446
  608ERGO    R5 9578  17.142  12.997   8.749  0.1749  0.3047 -0.0277
  608ERGO    C1 9579  17.133  12.808   8.418 -0.0024  0.4296 -0.0947
  608ERGO    C2 9580  17.121  12.665   8.105 -0.0471  0.0941  0.0090
  609ERGO   ROH 9581   6.601   4.300   9.814  0.2207  0.2095  0.0851
  609ERGO    R1 9582   6.518   4.424   9.574  0.0379  0.0837  0.0812
  609ERGO    R2 9583   6.678   4.601   9.435 -0.1382  0.1546 -0.0354
  609ERGO    R3 9584   6.630   4.431   9.228 -0.1063  0.0605  0.0335
  609ERGO    R4 9585   6.650   4.696   9.103 -0.2268  0.0241 -0.0661
  609ERGO    R5 9586   6.486   4.555   9.082 -0.1766 -0.0471  0.0107
  609ERGO    C1 9587   6.588   4.592   8.716 -0.2483 -0.1401 -0.0194
  609ERGO    C2 9588   6.623   4.475   8.360 -0.0885  0.2542  0.2057
  610ERGO   ROH 9589  15.339   4.341   9.719 -0.1009 -0.0284 -0.0931
  610ERGO    R1 9590  15.297   4.169   9.499 -0.0375 -0.0496 -0.0885
  610ERGO    R2 9591  15.154   4.246   9.275  0.0190 -0.0743 -0.1330
  610ERGO    R3 9592  15.380   4.169   9.144  0.0557 -0.0794 -0.0671
  610ERGO    R4 9593  15.167   4.142   8.945  0.0899 -0.2203 -0.0849
  610ERGO    R5 9594  15.310   3.988   9.005  0.1186 -0.1598  0.0043
  610ERGO    C1 9595  15.386   4.009   8.631  0.1656 -0.3100  0.0050
  610ERGO    C2 9596  15.250   4.081   8.384 -0.3697  0.0260 -0.0536
  611ERGO   ROH 9597   3.808  12.316   9.954 -0.1291 -0.0391  0.0248
  611ERGO    R1 9598   3.800  12.181   9.706 -0.1213 -0.0243  0.0171
  611ERGO    R2 9599   3.575  12.178   9.546 -0.0809  0.0760 -0.0392
  611ERGO    R3 9600   3.747  12.272   9.357  0.0051  0.0126  0.0061
  611ERGO    R4 9601   3.562  12.098   9.209 -0.0059  0.0544 -0.0374
  611ERGO    R5 9602   3.780  12.087   9.209 -0.0062 -0.0107  0.0295
  611ERGO    C1 9603   3.716  12.141   8.837  0.1186 -0.0176  0.0062
  611ERGO    C2 9604   3.574  12.104   8.483  0.0509  0.0746  0.1579
  612ERGO   ROH 9605   9.571   3.002   9.756  0.0493  0.1732 -0.0604
  612ERGO    R1 9606   9.436   3.019   9.507  0.0181  0.0427 -0.0529
  612ERGO    R2 9607   9.466   3.235   9.336 -0.1145  0.0201 -0.1036
  612ERGO    R3 9608   9.530   3.042   9.156 -0.0247  0.0141 -0.0665
  612ERGO    R4 9609   9.487   3.284   8.995  0.0987  0.0199 -0.0920
  612ERGO    R5 9610   9.392   3.090   8.967  0.0949  0.0298 -0.1515
  612ERGO    C1 9611   9.560   3.131   8.627  0.3071  0.0142 -0.0504
  612ERGO    C2 9612   9.507   3.135   8.323 -0.0652 -0.1723 -0.0102
  613ERGO   ROH 9613   5.738  11.098   9.722 -0.0316 -0.3609  0.0968
  613ERGO    R1 9614   5.853  11.160   9.471 -0.0684 -0.0873  0.1440
  613ERGO    R2 9615   5.942  10.966   9.296  0.1942  0.1087  0.0513
  613ERGO    R3 9616   5.777  11.093   9.121  0.0616  0.0037  0.0980
  613ERGO    R4 9617   5.980  10.964   8.952  0.0179  0.0278  0.0311
  613ERGO    R5 9618   5.924  11.175   8.950 -0.0546  0.0071 -0.0003
  613ERGO    C1 9619   5.848  11.083   8.588 -0.2091 -0.1178  0.0631
  613ERGO    C2 9620   5.549  10.988   8.326  0.2233 -0.0648 -0.0257
  614ERGO   ROH 9621  11.678   7.856  10.051  0.1315  0.1465 -0.0398
  614ERGO    R1 9622  11.504   7.803   9.834  0.0429  0.1204  0.0376
  614ERGO    R2 9623  11.425   7.998   9.655 -0.0397  0.1014  0.0536
  614ERGO    R3 9624  11.520   7.822   9.471 -0.1095  0.0890  0.0286
  614ERGO    R4 9625  11.414   8.045   9.313  0.0299  0.1787  0.0613
  614ERGO    R5 9626  11.363   7.834   9.291 -0.0799  0.2103  0.0103
  614ERGO    C1 9627  11.496   7.907   8.941  0.0048  0.2121  0.0424
  614ERGO    C2 9628  11.543   7.964   8.562 -0.0334 -0.0713  0.1194
  615ERGO   ROH 9629  12.592  17.328   9.628  0.0770  0.0209 -0.0517
  615ERGO    R1 9630  12.499  17.323   9.361  0.0822  0.0857 -0.0547
  615ERGO    R2 9631  12.427  17.552   9.224  0.1651  0.1269 -0.0282
  615ERGO    R3 9632  12.606  17.460   9.041  0.1378  0.0876 -0.0356
  615ERGO    R4 9633  12.429  17.638   8.889  0.1273  0.0722 -0.0426
  615ERGO    R5 9634  12.477  17.431   8.841  0.1107  0.0614 -0.0147
  615ERGO    C1 9635  12.598  17.602   8.522  0.0796  0.0034 -0.0581
  615ERGO    C2 9636  12.604  17.808   8.274 -0.0141  0.1211 -0.4237
  616ERGO   ROH 9637   2.653  10.043   9.215  0.1047  0.2603 -0.0541
  616ERGO    R1 9638   2.621  10.074   8.936  0.2611  0.1683 -0.0833
  616ERGO    R2 9639   2.408  10.212   8.825  0.1599 -0.1172 -0.2567
  616ERGO    R3 9640   2.606  10.352   8.701  0.0762  0.1108 -0.1405
  616ERGO    R4 9641   2.379  10.363   8.515  0.1511 -0.0851 -0.2406
  616ERGO    R5 9642   2.581  10.296   8.469  0.2411  0.1312 -0.1625
  616ERGO    C1 9643   2.548  10.582   8.218  0.0673  0.1477 -0.1222
  616ERGO    C2 9644   2.512  10.647   7.927  0.2732  0.1796 -0.0417
  617ERGO   ROH 9645   7.766   6.535   9.813  0.1064 -0.2001 -0.1243
  617ERGO    R1 9646   7.708   6.499   9.539  0.1125 -0.0710 -0.1430
  617ERGO    R2 9647   7.587   6.694   9.385  0.1048 -0.0039 -0.0499
  617ERGO    R3 9648   7.803   6.656   9.225  0.1086  0.0853 -0.0672
  617ERGO    R4 9649   7.602   6.779   9.050  0.0312 -0.0256 -0.0592
  617ERGO    R5 9650   7.710   6.593   9.013  0.1171  0.0216 -0.0531
  617ERGO    C1 9651   7.813   6.793   8.705 -0.0083  0.0455 -0.0807
  617ERGO    C2 9652   7.846   6.846   8.376 -0.0613 -0.1636 -0.2267
  618ERGO   ROH 9653   8.380   4.457   9.597  0.2009  0.0958 -0.1147
  618ERGO    R1 9654   8.530   4.467   9.357  0.2488 -0.0627 -0.0930
  618ERGO    R2 9655   8.631   4.241   9.235 -0.0431 -0.1827 -0.1230
  618ERGO    R3 9656   8.497   4.336   9.019  0.1126  0.0450 -0.1224
  618ERGO    R4 9657   8.705   4.163   8.906 -0.1179 -0.2390 -0.1263
  618ERGO    R5 9658   8.667   4.371   8.854  0.1836 -0.1716 -0.0987
  618ERGO    C1 9659   8.621   4.208   8.512 -0.0152 -0.0581 -0.1277
  618ERGO    C2 9660   8.596   4.097   8.219 -0.0345 -0.2938 -0.1341
  619ERGO   ROH 9661   6.492   5.551   9.652 -0.0447 -0.0243 -0.1180
  619ERGO    R1 9662   6.334   5.458   9.436 -0.0744  0.0153 -0.1146
  619ERGO    R2 9663   6.154   5.620   9.302 -0.0017  0.0766 -0.1457
  619ERGO    R3 9664   6.295   5.540   9.083 -0.0216 -0.0100 -0.1256
  619ERGO    R4 9665   6.052   5.663   8.975 -0.0949 -0.1817 -0.1518
  619ERGO    R5 9666   6.127   5.464   8.930 -0.0250 -0.1792 -0.0374
  619ERGO    C1 9667   6.124   5.612   8.579 -0.1677 -0.4133 -0.1366
  619ERGO    C2 9668   6.021   5.705   8.351 -0.1148  0.0279  0.0782
  620ERGO   ROH 9669   4.388  10.449   9.276  0.1655 -0.0756  0.1251
  620ERGO    R1 9670   4.503  10.458   9.017  0.1034 -0.1357  0.0951
  620ERGO    R2 9671   4.395  10.323   8.802 -0.0161 -0.0893  0.1259
  620ERGO    R3 9672   4.401  10.568   8.686  0.0706 -0.0943  0.1187
  620ERGO    R4 9673   4.385  10.380   8.461 -0.2591 -0.0901  0.1316
  620ERGO    R5 9674   4.533  10.538   8.488 -0.1158 -0.1988  0.0062
  620ERGO    C1 9675   4.384  10.645   8.154 -0.3193 -0.0951  0.1283
  620ERGO    C2 9676   4.333  10.741   7.816  0.2785  0.3705  0.0489
  621ERGO   ROH 9677   0.139   5.942   9.128 -0.1376  0.0603  0.0441
  621ERGO    R1 9678   0.271   5.949   8.878 -0.0905  0.0164  0.0672
  621ERGO    R2 9679   0.195   5.789   8.666 -0.0711 -0.0012  0.0687
  621ERGO    R3 9680   0.181   6.027   8.534 -0.0210 -0.0120  0.0439
  621ERGO    R4 9681   0.177   5.824   8.322 -0.0251 -0.0187  0.0643
  621ERGO    R5 9682   0.313   5.994   8.337 -0.0061 -0.0418  0.0639
  621ERGO    C1 9683   0.153   6.068   7.999  0.0487 -0.0390  0.0385
  621ERGO    C2 9684   0.149   6.003   7.595 -0.1234  0.2444 -0.1867
  622ERGO   ROH 9685  10.591  16.007  10.025  0.3427  0.1759 -0.1068
  622ERGO    R1 9686  10.480  15.992   9.765  0.2519  0.0325 -0.0609
  622ERGO    R2 9687  10.571  16.148   9.555  0.0307  0.0787 -0.1225
  622ERGO    R3 9688  10.597  15.907   9.431  0.1957  0.0808 -0.0941
  622ERGO    R4 9689  10.452  16.075   9.239  0.2081  0.0090 -0.1743
  622ERGO    R5 9690  10.391  15.879   9.312  0.2598 -0.0161 -0.1884
  622ERGO    C1 9691  10.409  15.806   8.938  0.4664 -0.0298 -0.1779
  622ERGO    C2 9692  10.400  15.887   8.630  0.1697  0.1772 -0.0627
  623ERGO   ROH 9693  17.704   5.718   9.185 -0.0759  0.1062  0.1415
  623ERGO    R1 9694  17.652   5.791   8.917 -0.0054  0.0472  0.1125
  623ERGO    R2 9695  17.404   5.876   8.831 -0.0042 -0.0628  0.0105
  623ERGO    R3 9696  17.544   6.091   8.740 -0.0566 -0.0201  0.0270
  623ERGO    R4 9697  17.311   6.074   8.563 -0.0926 -0.0255  0.0673
  623ERGO    R5 9698  17.520   6.081   8.502 -0.1024  0.0217  0.0272
  623ERGO    C1 9699  17.388   6.390   8.322 -0.1934  0.0363  0.1157
  623ERGO    C2 9700  17.374   6.464   7.907  0.1595 -0.0550 -0.0651
  624ERGO   ROH 9701  16.370   4.417   9.816 -0.0070 -0.0407  0.0567
  624ERGO    R1 9702  16.469   4.316   9.572  0.0309 -0.0972  0.0970
  624ERGO    R2 9703  16.312   4.171   9.396  0.0155  0.0086  0.0336
  624ERGO    R3 9704  16.396   4.359   9.218  0.2088 -0.0443  0.0636
  624ERGO    R4 9705  16.257   4.159   9.055 -0.0461  0.1342  0.0372
  624ERGO    R5 9706  16.460   4.234   9.024  0.0442 -0.0859  0.0286
  624ERGO    C1 9707  16.303   4.328   8.689  0.0995  0.1577  0.0672
  624ERGO    C2 9708  16.137   4.636   8.502 -0.2067  0.2052 -0.1039
  625ERGO   ROH 9709  10.528  14.774   9.979 -0.2855 -0.1745 -0.0215
  625ERGO    R1 9710  10.690  14.777   9.747 -0.1569 -0.2114  0.0672
  625ERGO    R2 9711  10.619  14.647   9.514 -0.0880 -0.1446  0.0095
  625ERGO    R3 9712  10.658  14.893   9.403  0.0821 -0.1446  0.0654
  625ERGO    R4 9713  10.601  14.717   9.175 -0.2911 -0.0073  0.0463
  625ERGO    R5 9714  10.774  14.848   9.198 -0.1305 -0.1973 -0.0460
  625ERGO    C1 9715  10.627  14.987   8.875 -0.2496  0.0725  0.1203
  625ERGO    C2 9716  10.464  14.904   8.561 -0.2669 -0.0332 -0.0679
  626ERGO   ROH 9717  12.557  10.271   9.906 -0.2593  0.0525  0.0082
  626ERGO    R1 9718  12.644  10.446   9.701 -0.0807 -0.0187  0.0220
  626ERGO    R2 9719  12.862  10.389   9.539 -0.1615 -0.2471 -0.0068
  626ERGO    R3 9720  12.682  10.431   9.339 -0.1364 -0.0147  0.0151
  626ERGO    R4 9721  12.943  10.438   9.207 -0.1265 -0.1658  0.0133
  626ERGO    R5 9722  12.788  10.590   9.196 -0.0081 -0.0331  0.0840
  626ERGO    C1 9723  12.823  10.504   8.826 -0.0825  0.0997  0.0454
  626ERGO    C2 9724  12.750  10.573   8.438  0.0690  0.2548  0.2195
  627ERGO   ROH 9725   3.101  10.967   9.255 -0.0848 -0.2445  0.0154
  627ERGO    R1 9726   3.131  10.819   9.016 -0.1632 -0.2820  0.0277
  627ERGO    R2 9727   2.919  10.760   8.849 -0.1691 -0.0184 -0.0669
  627ERGO    R3 9728   3.077  10.876   8.661  0.0609 -0.2071  0.0043
  627ERGO    R4 9729   2.864  10.744   8.509 -0.2401  0.3485 -0.0760
  627ERGO    R5 9730   3.078  10.719   8.480 -0.2883 -0.0834 -0.1118
  627ERGO    C1 9731   2.979  10.844   8.133 -0.0655  0.3850 -0.0145
  627ERGO    C2 9732   2.949  11.042   7.727  0.0176  0.2062 -0.0450
  628ERGO   ROH 9733   9.988  16.911  10.324  0.0431 -0.0335 -0.0215
  628ERGO    R1 9734  10.048  17.046  10.082  0.1126  0.0083  0.0188
  628ERGO    R2 9735  10.244  16.960   9.907 -0.0022 -0.1042 -0.0576
  628ERGO    R3 9736  10.042  16.967   9.727 -0.0389  0.1512 -0.0111
  628ERGO    R4 9737  10.284  16.938   9.565 -0.1077 -0.0138 -0.0768
  628ERGO    R5 9738  10.131  17.091   9.542  0.0295  0.1368  0.0146
  628ERGO    C1 9739  10.117  16.932   9.196 -0.2037  0.2783 -0.0444
  628ERGO    C2 9740  10.011  16.992   8.902  0.2409 -0.2944  0.0781
  629ERGO   ROH 9741   6.392   3.235   9.973 -0.0855  0.1265 -0.0511
  629ERGO    R1 9742   6.203   3.113   9.801 -0.0953  0.0460  0.0147
  629ERGO    R2 9743   5.933   3.170   9.811 -0.0916  0.0912 -0.0327
  629ERGO    R3 9744   5.967   3.223   9.547 -0.0670 -0.0745 -0.0631
  629ERGO    R4 9745   5.683   3.276   9.597 -0.0276  0.1320 -0.0869
  629ERGO    R5 9746   5.766   3.145   9.444 -0.1163 -0.0018 -0.0156
  629ERGO    C1 9747   5.570   3.387   9.224  0.0328  0.0002 -0.1469
  629ERGO    C2 9748   5.559   3.570   8.933  0.1646  0.2409  0.2234
  630ERGO   ROH 9749   2.266   6.751   9.210  0.1118 -0.2294  0.0675
  630ERGO    R1 9750   2.161   6.770   8.947  0.0883 -0.0992  0.0857
  630ERGO    R2 9751   2.323   6.795   8.725  0.0718 -0.0823  0.0762
  630ERGO    R3 9752   2.184   6.578   8.639 -0.0198 -0.0007  0.0156
  630ERGO    R4 9753   2.279   6.708   8.393  0.2760 -0.1247  0.0587
  630ERGO    R5 9754   2.073   6.654   8.440  0.1948  0.0375 -0.0936
  630ERGO    C1 9755   2.123   6.454   8.119  0.3089 -0.0728 -0.0082
  630ERGO    C2 9756   2.207   6.271   7.811  0.1463 -0.0874 -0.0676
  631ERGO   ROH 9757   2.078  17.271   9.729 -0.1188  0.1030  0.0639
  631ERGO    R1 9758   2.102  17.336   9.455  0.1097 -0.0012  0.0579
  631ERGO    R2 9759   2.318  17.257   9.301  0.1125 -0.2791  0.2078
  631ERGO    R3 9760   2.124  17.153   9.141  0.0930 -0.1160  0.1212
  631ERGO    R4 9761   2.332  17.245   8.956  0.1713 -0.1069  0.2024
  631ERGO    R5 9762   2.121  17.298   8.950  0.1900 -0.0120  0.1926
  631ERGO    C1 9763   2.158  17.142   8.605  0.1872  0.1465  0.1179
  631ERGO    C2 9764   2.091  17.093   8.292  0.0607  0.4351 -0.0846
  632ERGO   ROH 9765   8.162  15.698  10.107  0.0363 -0.0260  0.0765
  632ERGO    R1 9766   8.105  15.729   9.831 -0.0027 -0.1022  0.0766
  632ERGO    R2 9767   7.914  15.905   9.738  0.0745 -0.0379  0.0499
  632ERGO    R3 9768   8.120  15.998   9.587  0.0920 -0.2046 -0.0330
  632ERGO    R4 9769   7.891  15.992   9.404 -0.0409  0.1512  0.1047
  632ERGO    R5 9770   8.086  15.899   9.371 -0.1633 -0.0643 -0.0634
  632ERGO    C1 9771   8.071  16.130   9.068 -0.0918  0.1049  0.0585
  632ERGO    C2 9772   7.936  16.409   8.851 -0.0100  0.0514 -0.0640
  633ERGO   ROH 9773  12.340  11.929   9.973 -0.1120 -0.1351  0.0399
  633ERGO    R1 9774  12.359  11.876   9.696 -0.2295 -0.0602  0.0166
  633ERGO    R2 9775  12.137  11.851   9.532 -0.2957  0.2038  0.0608
  633ERGO    R3 9776  12.263  12.044   9.388 -0.1490  0.1368  0.0973
  633ERGO    R4 9777  12.118  11.886   9.189 -0.2203  0.2518  0.0611
  633ERGO    R5 9778  12.330  11.934   9.186 -0.1895  0.1145  0.0970
  633ERGO    C1 9779  12.225  12.088   8.853 -0.0386  0.2169  0.0955
  633ERGO    C2 9780  12.117  12.091   8.559  0.1650  0.0800  0.0090
  634ERGO   ROH 9781   1.979  11.310   9.669 -0.2661 -0.1542 -0.0590
  634ERGO    R1 9782   2.152  11.340   9.448 -0.1661 -0.1014  0.0259
  634ERGO    R2 9783   2.129  11.188   9.218 -0.0615 -0.0484 -0.0188
  634ERGO    R3 9784   2.119  11.431   9.097 -0.0076 -0.0209  0.0302
  634ERGO    R4 9785   2.182  11.242   8.881 -0.0854  0.0012 -0.0151
  634ERGO    R5 9786   2.293  11.423   8.933 -0.0278 -0.0390  0.0080
  634ERGO    C1 9787   2.204  11.502   8.571 -0.0488  0.0560  0.0331
  634ERGO    C2 9788   2.246  11.692   8.227 -0.1062 -0.0874  0.0884
  635ERGO   ROH 9789  15.116  11.885   9.941  0.2563 -0.0436  0.0595
  635ERGO    R1 9790  15.117  11.765   9.685  0.0510 -0.0666  0.0681
  635ERGO    R2 9791  14.917  11.810   9.499  0.0181  0.0971  0.1396
  635ERGO    R3 9792  15.126  11.879   9.340  0.0220 -0.1026  0.0560
  635ERGO    R4 9793  14.916  11.793   9.154 -0.0681 -0.0674  0.1466
  635ERGO    R5 9794  15.121  11.718   9.162 -0.1120 -0.1837  0.1336
  635ERGO    C1 9795  15.112  11.848   8.803 -0.1147 -0.3506  0.0721
  635ERGO    C2 9796  14.946  11.815   8.328 -0.2205  0.1584 -0.2555
  636ERGO   ROH 9797   1.462   7.477   9.257  0.0032  0.1486  0.1058
  636ERGO    R1 9798   1.471   7.346   9.006  0.1168  0.2303  0.0664
  636ERGO    R2 9799   1.281   7.161   8.928  0.3123  0.0397  0.0390
  636ERGO    R3 9800   1.257   7.324   8.712  0.1012  0.0775  0.0882
  636ERGO    R4 9801   1.137   7.070   8.628  0.1591  0.0389  0.1118
  636ERGO    R5 9802   1.295   7.179   8.525  0.0464  0.1327  0.0325
  636ERGO    C1 9803   1.031   7.169   8.250 -0.1284  0.0740  0.2004
  636ERGO    C2 9804   0.832   7.218   8.048 -0.2274 -0.2157 -0.0598
  637ERGO   ROH 9805   7.755  11.331   9.875  0.1167 -0.0260  0.0423
  637ERGO    R1 9806   7.801  11.245   9.609  0.0362  0.0596 -0.0001
  637ERGO    R2 9807   7.788  11.416   9.393  0.1826  0.1762  0.0807
  637ERGO    R3 9808   8.038  11.322   9.344  0.1001 -0.0208  0.0336
  637ERGO    R4 9809   7.938  11.410   9.082  0.1905  0.2342  0.0835
  637ERGO    R5 9810   8.019  11.213   9.130  0.0100  0.1287 -0.0352
  637ERGO    C1 9811   8.260  11.318   8.854  0.1176  0.0829  0.0409
  637ERGO    C2 9812   8.145  11.397   8.495 -0.1653 -0.2309  0.0493
  638ERGO   ROH 9813   0.611  12.939   9.497 -0.0327  0.1262 -0.1390
  638ERGO    R1 9814   0.768  12.977   9.265 -0.0695 -0.0099 -0.1873
  638ERGO    R2 9815   0.853  12.767   9.106 -0.1997 -0.0940 -0.1487
  638ERGO    R3 9816   0.734  12.911   8.909 -0.1828 -0.0966 -0.1604
  638ERGO    R4 9817   0.850  12.680   8.771  0.0403  0.0308 -0.1852
  638ERGO    R5 9818   0.881  12.889   8.721 -0.0660  0.0690 -0.0882
  638ERGO    C1 9819   0.736  12.765   8.391  0.1959  0.1009 -0.2173
  638ERGO    C2 9820   0.588  12.809   8.059 -0.2037  0.1871  0.1290
  639ERGO   ROH 9821  16.878  11.918   9.737 -0.1546 -0.0115  0.0585
  639ERGO    R1 9822  16.739  11.978   9.497 -0.0706  0.1076  0.0392
  639ERGO    R2 9823  16.869  12.050   9.264  0.0326 -0.1319  0.0218
  639ERGO    R3 9824  16.725  11.845   9.159 -0.2430  0.0287  0.0760
  639ERGO    R4 9825  16.825  11.994   8.926  0.0345 -0.2094  0.0341
  639ERGO    R5 9826  16.617  11.941   8.968 -0.0585  0.1092  0.0088
  639ERGO    C1 9827  16.664  11.769   8.630 -0.2231 -0.1039  0.0922
  639ERGO    C2 9828  16.826  11.793   8.403 -0.0847 -0.1362  0.0659
  640ERGO   ROH 9829   6.676   9.829  10.034 -0.0476  0.0834 -0.0192
  640ERGO    R1 9830   6.701   9.704   9.781  0.0199  0.0727 -0.0072
  640ERGO    R2 9831   6.509   9.532   9.681  0.1275 -0.0667  0.0238
  640ERGO    R3 9832   6.516   9.701   9.468  0.0006 -0.0844  0.0048
  640ERGO    R4 9833   6.412   9.450   9.360 -0.0647 -0.0919  0.0870
  640ERGO    R5 9834   6.582   9.563   9.284 -0.1094 -0.0988 -0.0242
  640ERGO    C1 9835   6.361   9.560   8.973 -0.2957 -0.1233  0.1060
  640ERGO    C2 9836   6.126   9.579   8.863 -0.3450 -0.0737 -0.1890
  641ERGO   ROH 9837  16.400   9.436   9.861  0.1115  0.0096 -0.0743
  641ERGO    R1 9838  16.263   9.380   9.620 -0.0353  0.0979 -0.0129
  641ERGO    R2 9839  16.038   9.520   9.540  0.0421  0.2717  0.0698
  641ERGO    R3 9840  16.183   9.559   9.313 -0.0201  0.1363  0.0052
  641ERGO    R4 9841  15.909   9.511   9.220 -0.0351  0.0117  0.1059
  641ERGO    R5 9842  16.089   9.406   9.155 -0.0288  0.0006  0.1390
  641ERGO    C1 9843  15.970   9.543   8.820 -0.1387 -0.2667  0.0663
  641ERGO    C2 9844  15.899   9.581   8.520 -0.4867  0.0852 -0.1675
  642ERGO   ROH 9845   3.334  16.466   9.831  0.0655  0.2725 -0.1176
  642ERGO    R1 9846   3.295  16.375   9.566  0.1462  0.1259 -0.0801
  642ERGO    R2 9847   3.146  16.516   9.380 -0.0106 -0.1011 -0.1286
  642ERGO    R3 9848   3.372  16.496   9.231  0.0047  0.0745 -0.1324
  642ERGO    R4 9849   3.154  16.493   9.036 -0.0118 -0.2465 -0.1197
  642ERGO    R5 9850   3.313  16.346   9.054  0.1507 -0.0710 -0.0627
  642ERGO    C1 9851   3.370  16.460   8.694  0.0019 -0.1661 -0.1180
  642ERGO    C2 9852   3.424  16.423   8.336  0.4823  0.1111  0.0639
  643ERGO   ROH 9853   5.026   4.876   9.583 -0.1755 -0.1676  0.0499
  643ERGO    R1 9854   4.897   4.825   9.336  0.0166 -0.1950 -0.0467
  643ERGO    R2 9855   4.832   5.025   9.158 -0.0006 -0.1954 -0.0402
  643ERGO    R3 9856   4.973   4.872   8.983  0.2141 -0.0615  0.0112
  643ERGO    R4 9857   4.819   5.056   8.814 -0.1401 -0.4020 -0.0552
  643ERGO    R5 9858   4.822   4.838   8.800  0.2177 -0.4118  0.0642
  643ERGO    C1 9859   4.943   4.930   8.450 -0.0198 -0.3966 -0.0157
  643ERGO    C2 9860   5.023   5.135   8.152  0.0584  0.0030 -0.0195
  644ERGO   ROH 9861  12.616   8.190   9.905 -0.0881  0.2000  0.0531
  644ERGO    R1 9862  12.621   8.230   9.624 -0.0646  0.4441  0.0868
  644ERGO    R2 9863  12.483   8.067   9.449  0.3760  0.2614 -0.0973
  644ERGO    R3 9864  12.379   8.303   9.363 -0.1394  0.1035  0.0545
  644ERGO    R4 9865  12.357   8.124   9.132  0.4196  0.2346 -0.1210
  644ERGO    R5 9866  12.451   8.321   9.135 -0.0409  0.4700  0.1049
  644ERGO    C1 9867  12.186   8.379   8.867 -0.0387  0.0710  0.0077
  644ERGO    C2 9868  11.995   8.418   8.592  0.1999  0.3313  0.0626
  645ERGO   ROH 9869  12.649  16.348   9.837  0.0112 -0.0750  0.0319
  645ERGO    R1 9870  12.561  16.190   9.619 -0.0263 -0.1174  0.0777
  645ERGO    R2 9871  12.409  16.293   9.413 -0.1404 -0.1787  0.1303
  645ERGO    R3 9872  12.606  16.188   9.258 -0.1687 -0.1277  0.0592
  645ERGO    R4 9873  12.440  16.343   9.072 -0.1868 -0.0435  0.1451
  645ERGO    R5 9874  12.497  16.133   9.052 -0.2016 -0.0387  0.0524
  645ERGO    C1 9875  12.643  16.273   8.729 -0.2404  0.0830  0.0870
  645ERGO    C2 9876  12.820  16.266   8.486  0.0826  0.2019 -0.2018
  646ERGO   ROH 9877  12.558  11.549   9.982 -0.3643  0.1069 -0.1674
  646ERGO    R1 9878  12.576  11.455   9.715 -0.1422  0.1117 -0.1567
  646ERGO    R2 9879  12.363  11.463   9.540 -0.0658 -0.0921 -0.2688
  646ERGO    R3 9880  12.541  11.596   9.382 -0.1054  0.0679 -0.1785
  646ERGO    R4 9881  12.333  11.502   9.198  0.0958 -0.1547 -0.2900
  646ERGO    R5 9882  12.548  11.469   9.180  0.1391  0.0562 -0.1625
  646ERGO    C1 9883  12.482  11.650   8.851  0.1528 -0.0410 -0.2175
  646ERGO    C2 9884  12.533  11.816   8.568  0.1930 -0.0862 -0.0294
  647ERGO   ROH 9885   7.122   8.202   9.941 -0.0559 -0.2561 -0.1130
  647ERGO    R1 9886   7.117   8.092   9.680  0.0671 -0.1631 -0.1548
  647ERGO    R2 9887   6.962   8.198   9.478  0.0995 -0.1426 -0.1651
  647ERGO    R3 9888   7.198   8.206   9.344  0.1401 -0.0147 -0.0889
  647ERGO    R4 9889   6.995   8.252   9.138  0.1687 -0.2166 -0.1709
  647ERGO    R5 9890   7.152   8.100   9.134  0.2799 -0.1104 -0.0758
  647ERGO    C1 9891   7.236   8.291   8.815  0.2471 -0.1395 -0.1028
  647ERGO    C2 9892   7.288   8.458   8.555  0.0062  0.1968  0.1008
  648ERGO   ROH 9893  16.944   9.572   9.987  0.1072  0.0181 -0.1576
  648ERGO    R1 9894  16.866   9.557   9.715  0.1618  0.0247 -0.1739
  648ERGO    R2 9895  16.669   9.719   9.608  0.1431 -0.0105 -0.1973
  648ERGO    R3 9896  16.864   9.782   9.429  0.1639  0.0508 -0.1529
  648ERGO    R4 9897  16.613   9.838   9.288  0.1857  0.2316 -0.1158
  648ERGO    R5 9898  16.776   9.712   9.218  0.1431  0.2279 -0.2029
  648ERGO    C1 9899  16.764   9.967   8.934  0.2297  0.4299 -0.0267
  648ERGO    C2 9900  16.617  10.072   8.586 -0.2828 -0.1236  0.2279
  649ERGO   ROH 9901  13.453  13.794   9.793  0.1052 -0.2562  0.1875
  649ERGO    R1 9902  13.487  13.834   9.515  0.0480 -0.0343  0.2096
  649ERGO    R2 9903  13.562  13.630   9.343  0.2991  0.1633  0.0716
  649ERGO    R3 9904  13.337  13.704   9.210  0.1973 -0.0285  0.1344
  649ERGO    R4 9905  13.483  13.534   9.021  0.3199  0.1631  0.0670
  649ERGO    R5 9906  13.409  13.735   8.984  0.1137  0.0960  0.1283
  649ERGO    C1 9907  13.225  13.547   8.708  0.2366 -0.0170  0.1232
  649ERGO    C2 9908  13.439  13.536   8.473  0.0900  0.1011 -0.1882
  650ERGO   ROH 9909   3.032  18.422   9.918  0.0943  0.1313  0.1031
  650ERGO    R1 9910   3.023  18.328   9.651 -0.0268  0.1368  0.1043
  650ERGO    R2 9911   2.937  18.486   9.441  0.0334  0.1964  0.1214
  650ERGO    R3 9912   3.178  18.417   9.334 -0.0338  0.0336  0.0723
  650ERGO    R4 9913   2.990  18.405   9.109 -0.1123 -0.0010  0.1444
  650ERGO    R5 9914   3.125  18.247   9.174 -0.1621 -0.0260  0.1787
  650ERGO    C1 9915   3.246  18.294   8.815 -0.2602 -0.2689  0.1118
  650ERGO    C2 9916   3.224  18.424   8.459  0.0326  0.2977  0.2905
  651ERGO   ROH 9917   4.322  16.192   9.852  0.1336  0.0725  0.0543
  651ERGO    R1 9918   4.212  16.326   9.628  0.0127 -0.1061  0.0039
  651ERGO    R2 9919   4.263  16.592   9.573 -0.2492 -0.0658 -0.0767
  651ERGO    R3 9920   4.339  16.494   9.332 -0.1333 -0.0706 -0.0384
  651ERGO    R4 9921   4.195  16.741   9.269  0.0389  0.0072 -0.1084
  651ERGO    R5 9922   4.155  16.543   9.187 -0.0056  0.0419 -0.1609
  651ERGO    C1 9923   4.226  16.735   8.865  0.3155  0.0452 -0.0909
  651ERGO    C2 9924   4.370  16.780   8.441  0.0729  0.1502  0.2740
  652ERGO   ROH 9925  15.169   2.209   9.913  0.0047 -0.2771  0.0940
  652ERGO    R1 9926  15.229   2.116   9.652 -0.0367 -0.2772  0.0842
  652ERGO    R2 9927  15.077   1.925   9.523 -0.2443 -0.0530 -0.0158
  652ERGO    R3 9928  15.063   2.113   9.328  0.0473  0.0261  0.0356
  652ERGO    R4 9929  15.143   1.869   9.189 -0.0912  0.0018  0.0049
  652ERGO    R5 9930  15.245   2.061   9.181  0.0892 -0.0885  0.1297
  652ERGO    C1 9931  15.169   2.013   8.811  0.2717  0.1080  0.0651
  652ERGO    C2 9932  15.199   2.134   8.471  0.3463 -0.0520 -0.1974
  653ERGO   ROH 9933   9.615   1.532   9.879 -0.1972 -0.0466  0.0515
  653ERGO    R1 9934   9.735   1.530   9.622 -0.1514 -0.0066  0.0728
  653ERGO    R2 9935   9.877   1.313   9.526 -0.0030  0.0690  0.1258
  653ERGO    R3 9936   9.704   1.334   9.317  0.0226 -0.0654  0.0902
  653ERGO    R4 9937   9.963   1.272   9.194  0.1599  0.3597  0.1289
  653ERGO    R5 9938   9.832   1.440   9.145 -0.0672  0.2087  0.1810
  653ERGO    C1 9939   9.851   1.268   8.804  0.2789  0.4028  0.0973
  653ERGO    C2 9940   9.866   1.228   8.392  0.1198 -0.2749 -0.0488
  654ERGO   ROH 9941   9.866   8.777   9.828  0.2152 -0.1006  0.0092
  654ERGO    R1 9942   9.782   8.913   9.594  0.1626 -0.1264  0.0123
  654ERGO    R2 9943   9.933   9.112   9.476  0.0423  0.0076  0.0722
  654ERGO    R3 9944   9.906   8.955   9.255  0.2048  0.0162  0.0464
  654ERGO    R4 9945   9.959   9.224   9.150  0.0925  0.0459  0.0895
  654ERGO    R5 9946   9.792   9.094   9.097  0.1854 -0.0373  0.0191
  654ERGO    C1 9947   9.949   9.142   8.753  0.2742  0.0762  0.0753
  654ERGO    C2 9948   9.956   9.126   8.327 -0.4976 -0.1405  0.0975
  655ERGO   ROH 9949  16.189   7.088   9.836  0.0466  0.0312  0.0402
  655ERGO    R1 9950  16.318   7.107   9.584 -0.0151  0.0874  0.0126
  655ERGO    R2 9951  16.315   6.901   9.399 -0.0463  0.1216 -0.0270
  655ERGO    R3 9952  16.218   7.094   9.234 -0.0991  0.1479  0.0347
  655ERGO    R4 9953  16.307   6.882   9.054 -0.3496  0.0929 -0.0214
  655ERGO    R5 9954  16.365   7.092   9.046 -0.2620  0.0639 -0.0911
  655ERGO    C1 9955  16.212   7.052   8.699 -0.5759  0.1008  0.0398
  655ERGO    C2 9956  16.277   7.025   8.387 -0.0308  0.2294  0.2229
  656ERGO   ROH 9957   5.433   1.198  10.037 -0.1075 -0.1860  0.0154
  656ERGO    R1 9958   5.449   0.980   9.858  0.0133 -0.1260 -0.0480
  656ERGO    R2 9959   5.338   0.986   9.605 -0.0257 -0.1284 -0.0268
  656ERGO    R3 9960   5.589   0.917   9.528  0.0090  0.0569 -0.0872
  656ERGO    R4 9961   5.429   0.906   9.282 -0.0172  0.1011 -0.0832
  656ERGO    R5 9962   5.555   0.747   9.362  0.0847  0.1241 -0.1786
  656ERGO    C1 9963   5.718   0.794   9.021  0.0204  0.4087 -0.1726
  656ERGO    C2 9964   5.669   0.694   8.645  0.0210  0.1011  0.1353
  657ERGO   ROH 9965   4.703   9.369   9.680  0.0191  0.2692 -0.0052
  657ERGO    R1 9966   4.622   9.478   9.432  0.0894  0.2574 -0.0318
  657ERGO    R2 9967   4.793   9.625   9.272  0.2225 -0.0062 -0.1280
  657ERGO    R3 9968   4.721   9.443   9.083 -0.0283 -0.0014 -0.0436
  657ERGO    R4 9969   4.772   9.690   8.933  0.4249 -0.1520 -0.1710
  657ERGO    R5 9970   4.591   9.569   8.926  0.2163  0.1363 -0.1487
  657ERGO    C1 9971   4.693   9.556   8.558  0.3072 -0.2322 -0.1169
  657ERGO    C2 9972   4.888   9.693   8.260 -0.1277  0.1450  0.2820
  658ERGO   ROH 9973   7.780   1.537   9.887  0.0227 -0.0394  0.0776
  658ERGO    R1 9974   7.724   1.609   9.619  0.1422  0.0439  0.0744
  658ERGO    R2 9975   7.920   1.692   9.443  0.2526 -0.1011  0.1283
  658ERGO    R3 9976   7.820   1.492   9.289  0.1139  0.0035  0.0801
  658ERGO    R4 9977   7.924   1.687   9.098  0.0297  0.0901  0.1204
  658ERGO    R5 9978   7.724   1.604   9.101  0.0142  0.1281  0.2029
  658ERGO    C1 9979   7.833   1.496   8.752 -0.2302  0.2996  0.0707
  658ERGO    C2 9980   7.697   1.567   8.503  0.0057  0.0292 -0.1172
  659ERGO   ROH 9981   4.656   3.962   9.849 -0.0791  0.1717  0.1642
  659ERGO    R1 9982   4.703   4.021   9.577 -0.0898  0.1300  0.1525
  659ERGO    R2 9983   4.877   3.874   9.421  0.0313  0.2060  0.2105
  659ERGO    R3 9984   4.661   3.850   9.258  0.0630  0.0110  0.1951
  659ERGO    R4 9985   4.882   3.919   9.078 -0.0386  0.5126  0.2475
  659ERGO    R5 9986   4.691   4.022   9.094 -0.2032  0.2049  0.3427
  659ERGO    C1 9987   4.682   3.923   8.726 -0.0495  0.5080  0.2546
  659ERGO    C2 9988   4.643   4.026   8.393  0.2243 -0.3919 -0.0116
  660ERGO   ROH 9989  13.969   5.090   9.666 -0.1745 -0.0256 -0.1484
  660ERGO    R1 9990  13.985   5.309   9.487 -0.1197 -0.0718 -0.1985
  660ERGO    R2 9991  14.202   5.480   9.480 -0.2152  0.0507 -0.0251
  660ERGO    R3 9992  14.205   5.413   9.216  0.0976 -0.0226 -0.0079
  660ERGO    R4 9993  14.351   5.666   9.229  0.2176 -0.0863  0.1194
  660ERGO    R5 9994  14.181   5.621   9.101  0.3553 -0.0335 -0.0973
  660ERGO    C1 9995  14.440   5.711   8.836  0.7633 -0.2349  0.2196
  660ERGO    C2 9996  14.471   5.779   8.424  0.1366  0.2105  0.0372
  661ERGO   ROH 9997  14.937   7.235   9.797 -0.0402  0.2870  0.0545
  661ERGO    R1 9998  14.870   7.114   9.550  0.1391  0.0952  0.0988
  661ERGO    R2 9999  14.715   7.241   9.359 -0.0812 -0.2197  0.0718
  661ERGO    R310000  14.927   7.185   9.198 -0.0012  0.0703  0.0684
  661ERGO    R410001  14.707   7.244   9.014 -0.1061 -0.2312  0.0713
  661ERGO    R510002  14.831   7.065   9.014  0.1484 -0.0688  0.0710
  661ERGO    C110003  14.900   7.193   8.661 -0.0455  0.0344  0.0678
  661ERGO    C210004  14.931   7.324   8.257 -0.3030  0.2598  0.2546
  662ERGO   ROH10005  16.443  13.862   9.963 -0.1283 -0.0304  0.0268
  662ERGO    R110006  16.476  13.894   9.684 -0.1302 -0.0711  0.0221
  662ERGO    R210007  16.638  13.728   9.533 -0.1594 -0.1156  0.0397
  662ERGO    R310008  16.412  13.696   9.386 -0.1684 -0.0993  0.0493
  662ERGO    R410009  16.623  13.735   9.188 -0.1685 -0.1663  0.0386
  662ERGO    R510010  16.437  13.847   9.202 -0.1481 -0.1326  0.0255
  662ERGO    C110011  16.402  13.708   8.849 -0.1823 -0.1806  0.0470
  662ERGO    C210012  16.333  13.704   8.487 -0.1020 -0.2595 -0.3012
  663ERGO   ROH10013  13.863  11.348  10.018 -0.3822  0.0304 -0.0108
  663ERGO    R110014  14.011  11.334   9.777 -0.2236 -0.2433  0.0969
  663ERGO    R210015  13.928  11.185   9.560 -0.2855 -0.1829  0.0745
  663ERGO    R310016  13.956  11.420   9.428  0.1491 -0.2484  0.0338
  663ERGO    R410017  13.866  11.230   9.223 -0.2580 -0.1051  0.0801
  663ERGO    R510018  14.042  11.358   9.213 -0.0081 -0.4462  0.0281
  663ERGO    C110019  13.856  11.478   8.903  0.1660 -0.1214  0.0450
  663ERGO    C210020  13.923  11.479   8.559  0.0096 -0.0624  0.1504
  664ERGO   ROH10021   8.675   6.893   9.820 -0.1544 -0.1078 -0.1023
  664ERGO    R110022   8.606   6.879   9.546  0.0519 -0.0645 -0.1577
  664ERGO    R210023   8.524   7.100   9.402 -0.0205 -0.0792 -0.1304
  664ERGO    R310024   8.725   7.025   9.235  0.1579  0.1437 -0.0235
  664ERGO    R410025   8.534   7.167   9.063 -0.1705 -0.4822 -0.2215
  664ERGO    R510026   8.613   6.967   9.031  0.2773 -0.3662  0.0388
  664ERGO    C110027   8.728   7.136   8.709 -0.0903 -0.5075 -0.1742
  664ERGO    C210028   8.703   7.163   8.417 -0.1454  0.0394 -0.3575
  665ERGO   ROH10029   7.034  10.663   9.800 -0.1026 -0.2992  0.0737
  665ERGO    R110030   7.197  10.665   9.568 -0.0675 -0.0497  0.0973
  665ERGO    R210031   7.240  10.439   9.415  0.2137  0.0385  0.0402
  665ERGO    R310032   7.153  10.598   9.213  0.0610 -0.0040  0.0719
  665ERGO    R410033   7.279  10.370   9.079  0.0825  0.0340  0.0255
  665ERGO    R510034   7.324  10.581   9.046 -0.0097  0.0491 -0.0070
  665ERGO    C110035   7.220  10.480   8.693 -0.1373 -0.0084  0.0466
  665ERGO    C210036   7.218  10.523   8.420 -0.0094  0.0245  0.2607
  666ERGO   ROH10037   2.090  13.587   9.772  0.0784  0.0455  0.0341
  666ERGO    R110038   2.230  13.504   9.541  0.0244  0.0390  0.0024
  666ERGO    R210039   2.103  13.453   9.300 -0.0247  0.0912  0.0136
  666ERGO    R310040   2.285  13.631   9.204 -0.0021  0.0630  0.0076
  666ERGO    R410041   2.188  13.489   8.967 -0.0567  0.0992  0.0076
  666ERGO    R510042   2.396  13.514   9.027 -0.0456  0.0549 -0.0138
  666ERGO    C110043   2.407  13.678   8.683 -0.0540  0.0773 -0.0015
  666ERGO    C210044   2.404  13.797   8.369 -0.0707 -0.0608 -0.0111
  667ERGO   ROH10045   6.847  18.177  10.261  0.1566 -0.2323 -0.0761
  667ERGO    R110046   6.788  18.130   9.988  0.1545 -0.1299 -0.0942
  667ERGO    R210047   6.807  18.328   9.796  0.1440 -0.0530 -0.0212
  667ERGO    R310048   6.969  18.147   9.672  0.1507 -0.0002 -0.0886
  667ERGO    R410049   6.879  18.325   9.457  0.1547  0.0756 -0.0201
  667ERGO    R510050   6.864  18.108   9.461  0.1604  0.0774 -0.1053
  667ERGO    C110051   7.072  18.154   9.145  0.1670  0.2000 -0.0827
  667ERGO    C210052   7.117  18.183   8.657  0.0864  0.0232  0.1969
  668ERGO   ROH10053   0.472   7.391   9.479  0.0693 -0.0211 -0.0816
  668ERGO    R110054   0.477   7.479   9.210  0.1341 -0.0447 -0.0882
  668ERGO    R210055   0.340   7.349   9.008  0.0555  0.0283 -0.0809
  668ERGO    R310056   0.234   7.596   8.965  0.2159  0.0949 -0.1046
  668ERGO    R410057   0.252   7.475   8.699 -0.3004 -0.1338 -0.0505
  668ERGO    R510058   0.333   7.668   8.760 -0.0252 -0.1554 -0.3179
  668ERGO    C110059   0.101   7.780   8.478 -0.3571 -0.1656 -0.0550
  668ERGO    C210060   0.064   7.913   8.123 -0.0381  0.1263 -0.1546
  669ERGO   ROH10061   7.699  13.607   9.323 -0.1377  0.1034  0.2033
  669ERGO    R110062   7.704  13.657   9.045 -0.1736 -0.1419  0.1566
  669ERGO    R210063   7.745  13.910   8.939 -0.5103 -0.1755 -0.0668
  669ERGO    R310064   7.945  13.785   8.803 -0.3179 -0.0250  0.0723
  669ERGO    R410065   7.889  14.027   8.648 -0.3140 -0.0072  0.0947
  669ERGO    R510066   7.892  13.823   8.573 -0.1343  0.0148  0.0344
  669ERGO    C110067   8.160  13.979   8.351 -0.0189  0.2320  0.3192
  669ERGO    C210068   8.490  13.960   8.070 -0.0441 -0.1649  0.1076
  670ERGO   ROH10069  16.524  12.243   9.854  0.0806  0.2425 -0.0827
  670ERGO    R110070  16.432  12.351   9.609  0.0768  0.1468 -0.1238
  670ERGO    R210071  16.598  12.387   9.390  0.0465 -0.0511 -0.1811
  670ERGO    R310072  16.408  12.240   9.263 -0.0489 -0.0375 -0.0574
  670ERGO    R410073  16.551  12.379   9.048  0.0732 -0.3428 -0.1807
  670ERGO    R510074  16.336  12.379   9.083  0.0687 -0.1544 -0.1980
  670ERGO    C110075  16.346  12.236   8.729 -0.0008 -0.4999 -0.0643
  670ERGO    C210076  16.417  12.232   8.446  0.2091  0.1969 -0.2168
  671ERGO   ROH10077  12.408  18.214   9.327  0.0185 -0.0651  0.0760
  671ERGO    R110078  12.288  18.100   9.097 -0.1510  0.0167  0.1221
  671ERGO    R210079  12.132  18.246   8.922  0.0614  0.1802  0.0641
  671ERGO    R310080  12.306  18.150   8.737 -0.0751 -0.1518  0.1016
  671ERGO    R410081  12.065  18.219   8.585  0.0793  0.3035  0.0500
  671ERGO    R510082  12.168  18.027   8.585 -0.2796  0.1030  0.0742
  671ERGO    C110083  12.189  18.112   8.214 -0.0384  0.0636  0.0770
  671ERGO    C210084  12.203  18.066   7.959  0.1078 -0.1757 -0.0558
  672ERGO   ROH10085   2.200   2.261   9.639  0.2240 -0.0702  0.0088
  672ERGO    R110086   2.286   2.105   9.420  0.1774  0.0434 -0.0918
  672ERGO    R210087   2.124   1.916   9.299  0.2173 -0.0343 -0.0289
  672ERGO    R310088   2.184   2.057   9.074 -0.0311  0.0670 -0.0345
  672ERGO    R410089   2.081   1.800   8.976  0.1750 -0.0171 -0.0292
  672ERGO    R510090   2.271   1.893   8.923  0.0582  0.1808 -0.1066
  672ERGO    C110091   2.112   1.864   8.577 -0.0829  0.0881 -0.0346
  672ERGO    C210092   1.848   1.885   8.428  0.0655 -0.0541 -0.0497
  673ERGO   ROH10093   8.143   9.643  10.326  0.1995  0.1070  0.0543
  673ERGO    R110094   8.285   9.580  10.089  0.0058 -0.0093 -0.0337
  673ERGO    R210095   8.186   9.636   9.837  0.0108  0.3193  0.0327
  673ERGO    R310096   8.424   9.765   9.808  0.2372 -0.0852  0.0285
  673ERGO    R410097   8.322   9.731   9.534  0.0628  0.2721  0.0417
  673ERGO    R510098   8.518   9.669   9.609 -0.0104 -0.1308 -0.0714
  673ERGO    C110099   8.625   9.906   9.330  0.3058 -0.1350  0.0430
  673ERGO    C210100   8.811  10.018   9.041  0.0213  0.0956  0.2160
  674PSPI    C110101  17.685  12.442   5.623  0.0500  0.0598 -0.0416
  674PSPI    C210102  17.977  12.373   5.360  0.0680 -0.1300  0.0270
  674PSPI    C310103  17.670  12.609   5.260  0.2002  0.0001 -0.0757
  674PSPI   PO410104  17.817  12.511   5.836  0.0669 -0.0175 -0.0625
  674PSPI   GL110105  18.053  12.687   6.109  0.1016  0.0589  0.0837
  674PSPI   GL210106  18.268  12.887   6.014 -0.1412 -0.0373  0.0690
  674PSPI   C1A10107  18.165  12.453   6.475  0.3159  0.0406  0.0994
  674PSPI   C2A10108  18.140  12.627   6.878 -0.0011 -0.3702  0.2404
  674PSPI   C3A10109  18.037  12.807   7.218  0.1546  0.2464  0.1733
  674PSPI   C4A10110  18.100  12.932   7.614 -0.3839  0.0840  0.0108
  674PSPI   C1B10111  18.659  12.748   6.236 -0.2348  0.0196  0.0577
  674PSPI   C2B10112  18.674  12.837   6.688 -0.2178 -0.0108 -0.3867
  674PSPI   C3B10113  18.522  12.890   7.076  0.0812 -0.2200  0.1785
  674PSPI   C4B10114  18.665  12.822   7.498 -0.0579  0.0155  0.1686
  675PSPI    C110115   7.790   5.250   5.417 -0.0181  0.3419  0.2170
  675PSPI    C210116   7.942   5.174   5.054  0.0777  0.0356  0.3181
  675PSPI    C310117   7.692   5.483   5.106  0.2111  0.1957  0.0319
  675PSPI   PO410118   8.055   5.215   5.569 -0.1361  0.2142 -0.0028
  675PSPI   GL110119   8.181   5.038   6.005 -0.2353  0.0291  0.1424
  675PSPI   GL210120   7.951   5.168   6.300 -0.1859 -0.2024  0.0163
  675PSPI   C1A10121   8.459   5.257   6.131  0.1100  0.1220 -0.1651
  675PSPI   C2A10122   8.687   5.596   6.309  0.2408  0.0387 -0.2020
  675PSPI   C3A10123   8.802   5.781   6.661  0.2461  0.0812 -0.1091
  675PSPI   C4A10124   8.999   5.837   7.108 -0.1050 -0.1245  0.0619
  675PSPI   C1B10125   8.086   4.893   6.655 -0.0624  0.0271  0.0497
  675PSPI   C2B10126   7.901   4.756   7.061 -0.1967  0.3520  0.0430
  675PSPI   C3B10127   7.661   4.628   7.448 -0.1275  0.0403 -0.1485
  675PSPI   C4B10128   7.454   4.619   7.801 -0.0452  0.1042 -0.2094
  676PSPI    C110129   1.856   9.378   5.314 -0.0808 -0.0006 -0.3402
  676PSPI    C210130   1.987   9.697   5.517  0.0220 -0.2861  0.0545
  676PSPI    C310131   2.018   9.687   5.118 -0.0052  0.2026  0.0339
  676PSPI   PO410132   1.882   9.181   5.470  0.0945  0.1555 -0.1215
  676PSPI   GL110133   1.807   9.079   5.808 -0.2188  0.2693  0.2613
  676PSPI   GL210134   1.617   9.154   5.923  0.1960  0.2643  0.1392
  676PSPI   C1A10135   2.057   9.356   6.047 -0.0238  0.0088  0.1774
  676PSPI   C2A10136   2.116   9.552   6.387  0.1590 -0.2286  0.1361
  676PSPI   C3A10137   2.146   9.517   6.859  0.2951 -0.3007 -0.0916
  676PSPI   C4A10138   1.953   9.695   7.278 -0.0141 -0.1994  0.3077
  676PSPI   C1B10139   1.369   9.021   6.313  0.1126 -0.0125 -0.1995
  676PSPI   C2B10140   1.277   9.096   6.769  0.0169  0.0567 -0.0082
  676PSPI   C3B10141   0.887   9.145   6.970 -0.0002 -0.1591  0.1144
  676PSPI   C4B10142   0.708   8.859   7.172  0.1792 -0.1083 -0.0041
  677PSPI    C110143  12.138  12.726   5.351  0.0955 -0.2093 -0.0960
  677PSPI    C210144  11.942  12.380   5.306  0.2240 -0.2860 -0.0733
  677PSPI    C310145  12.155  12.529   5.003  0.0779 -0.1689 -0.1197
  677PSPI   PO410146  12.179  12.718   5.690 -0.0058  0.0518  0.3629
  677PSPI   GL110147  12.314  13.028   6.021 -0.2590  0.1993 -0.2113
  677PSPI   GL210148  12.092  12.875   6.160  0.1313 -0.1298  0.0006
  677PSPI   C1A10149  12.375  13.251   6.374 -0.1063  0.0000 -0.2125
  677PSPI   C2A10150  12.359  13.472   6.794 -0.3061  0.0240  0.1669
  677PSPI   C3A10151  12.422  13.538   7.210 -0.0457 -0.2017 -0.2255
  677PSPI   C4A10152  12.502  13.367   7.605  0.0539 -0.0184  0.1504
  677PSPI   C1B10153  12.202  12.776   6.578  0.1638 -0.0282 -0.2069
  677PSPI   C2B10154  12.173  12.721   7.080 -0.3246 -0.0120 -0.0036
  677PSPI   C3B10155  12.192  12.934   7.442  0.2439  0.0021 -0.2097
  677PSPI   C4B10156  12.275  13.007   7.902  0.1327  0.1029  0.3001
  678PSPI    C110157   8.730   6.350   5.474 -0.1901  0.2468 -0.0243
  678PSPI    C210158   9.048   6.544   5.329 -0.0198  0.0950  0.1401
  678PSPI    C310159   8.860   6.272   5.104  0.2449 -0.1417  0.2001
  678PSPI   PO410160   8.550   6.501   5.596 -0.1331 -0.1972 -0.2976
  678PSPI   GL110161   8.315   6.437   5.988 -0.0221 -0.0505 -0.2154
  678PSPI   GL210162   8.019   6.344   6.103  0.3168  0.0918 -0.2007
  678PSPI   C1A10163   8.580   6.571   6.305 -0.0507  0.2298 -0.0693
  678PSPI   C2A10164   8.607   6.742   6.715  0.0882  0.0027  0.0117
  678PSPI   C3A10165   8.447   6.910   7.142 -0.0873 -0.1429  0.1432
  678PSPI   C4A10166   8.194   6.985   7.467 -0.1462 -0.3417 -0.2316
  678PSPI   C1B10167   8.137   6.507   6.570  0.0457  0.0476 -0.1137
  678PSPI   C2B10168   8.240   6.411   6.915 -0.0620 -0.1175  0.2504
  678PSPI   C3B10169   8.223   6.267   7.223 -0.0819 -0.1143 -0.1198
  678PSPI   C4B10170   8.248   5.945   7.449  0.0510  0.0544 -0.0165
  679PSPI    C110171   3.722   7.271   4.971 -0.0944  0.1157 -0.2075
  679PSPI    C210172   3.526   7.079   5.262 -0.0330  0.1044 -0.1735
  679PSPI    C310173   3.329   7.331   5.021 -0.0593  0.2130 -0.0397
  679PSPI   PO410174   3.936   7.327   5.102 -0.1840  0.3392 -0.0183
  679PSPI   GL110175   4.129   7.474   5.562 -0.1808 -0.0938  0.0965
  679PSPI   GL210176   4.062   7.822   5.568 -0.2766  0.2598  0.1467
  679PSPI   C1A10177   4.209   7.360   6.007  0.3374 -0.1316  0.0483
  679PSPI   C2A10178   4.129   7.566   6.404 -0.0565 -0.0194  0.3905
  679PSPI   C3A10179   4.113   7.754   6.742  0.1451  0.0049  0.0597
  679PSPI   C4A10180   4.085   8.173   6.979 -0.0725 -0.0854  0.2754
  679PSPI   C1B10181   4.416   7.860   5.850  0.1871 -0.3172  0.1875
  679PSPI   C2B10182   4.660   7.995   6.268 -0.1625 -0.1946 -0.1711
  679PSPI   C3B10183   4.474   8.058   6.651  0.1934 -0.1238 -0.1452
  679PSPI   C4B10184   4.570   8.219   7.090  0.0501  0.4056 -0.0674
  680PSPI    C110185   5.471   4.510   5.392  0.2102 -0.2207 -0.0251
  680PSPI    C210186   5.583   4.874   5.269  0.1540 -0.2164 -0.0641
  680PSPI    C310187   5.676   4.551   5.051 -0.1580 -0.1861 -0.2481
  680PSPI   PO410188   5.241   4.533   5.520 -0.1739  0.1750  0.2426
  680PSPI   GL110189   5.031   4.384   5.873  0.1312 -0.1106  0.0172
  680PSPI   GL210190   5.431   4.540   5.946  0.1110  0.1745 -0.1277
  680PSPI   C1A10191   5.156   4.296   6.359  0.1444 -0.0535 -0.1881
  680PSPI   C2A10192   5.173   4.168   6.806  0.0377 -0.3291 -0.4490
  680PSPI   C3A10193   4.968   4.017   7.220 -0.3179  0.0690  0.2871
  680PSPI   C4A10194   4.898   3.738   7.601 -0.1480 -0.0596  0.3878
  680PSPI   C1B10195   5.394   4.782   6.277 -0.1258  0.0410  0.0647
  680PSPI   C2B10196   5.482   5.122   6.522 -0.0295  0.4229 -0.0298
  680PSPI   C3B10197   5.380   5.371   6.898  0.0893  0.0982 -0.2976
  680PSPI   C4B10198   5.498   5.376   7.321  0.0451  0.2242 -0.0222
  681PSPI    C110199   7.431   1.399   5.530  0.0118  0.2259 -0.2436
  681PSPI    C210200   7.562   1.589   5.203 -0.0617  0.1846 -0.2972
  681PSPI    C310201   7.533   1.190   5.205  0.1607  0.1671 -0.1605
  681PSPI   PO410202   7.497   1.536   5.684 -0.1156 -0.0176 -0.0832
  681PSPI   GL110203   7.467   1.609   6.091  0.4647  0.0019  0.0937
  681PSPI   GL210204   7.662   1.372   6.118  0.2971  0.2789  0.0255
  681PSPI   C1A10205   7.593   1.743   6.509 -0.0189 -0.2335 -0.2465
  681PSPI   C2A10206   7.678   1.657   7.010 -0.3197  0.0489  0.1984
  681PSPI   C3A10207   7.735   1.749   7.480  0.0851  0.2863 -0.1885
  681PSPI   C4A10208   7.842   1.480   7.937  0.0921  0.2251 -0.0326
  681PSPI   C1B10209   7.864   1.158   6.454 -0.0937  0.2605 -0.2712
  681PSPI   C2B10210   8.009   1.109   6.859 -0.1461  0.2322  0.1131
  681PSPI   C3B10211   8.293   0.871   7.077  0.0186  0.1148 -0.1284
  681PSPI   C4B10212   8.565   0.491   7.065 -0.2082 -0.0300 -0.0186
  682PSPI    C110213   9.107  11.456   5.587 -0.0830  0.1281 -0.4224
  682PSPI    C210214   9.329  11.139   5.688 -0.1113  0.2761  0.1372
  682PSPI    C310215   9.506  11.479   5.575 -0.0737  0.1838 -0.0882
  682PSPI   PO410216   8.959  11.437   5.921  0.3329  0.0289  0.1055
  682PSPI   GL110217   9.090  11.475   6.378  0.0309 -0.0220 -0.0689
  682PSPI   GL210218   8.845  11.246   6.454  0.1783 -0.1413  0.0806
  682PSPI   C1A10219   9.211  11.433   6.818  0.0948  0.2642  0.5111
  682PSPI   C2A10220   9.085  11.399   7.254  0.4383  0.1039  0.0024
  682PSPI   C3A10221   8.962  11.288   7.671 -0.2511 -0.0244  0.0750
  682PSPI   C4A10222   8.828  10.920   7.724 -0.1366  0.0259 -0.1292
  682PSPI   C1B10223   8.691  11.408   6.820  0.0243  0.2053 -0.1119
  682PSPI   C2B10224   8.614  11.477   7.266 -0.0077 -0.2555 -0.0567
  682PSPI   C3B10225   8.475  11.430   7.683 -0.0170  0.0363  0.0788
  682PSPI   C4B10226   8.435  11.321   8.125  0.0519 -0.1999  0.2022
  683PSPI    C110227  16.455  10.356   5.466  0.0192 -0.0394 -0.2157
  683PSPI    C210228  16.356  10.129   5.152 -0.0547 -0.2357 -0.0524
  683PSPI    C310229  16.728  10.273   5.185 -0.1593  0.1462 -0.4478
  683PSPI   PO410230  16.292  10.526   5.582 -0.2287  0.0786 -0.1882
  683PSPI   GL110231  16.134  10.549   5.946 -0.0253 -0.3048 -0.1360
  683PSPI   GL210232  16.246  10.840   6.034  0.2367 -0.1056 -0.2284
  683PSPI   C1A10233  15.770  10.656   6.265 -0.0970 -0.2069  0.3279
  683PSPI   C2A10234  15.801  10.724   6.680 -0.1847 -0.0573  0.1217
  683PSPI   C3A10235  15.976  10.725   7.126  0.2140  0.0442  0.0822
  683PSPI   C4A10236  16.278  10.640   7.393 -0.3152 -0.2240  0.0872
  683PSPI   C1B10237  16.265  10.753   6.454  0.2149  0.0925  0.3943
  683PSPI   C2B10238  16.368  10.871   6.869 -0.1862 -0.4011 -0.2866
  683PSPI   C3B10239  16.553  11.055   7.241 -0.0833 -0.0042  0.1962
  683PSPI   C4B10240  16.713  11.078   7.650 -0.2299  0.1829  0.2823
  684PSPI    C110241  12.759   0.749   5.345  0.2136  0.0138  0.2962
  684PSPI    C210242  12.963   1.093   5.323 -0.0265  0.1612  0.3330
  684PSPI    C310243  13.049   0.792   5.074 -0.0514  0.3764  0.0600
  684PSPI   PO410244  12.662   0.895   5.648  0.0637 -0.2857  0.0185
  684PSPI   GL110245  12.924   0.964   5.983  0.1368 -0.0236 -0.1551
  684PSPI   GL210246  12.735   1.092   6.132  0.1100 -0.2055  0.0628
  684PSPI   C1A10247  12.949   0.831   6.470  0.0241 -0.2265  0.3091
  684PSPI   C2A10248  12.743   0.993   6.900 -0.0037 -0.0531 -0.2788
  684PSPI   C3A10249  12.681   0.924   7.342  0.0841 -0.3127  0.1355
  684PSPI   C4A10250  12.681   0.912   7.725  0.0022 -0.1245 -0.2483
  684PSPI   C1B10251  12.491   1.255   6.454 -0.2498  0.1125  0.0629
  684PSPI   C2B10252  12.236   1.180   6.861  0.2059  0.0494  0.0020
  684PSPI   C3B10253  12.174   0.897   7.172 -0.3189  0.0341 -0.1241
  684PSPI   C4B10254  12.173   0.512   7.492  0.1665 -0.1871 -0.0417
  685PSPI    C110255  15.147   6.947   5.412 -0.1902 -0.0658  0.1845
  685PSPI    C210256  15.129   6.558   5.321  0.1031  0.0323 -0.3323
  685PSPI    C310257  15.475   6.720   5.439 -0.1463  0.0268  0.4651
  685PSPI   PO410258  14.981   6.973   5.661  0.0186  0.0789  0.3096
  685PSPI   GL110259  14.613   7.005   5.898  0.0822 -0.2139 -0.0895
  685PSPI   GL210260  14.599   7.301   6.154  0.2358 -0.1065 -0.0767
  685PSPI   C1A10261  14.750   6.775   6.262  0.1025  0.0494  0.1227
  685PSPI   C2A10262  14.647   6.754   6.679 -0.0368  0.2079  0.0160
  685PSPI   C3A10263  14.348   7.083   6.913 -0.1743 -0.0632 -0.2025
  685PSPI   C4A10264  14.254   7.355   7.198  0.2061  0.1109  0.0581
  685PSPI   C1B10265  14.207   7.281   6.456 -0.2411 -0.2005  0.1203
  685PSPI   C2B10266  13.912   7.317   6.842 -0.0675 -0.2214 -0.0194
  685PSPI   C3B10267  13.782   7.206   7.390 -0.0929  0.0868 -0.0858
  685PSPI   C4B10268  13.814   7.606   7.695  0.1753  0.0852  0.0087
  686PSPI    C110269  14.753   4.358   5.523 -0.1812  0.0575  0.1366
  686PSPI    C210270  14.558   4.162   5.233 -0.2680 -0.1233  0.3149
  686PSPI    C310271  14.558   4.562   5.239 -0.0842 -0.1134 -0.0558
  686PSPI   PO410272  14.683   4.305   5.744 -0.0340 -0.3076 -0.0864
  686PSPI   GL110273  14.882   4.647   6.007 -0.1652  0.3919  0.1805
  686PSPI   GL210274  15.216   4.585   5.990  0.2913 -0.1789  0.1135
  686PSPI   C1A10275  14.715   4.673   6.391  0.0501  0.0027 -0.0325
  686PSPI   C2A10276  14.841   4.810   6.758 -0.2013 -0.0571  0.0255
  686PSPI   C3A10277  15.138   4.931   7.094  0.1148 -0.3510  0.0986
  686PSPI   C4A10278  15.198   5.370   7.260 -0.0461  0.0491  0.1371
  686PSPI   C1B10279  15.249   4.787   6.398  0.0123 -0.1871 -0.1544
  686PSPI   C2B10280  15.523   4.850   6.789  0.2342  0.1979 -0.0589
  686PSPI   C3B10281  15.593   4.982   7.193  0.5140 -0.0203 -0.1662
  686PSPI   C4B10282  15.602   5.216   7.548  0.1985 -0.5013  0.1142
  687PSPI    C110283  13.911   4.049   5.737  0.0007 -0.1520  0.2148
  687PSPI    C210284  13.550   4.105   5.900 -0.1025 -0.4075  0.0789
  687PSPI    C310285  13.593   3.857   5.589  0.1391 -0.1421 -0.1037
  687PSPI   PO410286  14.106   3.988   5.906  0.0329 -0.1934  0.1213
  687PSPI   GL110287  14.302   4.314   6.098  0.1636  0.3505 -0.0236
  687PSPI   GL210288  14.609   4.133   6.172 -0.1179 -0.0603 -0.1590
  687PSPI   C1A10289  14.305   4.427   6.537  0.0200 -0.0439 -0.2296
  687PSPI   C2A10290  14.356   4.610   6.921  0.3334 -0.1329  0.1270
  687PSPI   C3A10291  14.587   4.820   7.233  0.0495 -0.0648  0.1621
  687PSPI   C4A10292  14.532   4.956   7.668  0.2059  0.1066 -0.0994
  687PSPI   C1B10293  14.681   3.942   6.527  0.0640  0.2264 -0.1074
  687PSPI   C2B10294  14.895   3.846   6.907  0.1621  0.2169  0.1797
  687PSPI   C3B10295  15.134   3.833   7.223 -0.5399 -0.0026  0.0952
  687PSPI   C4B10296  15.109   3.632   7.660  0.1969  0.2507  0.1114
  688PSPI    C110297  14.178  10.435   5.457 -0.1549 -0.0015 -0.1728
  688PSPI    C210298  14.134  10.453   5.060 -0.1545  0.4472 -0.1582
  688PSPI    C310299  14.471  10.586   5.230 -0.0873  0.1057 -0.0164
  688PSPI   PO410300  14.194  10.151   5.705 -0.1414 -0.3741  0.2647
  688PSPI   GL110301  14.431  10.088   6.036 -0.1399  0.0808 -0.2026
  688PSPI   GL210302  14.360  10.342   6.159 -0.1305  0.0291 -0.1367
  688PSPI   C1A10303  14.604  10.006   6.460 -0.1878  0.0702  0.2231
  688PSPI   C2A10304  14.467   9.977   6.807  0.0014  0.0278 -0.1368
  688PSPI   C3A10305  14.546  10.103   7.179  0.0079  0.1179  0.0055
  688PSPI   C4A10306  14.679  10.033   7.532  0.1176 -0.3839  0.0450
  688PSPI   C1B10307  14.214  10.368   6.555 -0.1252 -0.1010  0.0071
  688PSPI   C2B10308  14.069  10.405   6.935 -0.1325  0.2409 -0.0583
  688PSPI   C3B10309  14.089  10.477   7.315  0.1375  0.4724  0.0627
  688PSPI   C4B10310  13.884  10.523   7.737 -0.2310 -0.1117  0.0727
  689PSPI    C110311  17.548  10.769   5.614  0.0132 -0.0085 -0.0471
  689PSPI    C210312  17.508  10.559   5.276 -0.2414 -0.2771  0.1451
  689PSPI    C310313  17.742  10.423   5.570  0.0444 -0.0035  0.0494
  689PSPI   PO410314  17.596  11.048   5.655 -0.1601  0.1111 -0.2544
  689PSPI   GL110315  17.669  11.126   6.130  0.2315 -0.3834 -0.2172
  689PSPI   GL210316  17.928  11.066   6.053  0.0327  0.0220 -0.1812
  689PSPI   C1A10317  17.633  11.155   6.606 -0.0870 -0.1623 -0.1407
  689PSPI   C2A10318  17.561  10.845   7.012  0.1441 -0.0537  0.2205
  689PSPI   C3A10319  17.856  10.633   7.314 -0.3104 -0.3040 -0.1624
  689PSPI   C4A10320  17.849  10.465   7.752  0.0056 -0.1127 -0.1348
  689PSPI   C1B10321  18.025  11.402   6.423 -0.1152 -0.0983  0.0093
  689PSPI   C2B10322  18.454  11.553   6.693 -0.4027 -0.0642 -0.0592
  689PSPI   C3B10323  18.729  11.427   7.077 -0.1115 -0.1009  0.3773
  689PSPI   C4B10324  18.898  11.251   7.439 -0.0793 -0.2691 -0.0793
  690PSPI    C110325   0.532  17.659   5.628  0.0581  0.0764  0.0801
  690PSPI    C210326   0.302  17.333   5.661  0.0513  0.0556 -0.1596
  690PSPI    C310327   0.169  17.652   5.460  0.0645  0.2015  0.0599
  690PSPI   PO410328   0.678  17.648   5.876 -0.2621  0.1269 -0.1294
  690PSPI   GL110329   0.678  17.219   6.002 -0.1223  0.1214 -0.2911
  690PSPI   GL210330   0.599  16.964   5.808 -0.3533  0.0366 -0.0819
  690PSPI   C1A10331   0.954  17.168   6.413  0.4245  0.1961  0.2479
  690PSPI   C2A10332   0.975  17.174   6.804  0.0551  0.0839 -0.0237
  690PSPI   C3A10333   0.988  17.199   7.137  0.2781 -0.2871  0.2629
  690PSPI   C4A10334   0.808  17.143   7.502 -0.0208 -0.0200 -0.1436
  690PSPI   C1B10335   0.521  16.876   6.286 -0.1258  0.1632  0.2164
  690PSPI   C2B10336   0.528  16.855   6.702 -0.2290  0.3669  0.1052
  690PSPI   C3B10337   0.725  16.602   7.015 -0.1327 -0.4924 -0.1505
  690PSPI   C4B10338   0.833  16.441   7.434 -0.3406 -0.1777 -0.2165
  691PSPI    C110339   9.734  16.179   5.761 -0.0033  0.0251  0.1198
  691PSPI    C210340   9.982  15.895   5.894  0.3240  0.1747 -0.1559
  691PSPI    C310341   9.881  15.908   5.507 -0.3267 -0.0363 -0.0074
  691PSPI   PO410342   9.862  16.376   5.982  0.0364  0.0097 -0.6592
  691PSPI   GL110343  10.037  16.207   6.372  0.0097  0.1537 -0.4260
  691PSPI   GL210344  10.002  15.919   6.412  0.0182 -0.2670  0.2830
  691PSPI   C1A10345  10.486  16.171   6.526 -0.0348 -0.3488 -0.2054
  691PSPI   C2A10346  10.558  16.209   6.922  0.0607 -0.1424  0.0969
  691PSPI   C3A10347  10.643  16.263   7.375  0.2382  0.3264  0.0521
  691PSPI   C4A10348  10.733  16.517   7.798  0.1112  0.1745  0.0915
  691PSPI   C1B10349  10.101  15.976   6.797  0.3818 -0.1154 -0.2007
  691PSPI   C2B10350  10.208  15.989   7.224 -0.2073 -0.1241 -0.0587
  691PSPI   C3B10351  10.213  15.905   7.583  0.1447 -0.1813  0.0608
  691PSPI   C4B10352  10.554  15.945   7.801 -0.1559 -0.0810  0.1487
  692PSPI    C110353   8.047   7.578   5.517 -0.0217 -0.4590  0.2029
  692PSPI    C210354   7.656   7.541   5.441 -0.0090 -0.1261 -0.0516
  692PSPI    C310355   7.839   7.890   5.375  0.3284 -0.2728  0.0877
  692PSPI   PO410356   8.061   7.431   5.704  0.1609  0.3622 -0.4967
  692PSPI   GL110357   8.035   7.490   6.142  0.0099  0.3005  0.0407
  692PSPI   GL210358   8.410   7.465   6.105 -0.0598  0.1595  0.0446
  692PSPI   C1A10359   7.986   7.550   6.494 -0.1998 -0.0555  0.2222
  692PSPI   C2A10360   8.012   7.661   6.813  0.2217  0.0724  0.0336
  692PSPI   C3A10361   7.990   7.667   7.232  0.1960  0.3579 -0.1391
  692PSPI   C4A10362   7.926   7.710   7.675  0.2503 -0.2046  0.0109
  692PSPI   C1B10363   8.480   7.564   6.610  0.1994 -0.0908  0.1450
  692PSPI   C2B10364   8.482   7.396   7.066 -0.0607 -0.0519 -0.0444
  692PSPI   C3B10365   8.394   7.579   7.503 -0.1160  0.3706 -0.2091
  692PSPI   C4B10366   8.345   7.758   7.896  0.1108  0.2010  0.0787
  693PSPI    C110367   7.631   9.494   5.827  0.0916 -0.0652 -0.0767
  693PSPI    C210368   7.339   9.449   5.558  0.1689  0.0715 -0.1842
  693PSPI    C310369   7.254   9.585   5.924  0.0682 -0.0851 -0.1484
  693PSPI   PO410370   7.805   9.202   5.870  0.0504 -0.0437  0.0061
  693PSPI   GL110371   7.716   9.216   6.293 -0.0286 -0.2740  0.1846
  693PSPI   GL210372   7.410   9.254   6.389 -0.0174  0.0571 -0.1746
  693PSPI   C1A10373   7.734   9.110   6.717 -0.0753 -0.2607  0.2512
  693PSPI   C2A10374   7.535   9.132   7.059  0.0912  0.0665 -0.4689
  693PSPI   C3A10375   7.646   9.004   7.454 -0.5360  0.0350 -0.0855
  693PSPI   C4A10376   7.648   8.926   7.977  0.0299  0.1400 -0.0438
  693PSPI   C1B10377   7.100   9.205   6.760  0.1851  0.0348  0.1425
  693PSPI   C2B10378   7.050   9.269   7.178  0.2387 -0.1739  0.0643
  693PSPI   C3B10379   7.222   9.365   7.461 -0.1927 -0.1379 -0.0628
  693PSPI   C4B10380   7.290   9.252   7.933  0.3437 -0.2014  0.0965
  694POPI    C110381  15.887  10.329   5.413 -0.0512  0.0067  0.1193
  694POPI    C210382  15.823  10.054   5.129  0.1379  0.1151 -0.0309
  694POPI    C310383  15.806  10.443   5.038  0.2165  0.1506  0.1027
  694POPI   PO410384  15.788  10.230   5.646  0.3327  0.1090  0.1396
  694POPI   GL110385  15.485  10.212   6.035 -0.2404 -0.0386 -0.0497
  694POPI   GL210386  15.360  10.471   6.080  0.1932 -0.3366 -0.0008
  694POPI   C1A10387  15.573  10.178   6.505  0.0485 -0.1484 -0.2281
  694POPI   D2A10388  15.620  10.249   6.885 -0.2302  0.1006  0.2048
  694POPI   C3A10389  15.427  10.065   7.236 -0.0076 -0.1775 -0.3383
  694POPI   C4A10390  15.281  10.332   7.506  0.1723 -0.1391  0.1746
  694POPI   C1B10391  15.334  10.590   6.556  0.2209 -0.1867 -0.3417
  694POPI   C2B10392  15.339  10.914   6.868 -0.1468 -0.0233 -0.1533
  694POPI   C3B10393  15.411  11.139   7.282  0.1686 -0.0494  0.1556
  694POPI   C4B10394  15.670  10.975   7.586  0.1137 -0.0125  0.0578
  695POPI    C110395  11.092  17.557   5.337  0.1511  0.0855 -0.0460
  695POPI    C210396  10.951  17.899   5.186  0.0145  0.1156  0.1459
  695POPI    C310397  11.293  17.746   5.048 -0.0688  0.1804 -0.1391
  695POPI   PO410398  11.204  17.571   5.586  0.2400 -0.2005 -0.1552
  695POPI   GL110399  11.109  17.363   5.966 -0.4247  0.2699  0.0960
  695POPI   GL210400  11.263  17.040   6.030 -0.1363 -0.0845 -0.1496
  695POPI   C1A10401  10.909  17.304   6.389 -0.2595  0.0593  0.0873
  695POPI   D2A10402  10.980  17.093   6.635 -0.1997 -0.0311 -0.0380
  695POPI   C3A10403  11.001  17.033   6.994  0.1369  0.0226  0.1335
  695POPI   C4A10404  10.903  16.911   7.411 -0.1148  0.1431 -0.2394
  695POPI   C1B10405  11.455  17.095   6.419  0.0054 -0.1429 -0.0697
  695POPI   C2B10406  11.530  16.958   6.828 -0.3538 -0.4003  0.1763
  695POPI   C3B10407  11.392  16.894   7.277  0.1093 -0.2246 -0.0137
  695POPI   C4B10408  11.374  16.756   7.701 -0.0536 -0.1185  0.3993
  696POPI    C110409   1.627   7.688   5.322  0.0422 -0.0188  0.0046
  696POPI    C210410   1.740   7.398   5.070 -0.0473 -0.1722  0.1390
  696POPI    C310411   1.379   7.567   5.032 -0.0891 -0.2452  0.2072
  696POPI   PO410412   1.673   7.622   5.526 -0.0422 -0.0270 -0.0199
  696POPI   GL110413   1.596   7.404   5.896 -0.0596  0.0767  0.3121
  696POPI   GL210414   1.938   7.305   5.910 -0.1064 -0.2394  0.1195
  696POPI   C1A10415   1.522   7.466   6.368 -0.1050 -0.0941  0.1223
  696POPI   D2A10416   1.135   7.636   6.660  0.3074  0.0674 -0.0135
  696POPI   C3A10417   0.852   7.636   7.036 -0.3040  0.1570  0.4269
  696POPI   C4A10418   0.998   7.824   7.460 -0.5336  0.0712  0.1499
  696POPI   C1B10419   2.026   7.228   6.326  0.1022  0.3439  0.0470
  696POPI   C2B10420   2.324   7.389   6.546 -0.0095  0.2117 -0.0979
  696POPI   C3B10421   2.316   7.533   6.909  0.1647  0.0501  0.1845
  696POPI   C4B10422   2.276   7.596   7.310  0.1886  0.0002  0.2621
  697POPI    C110423   5.049   9.371   5.503  0.1695 -0.1448  0.0333
  697POPI    C210424   5.101   9.578   5.164  0.1691 -0.0233  0.1070
  697POPI    C310425   4.735   9.540   5.321  0.1944  0.0759  0.1915
  697POPI   PO410426   5.166   9.473   5.676 -0.3103 -0.0598 -0.2455
  697POPI   GL110427   5.151   9.620   6.008 -0.1619 -0.1127  0.1104
  697POPI   GL210428   5.327   9.361   6.158  0.2475 -0.1428 -0.0042
  697POPI   C1A10429   4.863   9.656   6.249  0.2043  0.1174 -0.2625
  697POPI   D2A10430   4.710   9.424   6.647 -0.2626  0.0303  0.1336
  697POPI   C3A10431   4.328   9.282   6.736 -0.0115 -0.2493  0.1063
  697POPI   C4A10432   3.978   9.446   6.856  0.3464  0.1429  0.1735
  697POPI   C1B10433   5.177   9.278   6.565 -0.0519  0.1564 -0.1658
  697POPI   C2B10434   5.069   9.197   7.021  0.1512  0.1461 -0.1547
  697POPI   C3B10435   5.022   9.297   7.478  0.0354  0.0312  0.4232
  697POPI   C4B10436   4.924   9.349   7.823 -0.2521  0.1365  0.2577
  698POPI    C110437   8.854   2.530   5.471  0.2929 -0.1979  0.1255
  698POPI    C210438   8.630   2.224   5.598 -0.0001  0.0298  0.1685
  698POPI    C310439   8.536   2.413   5.258  0.2073  0.0442  0.1175
  698POPI   PO410440   9.019   2.502   5.767  0.2097 -0.1275  0.0438
  698POPI   GL110441   8.963   2.191   6.007 -0.1538 -0.0430  0.2179
  698POPI   GL210442   8.700   2.341   6.121  0.0426  0.2170 -0.2337
  698POPI   C1A10443   9.055   2.018   6.429 -0.2467 -0.2107  0.3294
  698POPI   D2A10444   8.946   1.871   6.822 -0.2036 -0.2502  0.0467
  698POPI   C3A10445   8.954   1.456   7.048 -0.0094 -0.2339 -0.1121
  698POPI   C4A10446   9.030   1.077   7.060 -0.0232  0.2337  0.0858
  698POPI   C1B10447   8.775   2.413   6.503  0.1506  0.0066 -0.0063
  698POPI   C2B10448   8.766   2.316   6.920  0.0004  0.0271  0.1583
  698POPI   C3B10449   8.928   2.051   7.241  0.0198  0.0583 -0.2678
  698POPI   C4B10450   9.167   1.625   7.551  0.1443  0.0887  0.0581
  699POPI    C110451   9.866   5.160   5.121 -0.1072  0.1494 -0.0869
  699POPI    C210452   9.944   5.544   5.041 -0.1241  0.1676 -0.0170
  699POPI    C310453   9.894   5.283   4.742 -0.0170  0.2004 -0.0638
  699POPI   PO410454  10.065   5.007   5.317 -0.0231  0.1335 -0.1299
  699POPI   GL110455  10.004   4.951   5.799 -0.0374  0.1189  0.0309
  699POPI   GL210456   9.708   4.893   5.759  0.0588  0.0528  0.0662
  699POPI   C1A10457   9.963   5.243   6.117 -0.2850 -0.0910 -0.1472
  699POPI   D2A10458  10.136   5.207   6.477  0.1577  0.1850 -0.1251
  699POPI   C3A10459   9.968   4.799   6.403  0.0154 -0.1222 -0.1773
  699POPI   C4A10460   9.661   4.543   6.572  0.1476  0.4387  0.0957
  699POPI   C1B10461   9.464   4.719   6.004  0.0580  0.2471  0.1518
  699POPI   C2B10462   9.227   4.755   6.398  0.0176 -0.0137 -0.3016
  699POPI   C3B10463   9.106   4.800   6.766 -0.1159 -0.1182  0.1089
  699POPI   C4B10464   8.958   4.790   7.115 -0.3863  0.4132 -0.1094
  700POPI    C110465  11.141   4.273   5.238  0.0495  0.1849  0.0916
  700POPI    C210466  11.042   4.631   5.387  0.0951  0.2392 -0.0079
  700POPI    C310467  10.969   4.547   5.003  0.0787  0.1393  0.0168
  700POPI   PO410468  11.275   4.154   5.370 -0.0886  0.1941  0.0311
  700POPI   GL110469  11.289   3.973   5.800 -0.1755 -0.0635  0.5736
  700POPI   GL210470  11.117   4.332   5.818 -0.0125  0.2097  0.0056
  700POPI   C1A10471  11.341   4.049   6.263 -0.1533  0.0927 -0.1500
  700POPI   D2A10472  11.298   4.451   6.516  0.0365  0.0501 -0.1580
  700POPI   C3A10473  11.344   4.555   6.881  0.2770  0.0818  0.1796
  700POPI   C4A10474  11.134   4.407   7.208 -0.1343  0.0015 -0.0360
  700POPI   C1B10475  10.817   4.211   6.176  0.2306  0.3679  0.1156
  700POPI   C2B10476  10.787   4.449   6.624 -0.1118 -0.0179 -0.0378
  700POPI   C3B10477  10.612   4.572   6.965 -0.0995 -0.0523 -0.0116
  700POPI   C4B10478  10.772   4.711   7.346  0.0393  0.1312  0.3001
  701POPI    C110479   3.444   2.258   5.731  0.3057 -0.0910 -0.1208
  701POPI    C210480   3.531   2.559   5.979 -0.1224 -0.0863  0.0313
  701POPI    C310481   3.473   2.631   5.590 -0.1506  0.0172  0.0542
  701POPI   PO410482   3.204   2.173   6.016  0.0073  0.1193 -0.2148
  701POPI   GL110483   3.195   2.502   6.338  0.2478  0.0034  0.0300
  701POPI   GL210484   2.893   2.512   6.222  0.0735  0.1146 -0.0034
  701POPI   C1A10485   3.001   2.594   6.770  0.2252 -0.1832 -0.0344
  701POPI   D2A10486   2.892   2.404   7.041 -0.0105 -0.3861 -0.0286
  701POPI   C3A10487   2.681   2.632   7.360  0.1566  0.1300 -0.2087
  701POPI   C4A10488   2.823   2.892   7.691  0.0268  0.0243  0.1590
  701POPI   C1B10489   2.732   2.208   6.478 -0.0680 -0.0711  0.0404
  701POPI   C2B10490   2.528   1.980   6.839 -0.1089 -0.0209 -0.0230
  701POPI   C3B10491   2.328   1.912   7.259  0.0172 -0.1854  0.0169
  701POPI   C4B10492   1.911   1.890   7.263  0.1101 -0.1823 -0.0453
  702POPI    C110493  16.417   4.701   5.524  0.0284  0.1940  0.2451
  702POPI    C210494  16.136   4.908   5.327 -0.0428  0.1854  0.3370
  702POPI    C310495  16.520   5.018   5.302 -0.0499  0.1778  0.1852
  702POPI   PO410496  16.268   4.579   5.707  0.1241 -0.2819 -0.0400
  702POPI   GL110497  16.050   4.545   6.170  0.3169  0.3844 -0.2984
  702POPI   GL210498  15.656   4.547   6.280  0.2003  0.0568  0.1038
  702POPI   C1A10499  16.366   4.388   6.551 -0.0666 -0.1874  0.0314
  702POPI   D2A10500  16.526   4.219   6.875 -0.3947 -0.0246  0.1765
  702POPI   C3A10501  16.393   4.404   7.230  0.0856  0.0745 -0.0978
  702POPI   C4A10502  16.352   4.348   7.650  0.4371 -0.1744  0.0024
  702POPI   C1B10503  15.573   4.342   6.663 -0.0399 -0.1413 -0.2526
  702POPI   C2B10504  15.480   4.471   7.074  0.1161 -0.0074 -0.0421
  702POPI   C3B10505  15.350   4.636   7.403  0.5925  0.0843 -0.2106
  702POPI   C4B10506  14.979   4.771   7.579  0.0438  0.2562 -0.0612
  703POPI    C110507  13.890  11.615   5.612  0.0056 -0.2783  0.1172
  703POPI    C210508  13.892  11.229   5.508  0.0265 -0.2631  0.0610
  703POPI    C310509  13.770  11.506   5.246  0.0619 -0.2265  0.0831
  703POPI   PO410510  14.067  11.621   5.777 -0.0799  0.1871 -0.3376
  703POPI   GL110511  13.937  11.831   6.180  0.0662 -0.1786  0.1038
  703POPI   GL210512  13.990  11.554   6.389 -0.1733  0.2688  0.0829
  703POPI   C1A10513  13.869  11.974   6.602  0.1214  0.3382 -0.0500
  703POPI   D2A10514  13.777  11.853   7.036  0.1341 -0.2012 -0.1452
  703POPI   C3A10515  13.730  11.402   7.184  0.0044 -0.3457 -0.0888
  703POPI   C4A10516  13.824  11.003   7.446 -0.0834 -0.3482 -0.0894
  703POPI   C1B10517  14.339  11.801   6.582  0.1186  0.0576 -0.0330
  703POPI   C2B10518  14.735  11.881   6.797  0.3621 -0.2534  0.1717
  703POPI   C3B10519  14.889  11.892   7.182  0.1693  0.1318  0.4860
  703POPI   C4B10520  14.828  11.727   7.663 -0.1391  0.0196 -0.2053
  704POPI    C110521   3.675  11.178   5.487  0.0827  0.1109  0.0506
  704POPI    C210522   3.567  10.871   5.720 -0.1434  0.1494 -0.0014
  704POPI    C310523   3.528  10.844   5.323 -0.2456  0.2772 -0.0006
  704POPI   PO410524   3.723  11.399   5.703 -0.2881 -0.1727  0.0623
  704POPI   GL110525   3.848  11.686   6.060 -0.2054  0.0343  0.1345
  704POPI   GL210526   3.515  11.987   6.069  0.1222 -0.2026  0.0004
  704POPI   C1A10527   3.774  11.867   6.437 -0.0690 -0.0062  0.2711
  704POPI   D2A10528   3.791  11.926   6.817 -0.0059 -0.1978 -0.0195
  704POPI   C3A10529   3.610  12.100   7.163  0.0900  0.0176  0.1037
  704POPI   C4A10530   3.527  12.127   7.529 -0.3004  0.1673 -0.3909
  704POPI   C1B10531   3.391  12.264   6.444  0.0341  0.3027 -0.1692
  704POPI   C2B10532   3.274  12.192   6.818  0.0859 -0.0540 -0.1359
  704POPI   C3B10533   3.081  12.318   7.202  0.1312  0.1329 -0.1646
  704POPI   C4B10534   3.108  12.418   7.611 -0.2480 -0.1682 -0.0340
  705POPI    C110535  14.652  14.438   5.259 -0.0801  0.0366 -0.1231
  705POPI    C210536  14.589  14.043   5.273 -0.4916  0.1007 -0.0543
  705POPI    C310537  14.405  14.266   4.996 -0.1092  0.2213 -0.2181
  705POPI   PO410538  14.557  14.577   5.560  0.0925  0.0209  0.0296
  705POPI   GL110539  14.501  14.482   5.933 -0.3634 -0.1886 -0.0084
  705POPI   GL210540  14.524  14.742   6.164 -0.0700 -0.1778  0.1543
  705POPI   C1A10541  14.216  14.331   6.161 -0.2463 -0.0508 -0.0871
  705POPI   D2A10542  14.022  14.247   6.580 -0.3224 -0.1025  0.2315
  705POPI   C3A10543  14.290  14.001   6.948  0.0310 -0.0539 -0.1441
  705POPI   C4A10544  14.305  13.888   7.288  0.0484  0.2085 -0.0212
  705POPI   C1B10545  14.492  14.958   6.539  0.3047 -0.2217  0.0378
  705POPI   C2B10546  14.481  14.982   7.036 -0.1070  0.1426  0.2024
  705POPI   C3B10547  14.718  15.068   7.501  0.1300  0.3171 -0.0406
  705POPI   C4B10548  14.684  15.406   7.776 -0.0809  0.0321 -0.1514
  706POPI    C110549   5.546   9.796   5.538  0.0407  0.2215  0.1585
  706POPI    C210550   5.584   9.465   5.317  0.1079  0.2415  0.1398
  706POPI    C310551   5.586   9.824   5.141  0.0913  0.2544  0.1657
  706POPI   PO410552   5.636   9.744   5.748  0.0782  0.4818  0.0587
  706POPI   GL110553   5.632   9.830   6.104  0.1187  0.0204  0.0559
  706POPI   GL210554   5.736  10.009   6.258  0.0952 -0.2380 -0.1375
  706POPI   C1A10555   5.527   9.587   6.531  0.1317  0.0170  0.0056
  706POPI   D2A10556   5.560   9.599   6.952 -0.2197  0.1737  0.0457
  706POPI   C3A10557   5.402   9.722   7.372  0.1623  0.2576 -0.0705
  706POPI   C4A10558   5.347   9.728   7.763 -0.0118  0.0671 -0.2881
  706POPI   C1B10559   5.576  10.054   6.731  0.1789 -0.2815  0.1004
  706POPI   C2B10560   5.643  10.088   7.140  0.0153 -0.0258  0.1139
  706POPI   C3B10561   5.682  10.074   7.654  0.4660  0.4971  0.0669
  706POPI   C4B10562   5.722  10.168   8.028  0.1014  0.0366  0.0684
  707POPI    C110563  11.725  10.941   5.648  0.0111 -0.2416  0.0944
  707POPI    C210564  11.965  11.204   5.466 -0.0791 -0.1039  0.1730
  707POPI    C310565  11.578  11.181   5.364 -0.1055 -0.1008  0.2714
  707POPI   PO410566  11.901  10.743   5.826  0.0419  0.1293 -0.1720
  707POPI   GL110567  11.974  10.786   6.196 -0.2021 -0.2701 -0.1567
  707POPI   GL210568  12.271  10.539   6.188 -0.0670  0.2378 -0.2185
  707POPI   C1A10569  12.150  10.712   6.667  0.1402 -0.0933 -0.1498
  707POPI   D2A10570  12.315  10.731   7.083  0.0746 -0.2023  0.1724
  707POPI   C3A10571  12.469  10.617   7.487 -0.3534 -0.1389 -0.3135
  707POPI   C4A10572  12.726  10.853   7.883 -0.4909  0.0714 -0.0757
  707POPI   C1B10573  12.516  10.937   6.313  0.1169 -0.3753 -0.2859
  707POPI   C2B10574  13.001  10.986   6.478 -0.0104 -0.1438 -0.0958
  707POPI   C3B10575  13.245  10.986   6.800  0.0396 -0.1438  0.0721
  707POPI   C4B10576  13.321  11.059   7.287 -0.0726 -0.2805 -0.0234
  708POPI    C110577   8.302  15.395   5.887  0.0621 -0.0189  0.0662
  708POPI    C210578   8.104  15.473   5.548 -0.0379 -0.2603  0.0671
  708POPI    C310579   8.488  15.362   5.535 -0.0632 -0.3448  0.0267
  708POPI   PO410580   8.135  15.283   5.982 -0.2767  0.1364  0.2489
  708POPI   GL110581   7.804  15.185   6.149 -0.1756  0.3107  0.0523
  708POPI   GL210582   8.061  14.934   6.281  0.2987  0.0057 -0.1051
  708POPI   C1A10583   7.861  15.246   6.578  0.2508  0.2753  0.1767
  708POPI   D2A10584   8.004  15.385   7.004  0.1754  0.0882  0.0001
  708POPI   C3A10585   8.140  15.194   7.338  0.1128  0.2501 -0.3827
  708POPI   C4A10586   8.161  15.301   7.777 -0.1114  0.0468 -0.1184
  708POPI   C1B10587   8.187  14.825   6.706  0.0490  0.0398 -0.3138
  708POPI   C2B10588   8.280  14.741   7.142 -0.2458 -0.1408 -0.0300
  708POPI   C3B10589   8.408  14.802   7.628 -0.0763 -0.2764  0.2209
  708POPI   C4B10590   8.616  14.747   8.048  0.3830  0.2411 -0.1397
  709POPI    C110591  18.179   6.415   5.228  0.0017  0.0260  0.0298
  709POPI    C210592  17.945   6.113   5.111 -0.0443 -0.0147  0.2234
  709POPI    C310593  17.800   6.486   5.124 -0.1153 -0.0475  0.3940
  709POPI   PO410594  18.275   6.325   5.430 -0.0254  0.3433 -0.0138
  709POPI   GL110595  18.161   6.198   5.876 -0.3262 -0.0003 -0.1087
  709POPI   GL210596  18.000   6.489   5.917 -0.1499 -0.0319 -0.0276
  709POPI   C1A10597  18.089   6.071   6.287 -0.1737  0.1849  0.4134
  709POPI   D2A10598  18.428   5.812   6.518  0.1915  0.1186  0.1090
  709POPI   C3A10599  18.301   5.463   6.725 -0.3644 -0.0094  0.2613
  709POPI   C4A10600  18.083   5.402   7.137  0.0980  0.0775 -0.2959
  709POPI   C1B10601  18.283   6.541   6.227  0.0097 -0.1102 -0.0966
  709POPI   C2B10602  18.606   6.554   6.503 -0.0681  0.0498 -0.4085
  709POPI   C3B10603  18.766   6.754   6.934 -0.0867  0.0763 -0.0898
  709POPI   C4B10604  18.916   6.914   7.226 -0.1629 -0.0550 -0.1165
  710POPI    C110605  16.748   2.061   5.551  0.1026  0.0016  0.3265
  710POPI    C210606  16.513   2.064   5.876 -0.1054  0.0234  0.1779
  710POPI    C310607  16.399   1.865   5.548 -0.0135  0.2067  0.0328
  710POPI   PO410608  16.886   2.317   5.550  0.0271  0.1133  0.2755
  710POPI   GL110609  16.836   2.467   5.959  0.0873  0.2133 -0.0410
  710POPI   GL210610  17.110   2.152   6.030 -0.0060  0.0365 -0.1113
  710POPI   C1A10611  16.507   2.416   6.202 -0.0161 -0.2764 -0.2113
  710POPI   D2A10612  16.113   2.580   6.308  0.0035  0.2042 -0.1579
  710POPI   C3A10613  15.942   2.650   6.711 -0.1258  0.0914  0.0747
  710POPI   C4A10614  15.761   2.744   7.068 -0.2704  0.1114 -0.0838
  710POPI   C1B10615  17.060   2.292   6.425  0.1991 -0.0547 -0.0080
  710POPI   C2B10616  17.052   2.352   6.847  0.0315 -0.3640  0.0485
  710POPI   C3B10617  17.096   2.441   7.274 -0.0840 -0.0091 -0.2591
  710POPI   C4B10618  16.927   2.264   7.579 -0.2732 -0.0110 -0.0734
  711POPI    C110619   5.861   9.114   5.112  0.0480  0.0086  0.1259
  711POPI    C210620   6.074   8.804   4.976 -0.0172  0.1034 -0.2029
  711POPI    C310621   5.707   8.872   4.834 -0.1360  0.1388  0.1126
  711POPI   PO410622   5.940   9.053   5.377 -0.1350 -0.0337 -0.0315
  711POPI   GL110623   6.020   8.931   5.818  0.2899  0.0195  0.2269
  711POPI   GL210624   5.725   8.792   5.973 -0.0880 -0.0584  0.3110
  711POPI   C1A10625   6.163   8.877   6.235  0.1475 -0.4555 -0.0088
  711POPI   D2A10626   6.117   8.929   6.666 -0.1412  0.0351 -0.2044
  711POPI   C3A10627   6.032   8.877   7.089 -0.0402  0.0429  0.1523
  711POPI   C4A10628   5.904   8.831   7.527  0.0716  0.1824  0.3110
  711POPI   C1B10629   5.674   8.998   6.425  0.1646  0.1290 -0.0278
  711POPI   C2B10630   5.630   9.118   6.871 -0.2432 -0.1319 -0.0287
  711POPI   C3B10631   5.519   9.202   7.303 -0.1022  0.0301  0.0625
  711POPI   C4B10632   5.746   9.422   7.598  0.3528  0.1955 -0.0989
  712POPI    C110633  11.332  13.639   5.787  0.0465 -0.1269 -0.0417
  712POPI    C210634  11.469  13.319   5.590  0.1307 -0.0701 -0.0758
  712POPI    C310635  11.138  13.505   5.465  0.2193  0.0041 -0.2028
  712POPI   PO410636  11.576  13.827   5.855  0.0259 -0.0074  0.4080
  712POPI   GL110637  11.644  14.144   6.122 -0.2149  0.4153  0.0169
  712POPI   GL210638  11.767  13.898   6.320  0.0103  0.1248  0.1631
  712POPI   C1A10639  11.472  14.142   6.574  0.1554 -0.0144 -0.1241
  712POPI   D2A10640  11.642  14.139   7.004  0.2036 -0.1728 -0.1026
  712POPI   C3A10641  11.486  14.244   7.337 -0.2124 -0.1338  0.0536
  712POPI   C4A10642  11.396  14.549   7.633  0.1012  0.3981 -0.1545
  712POPI   C1B10643  11.964  13.745   6.678 -0.2363  0.2517 -0.1915
  712POPI   C2B10644  12.043  13.843   7.120  0.2236  0.1620 -0.2036
  712POPI   C3B10645  12.137  13.724   7.618 -0.1070 -0.1196  0.0024
  712POPI   C4B10646  12.409  13.855   7.960 -0.1606 -0.1357 -0.0162
  713POPI    C110647   8.480  14.307   5.781  0.0429 -0.1193  0.1837
  713POPI    C210648   8.509  13.960   5.585 -0.0568  0.0045 -0.0536
  713POPI    C310649   8.246  14.237   5.465  0.0096  0.1557  0.1447
  713POPI   PO410650   8.426  14.303   6.120 -0.2462  0.0340  0.0669
  713POPI   GL110651   8.130  14.404   6.453  0.0040 -0.1631 -0.0661
  713POPI   GL210652   7.946  14.097   6.318 -0.3158 -0.4643  0.0802
  713POPI   C1A10653   8.279  14.328   6.870  0.0491  0.1628 -0.1784
  713POPI   D2A10654   8.273  14.240   7.328  0.2281  0.1665 -0.0560
  713POPI   C3A10655   8.264  13.884   7.543 -0.0020 -0.2350  0.0125
  713POPI   C4A10656   8.123  13.666   7.967  0.0953  0.1547 -0.0787
  713POPI   C1B10657   7.800  14.312   6.807  0.1400 -0.0896 -0.1490
  713POPI   C2B10658   7.838  14.505   7.169  0.0067 -0.1506 -0.0909
  713POPI   C3B10659   7.925  14.548   7.557 -0.1012 -0.1874  0.0809
  713POPI   C4B10660   8.277  14.331   7.862  0.2943  0.1006  0.0389
  714POPI    C110661  11.658  18.096   5.650  0.2471 -0.1649 -0.1336
  714POPI    C210662  11.289  18.092   5.496  0.0342  0.0248  0.3518
  714POPI    C310663  11.519  18.416   5.455  0.0576 -0.0033  0.2572
  714POPI   PO410664  11.632  17.890   5.797  0.0553 -0.0099  0.0006
  714POPI   GL110665  11.692  17.822   6.251  0.0735  0.1863 -0.0025
  714POPI   GL210666  11.432  17.570   6.291 -0.2387 -0.0622 -0.0427
  714POPI   C1A10667  11.391  17.962   6.599 -0.0583  0.3820  0.2476
  714POPI   D2A10668  11.481  18.148   6.982  0.2356  0.4085  0.1056
  714POPI   C3A10669  11.349  18.021   7.456  0.1542 -0.0924  0.0474
  714POPI   C4A10670  11.501  17.788   7.804  0.3956  0.0685 -0.1308
  714POPI   C1B10671  11.278  17.493   6.788 -0.0231  0.0781 -0.0242
  714POPI   C2B10672  11.353  17.391   7.256  0.0420  0.0286  0.3215
  714POPI   C3B10673  11.620  17.332   7.612  0.0580  0.2935 -0.0109
  714POPI   C4B10674  11.688  17.393   8.145  0.3838  0.0573  0.1275
  715POPI    C110675   6.560  17.455   5.616  0.1111  0.0845 -0.1162
  715POPI    C210676   6.299  17.658   5.390  0.0601  0.1203 -0.0254
  715POPI    C310677   6.686  17.648   5.289  0.0082 -0.0151 -0.2156
  715POPI   PO410678   6.540  17.601   5.939  0.2481  0.0332 -0.1605
  715POPI   GL110679   6.716  17.497   6.265 -0.1170  0.1559  0.0078
  715POPI   GL210680   6.903  17.659   6.514 -0.3751 -0.2324  0.0062
  715POPI   C1A10681   6.559  17.328   6.643 -0.0464  0.0633 -0.2059
  715POPI   D2A10682   6.551  17.401   7.050  0.1074  0.3187 -0.0493
  715POPI   C3A10683   6.987  17.614   7.285  0.1092 -0.0429  0.1151
  715POPI   C4A10684   7.396  17.660   7.428 -0.0795  0.2288 -0.1667
  715POPI   C1B10685   7.039  17.382   6.780  0.2978 -0.1013  0.2203
  715POPI   C2B10686   7.396  17.410   7.022 -0.1859  0.0105  0.3806
  715POPI   C3B10687   7.771  17.651   7.106  0.1047  0.2738 -0.1399
  715POPI   C4B10688   7.974  17.598   7.504  0.1753 -0.0041 -0.0590
  716POPI    C110689   6.928  14.192   5.608 -0.1555  0.0325 -0.0339
  716POPI    C210690   6.677  14.030   5.342 -0.0399 -0.1102 -0.0575
  716POPI    C310691   7.071  13.964   5.311  0.0053  0.1419 -0.0420
  716POPI   PO410692   6.923  14.140   5.927  0.2788  0.0274 -0.1863
  716POPI   GL110693   7.132  13.913   6.268  0.0775  0.1025 -0.3585
  716POPI   GL210694   7.437  14.062   6.157  0.1346 -0.0759 -0.2877
  716POPI   C1A10695   7.021  13.908   6.730  0.0119 -0.0641  0.0483
  716POPI   D2A10696   6.878  13.989   7.198 -0.0708  0.0221  0.0899
  716POPI   C3A10697   6.807  14.182   7.583  0.0679 -0.0420  0.0155
  716POPI   C4A10698   6.915  14.537   7.912 -0.0949 -0.0196 -0.1123
  716POPI   C1B10699   7.363  14.276   6.589  0.2216 -0.3256 -0.0387
  716POPI   C2B10700   7.325  14.280   7.053 -0.0047 -0.1622 -0.0228
  716POPI   C3B10701   7.462  14.545   7.441 -0.1257  0.1620 -0.1129
  716POPI   C4B10702   7.423  14.474   7.859 -0.0589  0.4257  0.1132
  717POPI    C110703  13.462  15.832   5.620  0.1197 -0.0466 -0.3242
  717POPI    C210704  13.575  15.448   5.599  0.1284 -0.0655  0.0139
  717POPI    C310705  13.186  15.542   5.606  0.1250 -0.0887  0.2133
  717POPI   PO410706  13.714  15.937   5.777 -0.1430 -0.0945  0.0230
  717POPI   GL110707  13.966  15.821   6.217 -0.0556 -0.4096 -0.1801
  717POPI   GL210708  13.653  15.971   6.267  0.0782 -0.0363 -0.3193
  717POPI   C1A10709  14.181  15.758   6.643 -0.1264 -0.0744 -0.2410
  717POPI   D2A10710  14.381  15.398   6.812  0.0961  0.1290 -0.0025
  717POPI   C3A10711  14.326  15.419   7.272  0.0388 -0.0224 -0.1662
  717POPI   C4A10712  14.209  15.244   7.569  0.1490  0.0614 -0.1308
  717POPI   C1B10713  13.711  15.959   6.714 -0.2323  0.1184  0.2219
  717POPI   C2B10714  13.780  15.879   7.115 -0.0527  0.2824 -0.2225
  717POPI   C3B10715  14.038  15.871   7.407  0.1935  0.1486 -0.1129
  717POPI   C4B10716  14.351  15.852   7.761  0.0042  0.0536  0.1230
  718POPI    C110717  17.372   8.454   5.562 -0.3082  0.0669 -0.2408
  718POPI    C210718  17.693   8.317   5.365 -0.0288  0.1630  0.1348
  718POPI    C310719  17.398   8.066   5.467  0.0212  0.0341 -0.0343
  718POPI   PO410720  17.500   8.601   5.917  0.1762 -0.2491  0.1649
  718POPI   GL110721  17.864   8.764   6.113 -0.0358 -0.3343  0.0354
  718POPI   GL210722  18.067   8.687   6.168 -0.2442  0.1072 -0.0068
  718POPI   C1A10723  17.646   9.078   6.278  0.1413  0.0832  0.0693
  718POPI   D2A10724  17.686   9.345   6.664  0.0403 -0.3347  0.2991
  718POPI   C3A10725  18.071   9.483   6.687 -0.1293  0.0551  0.1214
  718POPI   C4A10726  18.502   9.643   6.646 -0.0614 -0.3552  0.0001
  718POPI   C1B10727  18.068   8.831   6.618 -0.1791  0.0133  0.1759
  718POPI   C2B10728  17.966   9.058   6.951  0.2536  0.2123 -0.0535
  718POPI   C3B10729  17.833   9.336   7.238  0.1578 -0.2800  0.1321
  718POPI   C4B10730  17.749   9.580   7.540 -0.1467 -0.0206 -0.0650
  719POPI    C110731  13.749   9.920   5.573 -0.1565  0.1008 -0.3126
  719POPI    C210732  14.070   9.696   5.494  0.0729  0.2739  0.0981
  719POPI    C310733  13.988  10.015   5.267  0.0439  0.0836 -0.1630
  719POPI   PO410734  13.747   9.964   5.833 -0.0278  0.2102  0.0531
  719POPI   GL110735  14.059   9.745   6.149 -0.0064  0.0222  0.3344
  719POPI   GL210736  13.997   9.495   6.016  0.2696 -0.0933  0.4293
  719POPI   C1A10737  14.050   9.825   6.557  0.2769  0.1100 -0.0372
  719POPI   D2A10738  14.069   9.789   7.034 -0.2196  0.0262  0.1676
  719POPI   C3A10739  13.926   9.661   7.403  0.4083 -0.4075  0.1874
  719POPI   C4A10740  13.690   9.854   7.746  0.2461  0.2644  0.0457
  719POPI   C1B10741  14.005   9.324   6.465  0.0574  0.2440  0.3771
  719POPI   C2B10742  13.853   9.285   6.937 -0.1820 -0.0131 -0.2299
  719POPI   C3B10743  13.973   9.180   7.382  0.2900 -0.1729 -0.0998
  719POPI   C4B10744  14.065   8.888   7.763 -0.2457 -0.1339 -0.0125
  720POPI    C110745  10.536   7.061   5.649 -0.0309  0.0241 -0.0851
  720POPI    C210746  10.275   7.189   5.375 -0.0505 -0.1138 -0.1319
  720POPI    C310747  10.422   6.818   5.352 -0.0430 -0.1219  0.0379
  720POPI   PO410748  10.418   7.227   5.916 -0.1021 -0.0337 -0.0586
  720POPI   GL110749  10.255   7.150   6.278 -0.0456 -0.0929 -0.1571
  720POPI   GL210750  10.015   7.256   6.308  0.2331 -0.1326  0.4743
  720POPI   C1A10751  10.516   6.824   6.426 -0.1208 -0.0203 -0.4675
  720POPI   D2A10752  10.841   6.816   6.744 -0.1839 -0.1033  0.0985
  720POPI   C3A10753  10.903   7.033   7.052  0.1078 -0.0125 -0.0195
  720POPI   C4A10754  10.767   7.296   7.440 -0.2448 -0.0354  0.1606
  720POPI   C1B10755   9.792   7.346   6.624  0.1296  0.1890 -0.2234
  720POPI   C2B10756   9.802   7.526   7.029  0.0695 -0.0241 -0.2753
  720POPI   C3B10757   9.591   7.784   7.221  0.0014 -0.1867  0.0279
  720POPI   C4B10758   9.382   7.952   7.616  0.1073 -0.0643 -0.2652
  721POPI    C110759  16.632   8.731   5.385 -0.1776  0.1839 -0.2681
  721POPI    C210760  17.020   8.783   5.305 -0.1662  0.2719 -0.1579
  721POPI    C310761  16.752   8.793   5.008 -0.0358 -0.2852 -0.3057
  721POPI   PO410762  16.586   8.898   5.680  0.0149  0.4214 -0.0941
  721POPI   GL110763  16.659   9.356   5.967 -0.1239  0.1718  0.1333
  721POPI   GL210764  16.557   9.653   5.941  0.0417 -0.1458 -0.0787
  721POPI   C1A10765  16.846   9.513   6.326 -0.0357 -0.1152  0.1699
  721POPI   D2A10766  16.786   9.560   6.698 -0.1453 -0.3551 -0.1006
  721POPI   C3A10767  17.044   9.574   6.895 -0.1148  0.0647  0.1386
  721POPI   C4A10768  17.344   9.465   7.184 -0.0938 -0.3985 -0.1066
  721POPI   C1B10769  16.366   9.721   6.355  0.0460 -0.1240  0.0423
  721POPI   C2B10770  16.284   9.704   6.722  0.0076 -0.0926  0.2950
  721POPI   C3B10771  16.335   9.879   7.171 -0.0256 -0.0284 -0.0442
  721POPI   C4B10772  16.370  10.022   7.591  0.0784  0.1447 -0.0865
  722POPI    C110773   5.334  12.844   5.573  0.0521 -0.1075 -0.1737
  722POPI    C210774   5.589  12.873   5.880 -0.5139 -0.0645  0.3104
  722POPI    C310775   5.537  12.522   5.695  0.2668  0.0369 -0.1452
  722POPI   PO410776   5.127  13.038   5.642 -0.0009  0.2165  0.0264
  722POPI   GL110777   5.138  13.149   6.073 -0.1895 -0.1986  0.1918
  722POPI   GL210778   4.855  12.958   6.037 -0.0176  0.1054 -0.0486
  722POPI   C1A10779   5.296  12.842   6.378 -0.0303  0.0135 -0.1386
  722POPI   D2A10780   5.232  12.526   6.673 -0.0463 -0.0759 -0.0381
  722POPI   C3A10781   5.239  12.567   7.086 -0.1491 -0.1197  0.0138
  722POPI   C4A10782   5.456  12.449   7.423  0.0940  0.0781 -0.1496
  722POPI   C1B10783   4.820  12.973   6.446 -0.2314 -0.0916 -0.0247
  722POPI   C2B10784   4.858  12.913   6.816  0.0627 -0.0121 -0.1762
  722POPI   C3B10785   5.050  13.081   7.238 -0.0321  0.1488  0.0998
  722POPI   C4B10786   4.982  13.167   7.714  0.0877  0.2145  0.0048
  723POPI    C110787   5.612   1.610   5.832  0.1226 -0.0257 -0.0365
  723POPI    C210788   5.692   1.455   5.472 -0.1839  0.1159 -0.1692
  723POPI    C310789   5.334   1.397   5.639 -0.0278  0.0119  0.1367
  723POPI   PO410790   5.883   1.561   5.981 -0.0109 -0.1323  0.2406
  723POPI   GL110791   6.097   1.696   6.335  0.1488  0.0714 -0.0006
  723POPI   GL210792   6.196   1.936   6.358 -0.0912 -0.0573  0.1312
  723POPI   C1A10793   6.483   1.508   6.745  0.0837  0.0315  0.0785
  723POPI   D2A10794   6.400   1.426   7.175 -0.4085  0.0025 -0.1534
  723POPI   C3A10795   6.493   1.115   7.379 -0.0485 -0.0490 -0.2721
  723POPI   C4A10796   6.678   0.959   7.803 -0.3308  0.2485  0.0328
  723POPI   C1B10797   6.528   1.984   6.651  0.1601 -0.0521 -0.1018
  723POPI   C2B10798   6.681   1.999   7.118  0.1683  0.3646  0.2252
  723POPI   C3B10799   6.902   1.945   7.475 -0.1697  0.2674 -0.1090
  723POPI   C4B10800   7.219   1.838   7.656  0.4281 -0.0425  0.0135
  724POPI    C110801  12.525  16.170   5.668 -0.1626 -0.1268 -0.0266
  724POPI    C210802  12.455  16.277   5.289 -0.0703 -0.1447 -0.0489
  724POPI    C310803  12.744  16.013   5.372  0.1291  0.1033  0.0612
  724POPI   PO410804  12.407  16.431   5.752  0.1664 -0.0825 -0.2434
  724POPI   GL110805  12.500  16.723   6.093  0.2372  0.0400 -0.0416
  724POPI   GL210806  12.641  16.481   6.241 -0.0118 -0.0403 -0.0291
  724POPI   C1A10807  12.206  16.699   6.417  0.1571  0.1956 -0.0333
  724POPI   D2A10808  12.032  16.968   6.661  0.0045 -0.3239 -0.0617
  724POPI   C3A10809  11.862  16.788   7.149  0.2696 -0.1500 -0.0582
  724POPI   C4A10810  11.807  16.838   7.570  0.1557  0.0588  0.3314
  724POPI   C1B10811  12.643  16.568   6.646 -0.1078  0.0912 -0.1245
  724POPI   C2B10812  12.433  16.642   7.086 -0.0747 -0.3111  0.0283
  724POPI   C3B10813  12.299  16.740   7.538  0.0504 -0.0594  0.2856
  724POPI   C4B10814  12.538  17.007   7.829 -0.3288  0.0992 -0.0624
  725POPI    C110815   6.426  14.889   5.882 -0.0496  0.1577  0.2783
  725POPI    C210816   6.666  14.925   5.564 -0.1425 -0.3542  0.1398
  725POPI    C310817   6.306  15.099   5.563 -0.1288 -0.3249 -0.0219
  725POPI   PO410818   6.362  14.680   5.884 -0.1942  0.4497 -0.0023
  725POPI   GL110819   6.557  14.324   6.223  0.0838  0.1220  0.0631
  725POPI   GL210820   6.260  14.384   6.309 -0.0593 -0.3257 -0.1025
  725POPI   C1A10821   6.712  14.332   6.624  0.0915  0.2954 -0.0806
  725POPI   D2A10822   6.711  14.367   6.982  0.1891 -0.0527  0.0738
  725POPI   C3A10823   6.432  14.293   7.319 -0.2293  0.2290  0.0578
  725POPI   C4A10824   6.337  14.230   7.703  0.1684 -0.1108  0.0384
  725POPI   C1B10825   6.181  14.442   6.694  0.2037 -0.3108 -0.0483
  725POPI   C2B10826   5.957  14.341   7.108 -0.1926 -0.3718 -0.1427
  725POPI   C3B10827   5.853  14.466   7.568  0.1917  0.0852  0.0689
  725POPI   C4B10828   5.647  14.342   7.954 -0.1375 -0.1818 -0.1338
  726POPI    C110829  17.825   0.128   5.372  0.0900  0.1287  0.0995
  726POPI    C210830  18.004  -0.225   5.311  0.0285  0.1217 -0.0448
  726POPI    C310831  17.966   0.035   5.009 -0.0404  0.1991  0.0299
  726POPI   PO410832  17.922   0.139   5.677 -0.2987  0.0667 -0.2629
  726POPI   GL110833  17.959  -0.028   6.146  0.2618 -0.0235 -0.0710
  726POPI   GL210834  17.734   0.122   6.218  0.0042 -0.4511 -0.4619
  726POPI   C1A10835  18.145   0.085   6.574 -0.0263 -0.1652  0.0424
  726POPI   D2A10836  18.132   0.081   6.990  0.0662 -0.1670  0.2082
  726POPI   C3A10837  17.622  -0.047   7.313  0.1318  0.2950  0.1635
  726POPI   C4A10838  17.195  -0.208   7.334  0.0783  0.0524 -0.0203
  726POPI   C1B10839  17.530   0.128   6.572 -0.1372  0.0337 -0.1519
  726POPI   C2B10840  17.322   0.164   6.927  0.1301  0.0632 -0.2110
  726POPI   C3B10841  17.274   0.291   7.362 -0.0988  0.0377  0.1789
  726POPI   C4B10842  17.449   0.562   7.710 -0.1219 -0.1678  0.0178
  727POPI    C110843   6.005  17.106   5.861  0.0005 -0.0415  0.1598
  727POPI    C210844   5.975  17.500   5.796  0.0364 -0.0405  0.1504
  727POPI    C310845   5.981  17.246   5.487  0.0707 -0.0443  0.1542
  727POPI   PO410846   5.804  17.076   6.097  0.0199  0.2463 -0.0515
  727POPI   GL110847   5.860  16.985   6.524  0.1284  0.0726 -0.0925
  727POPI   GL210848   5.830  16.724   6.682 -0.2088 -0.1179 -0.1890
  727POPI   C1A10849   6.009  17.283   6.799  0.3578 -0.0904  0.0044
  727POPI   D2A10850   6.158  17.318   7.324 -0.1335 -0.2310 -0.1034
  727POPI   C3A10851   5.997  17.615   7.646 -0.0041 -0.1452 -0.1523
  727POPI   C4A10852   5.719  17.897   7.988 -0.1948 -0.1684  0.3573
  727POPI   C1B10853   5.768  16.737   7.080  0.0969 -0.0606  0.1911
  727POPI   C2B10854   5.832  16.767   7.473  0.1893  0.0560  0.0003
  727POPI   C3B10855   5.746  16.918   7.832 -0.0140  0.2340 -0.0908
  727POPI   C4B10856   5.889  16.925   8.286 -0.0682  0.2424  0.0026
  728POPI    C110857   0.951  15.930   5.463  0.0181  0.0671 -0.0689
  728POPI    C210858   0.780  15.730   5.764  0.0077  0.4463  0.1841
  728POPI    C310859   0.587  16.036   5.592 -0.0017  0.2110 -0.2378
  728POPI   PO410860   1.261  16.000   5.550  0.0676  0.1667 -0.0172
  728POPI   GL110861   1.429  16.207   5.877  0.0245 -0.2799  0.1370
  728POPI   GL210862   1.683  16.059   5.877 -0.4069  0.0606  0.0034
  728POPI   C1A10863   0.952  16.033   6.067  0.1063 -0.2011  0.0061
  728POPI   D2A10864   0.589  16.109   6.219 -0.2173  0.3459 -0.3485
  728POPI   C3A10865   0.519  16.384   6.406  0.1176 -0.1302 -0.2856
  728POPI   C4A10866   0.279  16.437   6.703  0.1614 -0.2005 -0.1159
  728POPI   C1B10867   1.472  16.047   6.355  0.3319  0.0261  0.0785
  728POPI   C2B10868   1.355  15.823   6.725 -0.0144  0.3331  0.0058
  728POPI   C3B10869   1.075  15.614   7.008  0.0724  0.1340 -0.2566
  728POPI   C4B10870   1.053  15.497   7.415 -0.1384  0.3526 -0.1342
  729POPI    C110871   0.523   5.725   5.066  0.2865 -0.2781  0.3392
  729POPI    C210872   0.147   5.591   5.058  0.1526  0.0951  0.1506
  729POPI    C310873   0.425   5.420   4.827  0.0701 -0.0955  0.1909
  729POPI   PO410874   0.622   5.750   5.299 -0.2464  0.1074 -0.2484
  729POPI   GL110875   0.662   5.523   5.668  0.1395 -0.0634 -0.0655
  729POPI   GL210876   0.401   5.543   5.732 -0.1303  0.0028  0.2448
  729POPI   C1A10877   0.834   5.528   6.155  0.0804 -0.0336 -0.1417
  729POPI   D2A10878   1.072   5.655   6.453  0.1941 -0.0258 -0.1012
  729POPI   C3A10879   0.958   5.754   6.920  0.0307 -0.0712 -0.0468
  729POPI   C4A10880   1.020   5.677   7.340 -0.2431 -0.3185 -0.0515
  729POPI   C1B10881   0.333   5.559   6.151 -0.2321 -0.1628  0.1399
  729POPI   C2B10882   0.463   5.455   6.556 -0.1122  0.0367  0.2056
  729POPI   C3B10883   0.595   5.493   6.995  0.0243 -0.0510  0.1214
  729POPI   C4B10884   0.508   5.763   7.318  0.0077  0.0879 -0.2036
  730POPI    C110885  17.262   0.902   5.552  0.0625 -0.0578  0.0522
  730POPI    C210886  16.942   1.141   5.547  0.0579 -0.0651 -0.0209
  730POPI    C310887  16.934   0.794   5.349  0.0226 -0.1811  0.1802
  730POPI   PO410888  17.340   0.967   5.872  0.1770  0.0795  0.2080
  730POPI   GL110889  17.348   0.909   6.280  0.0912  0.0136  0.0090
  730POPI   GL210890  17.300   1.150   6.576 -0.1048  0.1404 -0.2360
  730POPI   C1A10891  17.153   0.691   6.659  0.1423  0.0628  0.0572
  730POPI   D2A10892  17.230   0.691   7.046 -0.1604  0.1240  0.4867
  730POPI   C3A10893  17.054   1.006   7.281 -0.0350 -0.1847 -0.0455
  730POPI   C4A10894  17.068   1.174   7.710 -0.2144 -0.0763  0.0744
  730POPI   C1B10895  17.387   1.127   6.902 -0.1644 -0.2305  0.2308
  730POPI   C2B10896  17.760   1.174   7.065 -0.1313 -0.0997  0.3034
  730POPI   C3B10897  18.123   0.979   7.347  0.0038  0.1715 -0.2697
  730POPI   C4B10898  18.558   0.980   7.296 -0.0667 -0.1618 -0.1058
  731POPI    C110899   4.717  10.479   5.349  0.2531  0.1019  0.0487
  731POPI    C210900   4.417  10.711   5.477  0.2145  0.0648  0.0259
  731POPI    C310901   4.608  10.800   5.136 -0.0789 -0.1712 -0.2053
  731POPI   PO410902   4.863  10.458   5.699 -0.0886 -0.1467  0.1904
  731POPI   GL110903   4.761  10.748   6.031  0.2189 -0.0878 -0.2234
  731POPI   GL210904   4.608  11.004   5.950 -0.3602  0.0660 -0.1061
  731POPI   C1A10905   4.603  10.645   6.357  0.0425  0.0888 -0.2731
  731POPI   D2A10906   4.213  10.835   6.449 -0.1223  0.4568 -0.1947
  731POPI   C3A10907   4.118  10.890   6.895  0.0159 -0.2528 -0.1850
  731POPI   C4A10908   4.401  10.833   7.334  0.0506  0.0599 -0.2203
  731POPI   C1B10909   4.577  11.165   6.329  0.1327 -0.0513 -0.2247
  731POPI   C2B10910   4.577  11.092   6.827 -0.1753 -0.0885  0.0495
  731POPI   C3B10911   4.666  11.273   7.186  0.0427  0.0574  0.1672
  731POPI   C4B10912   4.622  11.322   7.599  0.0061  0.1201 -0.1625
  732POPI    C110913   4.273   1.754   5.554 -0.0449 -0.0867 -0.1694
  732POPI    C210914   4.500   1.428   5.599 -0.2508 -0.1934  0.1290
  732POPI    C310915   4.107   1.390   5.541 -0.2389 -0.0021 -0.0885
  732POPI   PO410916   4.363   1.874   5.784 -0.1474 -0.0580  0.1662
  732POPI   GL110917   4.292   1.877   6.235  0.0460  0.0346 -0.3573
  732POPI   GL210918   4.140   2.152   6.379 -0.0230 -0.0334 -0.2991
  732POPI   C1A10919   4.124   1.750   6.673  0.0834 -0.0289 -0.0213
  732POPI   D2A10920   4.060   1.767   7.141  0.0877  0.0190 -0.0515
  732POPI   C3A10921   4.060   1.787   7.568  0.2827  0.2794  0.1763
  732POPI   C4A10922   3.934   2.205   7.726 -0.1276  0.2580 -0.1418
  732POPI   C1B10923   4.284   2.213   6.735 -0.0977  0.4994 -0.2075
  732POPI   C2B10924   4.328   2.176   7.180  0.0973 -0.2941 -0.3426
  732POPI   C3B10925   4.489   2.150   7.646  0.0060 -0.3468  0.0218
  732POPI   C4B10926   4.804   2.191   7.917  0.0847  0.3613 -0.2052
  733POPI    C110927  16.410  16.278   5.559  0.2119 -0.0436  0.0459
  733POPI    C210928  16.521  15.932   5.393 -0.0321 -0.1850  0.1732
  733POPI    C310929  16.241  16.157   5.217  0.2715  0.0506 -0.0176
  733POPI   PO410930  16.362  16.236   5.807 -0.2647  0.2955  0.1762
  733POPI   GL110931  16.547  16.217   6.229 -0.0538  0.0954 -0.0847
  733POPI   GL210932  16.397  15.989   6.248 -0.2051 -0.0135 -0.0688
  733POPI   C1A10933  16.598  16.305   6.653 -0.0469  0.1287 -0.0110
  733POPI   D2A10934  16.540  16.240   7.061 -0.1728 -0.2370  0.0630
  733POPI   C3A10935  16.604  15.990   7.356 -0.1634 -0.0759  0.1756
  733POPI   C4A10936  16.623  15.783   7.718 -0.2363  0.1947 -0.0223
  733POPI   C1B10937  16.430  15.802   6.735  0.2023 -0.3135 -0.0903
  733POPI   C2B10938  16.132  15.687   7.138  0.4149  0.0147  0.0176
  733POPI   C3B10939  16.270  15.483   7.470 -0.0787 -0.2628 -0.0341
  733POPI   C4B10940  16.068  15.150   7.650  0.1249  0.3439  0.1659
  734POPI    C110941  17.032   4.252   5.435  0.0446 -0.1460  0.0072
  734POPI    C210942  17.092   3.894   5.267 -0.1177 -0.1895  0.0399
  734POPI    C310943  16.878   4.172   5.075  0.0669 -0.0840 -0.0162
  734POPI   PO410944  17.046   4.190   5.682 -0.2788 -0.0836 -0.4259
  734POPI   GL110945  17.315   4.298   5.999  0.0294  0.1960 -0.0700
  734POPI   GL210946  17.539   3.956   6.022 -0.1543 -0.1787  0.2735
  734POPI   C1A10947  17.481   4.568   6.403  0.1690  0.0343  0.0955
  734POPI   D2A10948  17.480   4.710   6.788  0.1151 -0.1660  0.0374
  734POPI   C3A10949  17.669   4.666   7.169 -0.0788 -0.1292 -0.0452
  734POPI   C4A10950  17.728   4.607   7.539  0.2511 -0.3050  0.1608
  734POPI   C1B10951  17.400   4.092   6.488  0.3824  0.1613 -0.2631
  734POPI   C2B10952  17.256   4.237   6.850  0.1607 -0.0901  0.1418
  734POPI   C3B10953  17.300   4.397   7.262  0.0853  0.3194  0.1351
  734POPI   C4B10954  17.181   4.517   7.634 -0.1570  0.3134 -0.1305
  735POPI    C110955   8.021  12.096   5.796  0.0586  0.0860  0.0013
  735POPI    C210956   7.720  11.847   5.710 -0.0740  0.3379 -0.2854
  735POPI    C310957   7.930  12.016   5.415  0.3336  0.1889 -0.0886
  735POPI   PO410958   7.983  12.021   6.111 -0.0134 -0.2028  0.2187
  735POPI   GL110959   8.050  11.801   6.496 -0.1657  0.2632  0.2229
  735POPI   GL210960   7.737  11.606   6.469  0.1910  0.1385 -0.0306
  735POPI   C1A10961   8.298  11.816   6.886 -0.2590 -0.0124 -0.2346
  735POPI   D2A10962   8.230  11.805   7.192 -0.3462  0.0435  0.0682
  735POPI   C3A10963   8.042  11.675   7.528 -0.3541 -0.3416  0.1248
  735POPI   C4A10964   8.035  11.411   7.882  0.1293 -0.6024 -0.0644
  735POPI   C1B10965   7.732  11.803   6.855 -0.1716 -0.1086 -0.0385
  735POPI   C2B10966   7.624  11.771   7.246 -0.1398 -0.0225 -0.2584
  735POPI   C3B10967   7.610  11.731   7.710 -0.0140 -0.1805 -0.1502
  735POPI   C4B10968   7.709  11.761   8.089 -0.0845 -0.1999 -0.0068
  736POPI    C110969   9.498   5.659   5.615  0.1531  0.3814 -0.0510
  736POPI    C210970   9.772   5.374   5.555 -0.3014 -0.1093  0.1228
  736POPI    C310971   9.528   5.482   5.257 -0.1837  0.0445  0.0808
  736POPI   PO410972   9.601   5.962   5.637  0.1803  0.1489  0.1548
  736POPI   GL110973   9.400   6.280   5.921  0.0056 -0.3028 -0.1881
  736POPI   GL210974   9.617   6.098   6.145  0.1922 -0.0305  0.1061
  736POPI   C1A10975   9.138   6.515   6.262 -0.2286 -0.0350  0.2302
  736POPI   D2A10976   9.090   6.723   6.620 -0.1426  0.1886 -0.0239
  736POPI   C3A10977   9.268   6.809   6.969  0.2267 -0.0653  0.1100
  736POPI   C4A10978   9.486   6.744   7.396 -0.3479  0.0924 -0.0357
  736POPI   C1B10979   9.594   6.388   6.486 -0.1091 -0.1552  0.3320
  736POPI   C2B10980   9.819   6.518   6.934  0.2345  0.1293  0.1874
  736POPI   C3B10981   9.789   6.310   7.357 -0.2997  0.1967  0.2728
  736POPI   C4B10982   9.633   6.160   7.685  0.0062 -0.0848 -0.1263
  737POPI    C110983  16.302  15.477   5.608 -0.1696  0.0937 -0.0521
  737POPI    C210984  16.652  15.289   5.562 -0.0805  0.1745  0.2754
  737POPI    C310985  16.360  15.236   5.294  0.1284 -0.0129  0.0813
  737POPI   PO410986  16.395  15.672   5.802  0.1496  0.0253  0.2943
  737POPI   GL110987  16.509  15.433   6.104 -0.3489 -0.1546 -0.2121
  737POPI   GL210988  16.697  15.225   6.270 -0.0056  0.1356 -0.1853
  737POPI   C1A10989  16.271  15.466   6.400 -0.0297 -0.0460 -0.0838
  737POPI   D2A10990  16.209  15.318   6.782 -0.0563  0.2117  0.2329
  737POPI   C3A10991  15.920  15.208   7.073  0.2498 -0.1337  0.1400
  737POPI   C4A10992  15.632  15.070   7.418  0.2624  0.0845 -0.1879
  737POPI   C1B10993  16.696  15.328   6.654  0.2727 -0.1668  0.2702
  737POPI   C2B10994  16.622  15.325   7.084 -0.0817  0.0099  0.2585
  737POPI   C3B10995  16.806  15.324   7.536  0.0370  0.2946  0.0883
  737POPI   C4B10996  16.994  15.127   7.849  0.0834  0.2993  0.0203
  738POPI    C110997   9.788  12.881   5.693 -0.2953  0.0711 -0.0469
  738POPI    C210998   9.759  12.539   5.488  0.1576 -0.0927  0.1478
  738POPI    C310999   9.981  12.840   5.345 -0.0840  0.0514  0.0704
  738POPI   PO411000   9.701  12.748   6.003  0.4212 -0.0765  0.0857
  738POPI   GL111001   9.659  12.918   6.482 -0.1819 -0.1770  0.0814
  738POPI   GL211002   9.462  12.777   6.484  0.2959 -0.0818  0.5332
  738POPI   C1A11003   9.964  12.791   6.729  0.4579 -0.0244 -0.2044
  738POPI   D2A11004  10.277  12.915   7.089  0.2174  0.2433  0.2667
  738POPI   C3A11005  10.194  13.071   7.386  0.1429  0.0222 -0.1536
  738POPI   C4A11006  10.101  13.003   7.813 -0.1941 -0.3431  0.1193
  738POPI   C1B11007   9.556  12.860   6.963  0.4152  0.2549  0.1590
  738POPI   C2B11008   9.693  13.004   7.212  0.2003 -0.0364 -0.0999
  738POPI   C3B11009   9.648  13.173   7.633  0.2563 -0.2145  0.2335
  738POPI   C4B11010   9.347  13.077   8.064 -0.0344  0.0720  0.1088
  739POPI    C111011   4.772   0.676   5.705 -0.0207 -0.1003 -0.1628
  739POPI    C211012   4.485   0.955   5.718  0.1663  0.1119 -0.4430
  739POPI    C311013   4.413   0.601   5.546 -0.1006 -0.0543 -0.0058
  739POPI   PO411014   4.824   0.688   5.970 -0.1797 -0.0692  0.0696
  739POPI   GL111015   4.978   0.707   6.325  0.1949 -0.0194  0.1312
  739POPI   GL211016   5.120   0.843   6.559 -0.0275  0.1398 -0.0901
  739POPI   C1A11017   4.932   0.319   6.524 -0.3605 -0.2957  0.1163
  739POPI   D2A11018   4.832  -0.005   6.614  0.2546  0.0566 -0.1868
  739POPI   C3A11019   4.650  -0.300   7.012  0.0120  0.1310  0.0211
  739POPI   C4A11020   4.645  -0.721   6.962  0.3264  0.2808 -0.3160
  739POPI   C1B11021   5.091   1.094   6.892  0.0030 -0.0667  0.1303
  739POPI   C2B11022   4.913   1.293   7.225  0.1068 -0.3220  0.0229
  739POPI   C3B11023   4.536   1.234   7.539 -0.0035  0.2393 -0.2704
  739POPI   C4B11024   4.545   0.847   7.822 -0.2717 -0.3545  0.0312
  740POPI    C111025  14.394   1.221   5.499  0.0876  0.0279 -0.0323
  740POPI    C211026  14.501   1.009   5.177 -0.1923  0.3083 -0.3171
  740POPI    C311027  14.700   1.342   5.273 -0.0514  0.1759 -0.1438
  740POPI   PO411028  14.363   1.093   5.740 -0.0237  0.0364  0.2433
  740POPI   GL111029  14.286   1.334   6.073  0.1594  0.0757 -0.1159
  740POPI   GL211030  14.664   1.197   6.068  0.1497 -0.0227  0.2587
  740POPI   C1A11031  14.222   1.189   6.472 -0.3345 -0.0382 -0.0737
  740POPI   D2A11032  14.352   1.273   6.869 -0.1611 -0.3454 -0.0416
  740POPI   C3A11033  14.128   1.228   7.186  0.0247 -0.0155 -0.1625
  740POPI   C4A11034  13.987   1.209   7.613  0.1567  0.1196  0.0930
  740POPI   C1B11035  14.741   1.261   6.565  0.2395  0.0111  0.1853
  740POPI   C2B11036  14.840   1.103   7.017 -0.0928 -0.3303  0.0485
  740POPI   C3B11037  14.862   0.714   7.236 -0.1008 -0.3386 -0.2993
  740POPI   C4B11038  15.027   0.517   7.594  0.2009 -0.2471 -0.2586
  741POPS   CNO11039   2.186   8.373   5.556 -0.1046  0.0350 -0.1876
  741POPS   PO411040   1.973   8.646   5.560 -0.1258  0.1250  0.0289
  741POPS   GL111041   1.808   8.445   5.877 -0.1371  0.3051  0.1019
  741POPS   GL211042   1.988   8.216   6.060 -0.0099  0.0717 -0.2004
  741POPS   C1A11043   1.731   8.527   6.319  0.3359 -0.2127  0.1862
  741POPS   D2A11044   1.592   8.607   6.792  0.1808  0.2224 -0.2172
  741POPS   C3A11045   1.833   8.534   7.043 -0.1964  0.2367  0.0796
  741POPS   C4A11046   2.178   8.302   7.320  0.1346 -0.0086  0.0561
  741POPS   C1B11047   1.998   8.163   6.530 -0.0567  0.0814 -0.0528
  741POPS   C2B11048   1.976   8.058   6.899  0.2739  0.2911  0.0458
  741POPS   C3B11049   1.784   7.868   7.334 -0.1709 -0.0954  0.1414
  741POPS   C4B11050   1.471   7.909   7.652  0.2289  0.0230 -0.3266
  742POPS   CNO11051  10.197   2.947   5.693  0.1517  0.1163 -0.0215
  742POPS   PO411052   9.872   2.627   5.696  0.0958 -0.0948 -0.0346
  742POPS   GL111053  10.127   2.683   6.114 -0.0348  0.2491 -0.0229
  742POPS   GL211054   9.985   2.929   6.328  0.0287  0.0615  0.0500
  742POPS   C1A11055  10.338   2.563   6.491  0.3332 -0.0494 -0.0870
  742POPS   D2A11056  10.284   2.408   6.912 -0.0603 -0.1184  0.3312
  742POPS   C3A11057  10.286   2.466   7.392 -0.0131  0.0112  0.4116
  742POPS   C4A11058  10.480   2.248   7.721  0.2866  0.1059 -0.2714
  742POPS   C1B11059   9.960   2.882   6.746  0.1352  0.2496 -0.2110
  742POPS   C2B11060  10.217   2.905   7.134  0.0864 -0.0969 -0.0411
  742POPS   C3B11061  10.578   2.845   7.497 -0.0914  0.2959 -0.2616
  742POPS   C4B11062  10.549   3.044   7.953 -0.2933  0.0493  0.0565
  743POPS   CNO11063  12.089  11.192   5.920  0.0613  0.2665  0.0186
  743POPS   PO411064  12.195  11.638   5.863 -0.0516 -0.0682 -0.0892
  743POPS   GL111065  12.259  11.608   6.283 -0.0623 -0.1272  0.0638
  743POPS   GL211066  12.078  11.715   6.485 -0.1488  0.0880 -0.1145
  743POPS   C1A11067  12.475  11.329   6.582 -0.1075 -0.3197  0.2065
  743POPS   D2A11068  12.571  11.090   6.865 -0.0758 -0.3714 -0.1534
  743POPS   C3A11069  12.680  10.659   6.688 -0.0790  0.0580 -0.0253
  743POPS   C4A11070  12.844  10.583   6.309 -0.1356 -0.2439 -0.0563
  743POPS   C1B11071  12.123  11.766   6.891  0.0317 -0.3959 -0.2702
  743POPS   C2B11072  12.155  11.664   7.309  0.1020 -0.1796  0.1325
  743POPS   C3B11073  12.148  11.780   7.724  0.0428 -0.1492  0.0659
  743POPS   C4B11074  12.164  12.032   8.055 -0.0574  0.1017 -0.0032
  744POPS   CNO11075   8.505   4.144   6.057  0.0711  0.2472  0.0206
  744POPS   PO411076   8.168   4.289   5.748  0.1413  0.2306 -0.1232
  744POPS   GL111077   8.180   4.518   6.029  0.0369  0.1112  0.0333
  744POPS   GL211078   8.049   4.402   6.267  0.0090  0.0578 -0.2231
  744POPS   C1A11079   8.434   4.707   6.304  0.3955 -0.0231 -0.0774
  744POPS   D2A11080   8.627   4.810   6.639 -0.0371 -0.0026  0.0242
  744POPS   C3A11081   8.463   4.732   7.010  0.1871  0.2389 -0.0568
  744POPS   C4A11082   8.525   4.458   7.212  0.1905  0.0187  0.1680
  744POPS   C1B11083   7.839   4.342   6.624 -0.1283 -0.0851  0.0422
  744POPS   C2B11084   7.900   4.288   7.066  0.0827 -0.2061  0.0243
  744POPS   C3B11085   8.164   4.315   7.477 -0.0349  0.0962  0.3287
  744POPS   C4B11086   8.285   4.117   7.763 -0.2020 -0.0370 -0.1100
  745POPS   CNO11087   1.411  11.844   5.466 -0.2475 -0.0112 -0.1758
  745POPS   PO411088   1.507  11.418   5.571 -0.0154 -0.3718 -0.1430
  745POPS   GL111089   1.411  11.604   5.928  0.1406  0.2005 -0.1613
  745POPS   GL211090   1.106  11.716   5.934 -0.1367 -0.1854  0.4173
  745POPS   C1A11091   1.376  11.427   6.310  0.1827 -0.0700 -0.1173
  745POPS   D2A11092   1.236  11.472   6.781  0.2125  0.1454  0.0335
  745POPS   C3A11093   1.240  11.155   6.997 -0.1468  0.0815  0.1661
  745POPS   C4A11094   1.176  11.205   7.427  0.3718 -0.0159 -0.0597
  745POPS   C1B11095   0.971  11.703   6.355  0.1832  0.0195 -0.1187
  745POPS   C2B11096   1.007  11.897   6.797 -0.1081 -0.2017  0.0165
  745POPS   C3B11097   1.295  11.950   7.138  0.1469 -0.2753  0.1531
  745POPS   C4B11098   1.441  11.812   7.644 -0.3578  0.2537  0.0433
  746POPS   CNO11099  12.719  17.728   5.337  0.0374  0.1906 -0.0325
  746POPS   PO411100  12.522  17.495   5.614 -0.0435 -0.0318  0.2482
  746POPS   GL111101  12.505  17.226   6.016 -0.0880  0.0742  0.0209
  746POPS   GL211102  12.171  17.019   5.895  0.0503 -0.0651 -0.0685
  746POPS   C1A11103  12.323  17.404   6.375 -0.1929 -0.3978  0.2792
  746POPS   D2A11104  12.292  17.479   6.853 -0.3205 -0.2085 -0.2498
  746POPS   C3A11105  12.424  17.644   7.270  0.1262  0.0288  0.0362
  746POPS   C4A11106  12.416  17.931   7.497  0.1043  0.0547 -0.0978
  746POPS   C1B11107  11.903  17.219   6.229 -0.0579  0.0089  0.2422
  746POPS   C2B11108  11.746  17.454   6.656 -0.0435 -0.3005  0.0822
  746POPS   C3B11109  11.763  17.750   6.920  0.0411  0.0847 -0.2448
  746POPS   C4B11110  11.706  17.782   7.329  0.0217  0.2390 -0.1522
  747POPS   CNO11111   7.048  17.691   5.735  0.0548 -0.0435 -0.2706
  747POPS   PO411112   7.325  17.994   5.794  0.1366 -0.2428 -0.2001
  747POPS   GL111113   7.389  18.045   6.225 -0.0741 -0.1239  0.0130
  747POPS   GL211114   7.176  18.175   6.406 -0.4486  0.1631 -0.1250
  747POPS   C1A11115   7.464  17.944   6.714  0.0653  0.2604  0.3493
  747POPS   D2A11116   7.370  18.081   7.156 -0.1484  0.2919  0.4622
  747POPS   C3A11117   7.709  18.019   7.543 -0.1174 -0.0734  0.0690
  747POPS   C4A11118   7.605  18.190   7.919  0.0213 -0.0836  0.1183
  747POPS   C1B11119   6.965  18.047   6.800  0.2817  0.1892 -0.1248
  747POPS   C2B11120   6.887  18.157   7.235  0.0364  0.0955  0.2774
  747POPS   C3B11121   7.064  17.955   7.615  0.0350 -0.4126 -0.0641
  747POPS   C4B11122   6.899  17.760   7.985 -0.0448 -0.0166 -0.0581
  748POPS   CNO11123   2.699   2.989   5.848 -0.1068  0.1381 -0.2943
  748POPS   PO411124   2.515   2.672   5.608  0.0585 -0.0164  0.2241
  748POPS   GL111125   2.322   2.610   5.973 -0.0705  0.0367  0.2511
  748POPS   GL211126   2.007   2.646   6.013 -0.0931  0.0220  0.0352
  748POPS   C1A11127   2.404   2.674   6.386 -0.1769  0.1129 -0.4025
  748POPS   D2A11128   2.472   2.679   6.854  0.1933  0.1283  0.0282
  748POPS   C3A11129   2.331   2.392   7.113 -0.1616 -0.3153  0.3207
  748POPS   C4A11130   2.026   2.397   7.503  0.1061  0.1640 -0.4329
  748POPS   C1B11131   1.872   2.752   6.328 -0.0544 -0.0117 -0.0833
  748POPS   C2B11132   1.979   2.735   6.708 -0.1657 -0.0143  0.2364
  748POPS   C3B11133   2.076   2.838   7.223 -0.0470  0.1279  0.1834
  748POPS   C4B11134   1.927   3.122   7.430  0.0287 -0.2526  0.2622
  749POPS   CNO11135   9.523   1.350   5.903  0.0154 -0.1864 -0.0676
  749POPS   PO411136   9.413   1.748   5.769 -0.1715 -0.3439  0.0925
  749POPS   GL111137   9.618   1.927   6.058  0.2065  0.3364  0.1082
  749POPS   GL211138   9.898   2.083   5.856  0.1419  0.2451 -0.1163
  749POPS   C1A11139   9.547   2.126   6.416  0.0500  0.0678  0.1016
  749POPS   D2A11140   9.395   2.144   6.792 -0.0044 -0.0854 -0.0413
  749POPS   C3A11141   9.499   1.987   7.165  0.3281 -0.2198  0.1369
  749POPS   C4A11142   9.731   1.810   7.468 -0.3482 -0.0709 -0.1138
  749POPS   C1B11143   9.970   2.202   6.242 -0.1321  0.1399  0.1964
  749POPS   C2B11144   9.897   2.429   6.612 -0.0004  0.0727  0.1170
  749POPS   C3B11145   9.782   2.504   7.035 -0.4315 -0.1712 -0.0335
  749POPS   C4B11146   9.812   2.333   7.467  0.1230 -0.0251 -0.4250
  750POPS   CNO11147  15.919   0.686   5.620 -0.1273 -0.2187  0.0326
  750POPS   PO411148  16.058   0.976   5.945  0.2856 -0.1788  0.1251
  750POPS   GL111149  16.112   1.036   6.334 -0.0887  0.0110  0.2035
  750POPS   GL211150  16.297   1.289   6.348  0.1652 -0.1615 -0.0831
  750POPS   C1A11151  16.223   1.107   6.779 -0.1964 -0.0459 -0.2399
  750POPS   D2A11152  16.298   1.309   7.243  0.1684  0.0017  0.0632
  750POPS   C3A11153  16.130   1.580   7.488 -0.0734 -0.0760  0.1443
  750POPS   C4A11154  15.836   1.464   7.694  0.0442 -0.0505 -0.1531
  750POPS   C1B11155  16.339   1.606   6.715  0.1582 -0.2281 -0.2147
  750POPS   C2B11156  16.398   1.778   7.081  0.3970  0.1082  0.1723
  750POPS   C3B11157  16.443   2.078   7.385  0.1307  0.2278 -0.1103
  750POPS   C4B11158  16.431   2.399   7.689 -0.0143  0.1072  0.0812
  751POPS   CNO11159   3.972   1.626   5.921 -0.1353  0.1316  0.3896
  751POPS   PO411160   3.689   1.350   6.045 -0.0844 -0.2262 -0.0396
  751POPS   GL111161   3.682   1.536   6.368  0.1551 -0.3691  0.2482
  751POPS   GL211162   3.941   1.345   6.480  0.1570 -0.1257  0.2061
  751POPS   C1A11163   3.621   1.676   6.725 -0.0647  0.1683 -0.0496
  751POPS   D2A11164   3.552   1.521   7.149  0.1826 -0.0611  0.0700
  751POPS   C3A11165   3.619   1.562   7.575  0.2540  0.1932 -0.0616
  751POPS   C4A11166   3.759   1.752   7.936 -0.3833  0.2825 -0.1412
  751POPS   C1B11167   3.956   1.308   6.887  0.0952  0.1301  0.0444
  751POPS   C2B11168   4.109   1.314   7.350 -0.0899  0.1032 -0.1143
  751POPS   C3B11169   3.907   1.250   7.855  0.1633 -0.0431 -0.1671
  751POPS   C4B11170   4.172   1.481   8.160  0.2811 -0.1459  0.2037
  752POPS   CNO11171  10.824  15.819   5.737  0.1189 -0.0701 -0.3180
  752POPS   PO411172  10.927  15.279   5.667  0.0013 -0.0189 -0.0337
  752POPS   GL111173  10.689  15.308   6.140 -0.1640  0.0869 -0.0753
  752POPS   GL211174  10.878  15.607   6.299  0.0199 -0.2707  0.1140
  752POPS   C1A11175  10.733  15.231   6.662  0.0918  0.1362 -0.1023
  752POPS   D2A11176  10.926  15.117   7.110 -0.3487  0.0536  0.0987
  752POPS   C3A11177  11.153  15.336   7.319  0.1102  0.1841 -0.2306
  752POPS   C4A11178  11.393  15.574   7.689  0.0062 -0.0352 -0.2091
  752POPS   C1B11179  11.130  15.279   6.361 -0.0041 -0.0443  0.1230
  752POPS   C2B11180  11.053  14.919   6.437 -0.0169 -0.2045 -0.2599
  752POPS   C3B11181  10.875  14.579   6.544  0.1598  0.0719  0.0906
  752POPS   C4B11182  10.720  14.269   6.845  0.2192 -0.1382 -0.3890
  753POPS   CNO11183  13.839  13.644   5.455  0.1752  0.1294  0.2018
  753POPS   PO411184  13.472  13.425   5.269 -0.0138 -0.3066  0.0918
  753POPS   GL111185  13.431  13.298   5.672  0.0379  0.2283 -0.0096
  753POPS   GL211186  13.400  13.609   5.832 -0.0952 -0.0743  0.0343
  753POPS   C1A11187  13.632  13.228   6.002  0.1934 -0.2002 -0.2085
  753POPS   D2A11188  13.857  13.266   6.394  0.0360 -0.1103  0.0973
  753POPS   C3A11189  13.674  13.299   6.861 -0.0563  0.1850 -0.1791
  753POPS   C4A11190  13.600  13.289   7.312 -0.1513  0.4374  0.2893
  753POPS   C1B11191  13.285  13.526   6.270  0.2131 -0.0980 -0.0232
  753POPS   C2B11192  13.391  13.631   6.658  0.1746  0.0312 -0.3663
  753POPS   C3B11193  13.390  13.690   7.079  0.2010 -0.0103  0.0277
  753POPS   C4B11194  13.490  13.715   7.530  0.1522  0.0467 -0.2081
  754POPS   CNO11195   7.673   5.363   5.934  0.2135  0.0896 -0.0001
  754POPS   PO411196   7.528   4.960   5.783  0.0572 -0.1969 -0.1741
  754POPS   GL111197   7.301   5.084   6.120  0.1124 -0.0271 -0.0618
  754POPS   GL211198   7.040   5.147   6.146  0.2718  0.1048 -0.1503
  754POPS   C1A11199   7.480   5.320   6.400 -0.0818  0.0124 -0.2582
  754POPS   D2A11200   7.746   5.196   6.825  0.2473  0.0405  0.1391
  754POPS   C3A11201   7.658   5.253   7.249  0.1347  0.2790  0.0545
  754POPS   C4A11202   7.516   5.488   7.640  0.0741  0.2294 -0.2215
  754POPS   C1B11203   7.000   5.170   6.579 -0.0091 -0.0272 -0.1731
  754POPS   C2B11204   7.238   5.303   6.987 -0.0100  0.1143  0.0328
  754POPS   C3B11205   6.982   5.471   7.387  0.2233  0.2919  0.0034
  754POPS   C4B11206   6.723   5.511   7.764  0.0418 -0.1841  0.3489
  755POPS   CNO11207  12.638  12.801   5.471 -0.1655  0.0837 -0.1203
  755POPS   PO411208  12.759  13.176   5.643 -0.0253  0.0122 -0.3361
  755POPS   GL111209  12.877  13.201   6.012 -0.2957  0.2689 -0.1319
  755POPS   GL211210  13.072  13.010   6.219  0.0411 -0.0689  0.0591
  755POPS   C1A11211  12.748  13.479   6.414  0.1911 -0.1009  0.0492
  755POPS   D2A11212  12.854  13.630   6.755  0.0302 -0.1465 -0.2343
  755POPS   C3A11213  12.929  13.519   7.142  0.0692 -0.2520  0.1339
  755POPS   C4A11214  13.093  13.349   7.440 -0.5599  0.1157 -0.3155
  755POPS   C1B11215  13.160  13.154   6.696  0.0252 -0.0140  0.0599
  755POPS   C2B11216  13.255  13.020   7.087  0.1063 -0.1262 -0.0864
  755POPS   C3B11217  13.410  12.927   7.514 -0.0869 -0.2203  0.0499
  755POPS   C4B11218  13.333  12.725   7.901  0.1982 -0.0816  0.0828
  756POPS   CNO11219   3.896   2.127   5.703  0.1417  0.1827 -0.1957
  756POPS   PO411220   3.957   2.611   5.677 -0.0773  0.0845  0.1774
  756POPS   GL111221   4.005   2.639   6.143  0.1491 -0.0490 -0.1666
  756POPS   GL211222   3.994   3.006   6.319 -0.3422  0.1178 -0.3085
  756POPS   C1A11223   4.036   2.595   6.613  0.0279  0.2170 -0.0686
  756POPS   D2A11224   4.049   2.661   7.024  0.1642  0.1778  0.0785
  756POPS   C3A11225   4.198   3.049   7.209  0.3926  0.1030  0.0755
  756POPS   C4A11226   4.044   3.402   7.044 -0.0253 -0.0579  0.0185
  756POPS   C1B11227   3.859   3.089   6.735 -0.2041 -0.0894  0.2288
  756POPS   C2B11228   3.511   3.405   6.960  0.0309  0.2690  0.3229
  756POPS   C3B11229   3.323   3.315   7.389 -0.1323 -0.1243 -0.1051
  756POPS   C4B11230   3.146   3.307   7.885  0.0606 -0.3092  0.0232
  757POPS   CNO11231   8.636  15.767   5.840  0.1051 -0.0798  0.0423
  757POPS   PO411232   8.413  16.018   6.066  0.0852  0.0792 -0.0157
  757POPS   GL111233   8.324  16.204   6.361 -0.0238 -0.3043 -0.1315
  757POPS   GL211234   8.325  16.081   6.597  0.1754  0.1104 -0.1625
  757POPS   C1A11235   8.282  16.557   6.694 -0.1030  0.0993  0.2017
  757POPS   D2A11236   7.958  16.798   6.929  0.6067 -0.3743 -0.0634
  757POPS   C3A11237   7.929  16.754   7.395 -0.1381  0.2780 -0.2536
  757POPS   C4A11238   7.555  16.738   7.638  0.0804  0.1355 -0.0582
  757POPS   C1B11239   8.421  15.677   6.832  0.1366  0.0093 -0.0390
  757POPS   C2B11240   8.312  15.678   7.268 -0.0779  0.2034  0.0349
  757POPS   C3B11241   8.425  15.625   7.611  0.2039 -0.1234 -0.0687
  757POPS   C4B11242   8.531  15.899   8.040 -0.1615 -0.3012  0.4436
  758POPS   CNO11243  11.462   1.271   5.253 -0.0012 -0.0466 -0.1240
  758POPS   PO411244  11.720   1.237   5.646 -0.1170  0.0453  0.0734
  758POPS   GL111245  11.490   1.231   6.095  0.3314 -0.0285 -0.2973
  758POPS   GL211246  11.116   1.183   6.088  0.0879 -0.0131  0.2539
  758POPS   C1A11247  11.423   1.446   6.528 -0.0934 -0.1937 -0.1504
  758POPS   D2A11248  11.280   1.315   6.896 -0.1166 -0.1987  0.0201
  758POPS   C3A11249  11.517   1.443   7.109  0.0593 -0.0835  0.2037
  758POPS   C4A11250  11.967   1.518   7.056 -0.1987 -0.1257 -0.0131
  758POPS   C1B11251  10.916   1.309   6.475 -0.2804 -0.0914  0.0637
  758POPS   C2B11252  10.804   1.485   6.805 -0.1511 -0.2653 -0.1771
  758POPS   C3B11253  11.057   1.736   7.204 -0.0801 -0.1390  0.1431
  758POPS   C4B11254  11.308   1.586   7.582 -0.3779  0.2532 -0.1982
  759POPS   CNO11255   3.090   3.284   5.731  0.2763  0.0474 -0.0672
  759POPS   PO411256   3.259   3.018   5.826 -0.0592  0.1566  0.2363
  759POPS   GL111257   3.188   2.962   6.168  0.2325  0.2750  0.2571
  759POPS   GL211258   3.529   2.962   6.312 -0.0963 -0.2343 -0.1490
  759POPS   C1A11259   3.231   3.056   6.726 -0.2313 -0.4608 -0.1937
  759POPS   D2A11260   3.105   2.883   7.175 -0.1980 -0.0387  0.2384
  759POPS   C3A11261   3.377   2.513   7.281  0.1123  0.2519  0.0893
  759POPS   C4A11262   3.733   2.542   7.445 -0.0275 -0.1296  0.1313
  759POPS   C1B11263   3.554   2.698   6.706 -0.2423  0.0496  0.0450
  759POPS   C2B11264   3.594   2.905   7.136 -0.0514 -0.4727  0.0393
  759POPS   C3B11265   3.766   3.090   7.466  0.0628 -0.1250 -0.0429
  759POPS   C4B11266   3.662   3.369   7.763  0.1748 -0.1550  0.1965
  760POPS   CNO11267   2.329  11.651   4.870  0.1407 -0.2255 -0.1457
  760POPS   PO411268   2.257  11.300   5.103 -0.1085 -0.1680  0.0242
  760POPS   GL111269   2.321  11.484   5.569 -0.0345 -0.0446  0.3739
  760POPS   GL211270   1.985  11.548   5.626 -0.0572  0.2477 -0.0958
  760POPS   C1A11271   2.288  11.288   6.003  0.1453  0.1222 -0.1022
  760POPS   D2A11272   2.321  11.228   6.382 -0.2378 -0.2949 -0.0166
  760POPS   C3A11273   2.205  11.290   6.842 -0.0059 -0.1873  0.3689
  760POPS   C4A11274   2.251  11.539   7.261 -0.0283  0.0498  0.2759
  760POPS   C1B11275   1.924  11.617   6.082 -0.1647  0.2618 -0.0765
  760POPS   C2B11276   1.873  11.548   6.534  0.0780  0.2057 -0.2582
  760POPS   C3B11277   1.813  11.580   7.035  0.0340 -0.0926 -0.0100
  760POPS   C4B11278   1.529  11.497   7.203  0.0450  0.0259  0.2233
  761POPS   CNO11279  17.597  18.113   6.341  0.1847  0.2137  0.1194
  761POPS   PO411280  17.518  17.831   5.998  0.1077 -0.0303 -0.4202
  761POPS   GL111281  17.403  17.581   6.375 -0.2885  0.0323  0.3813
  761POPS   GL211282  17.087  17.402   6.327 -0.0983 -0.0884 -0.0592
  761POPS   C1A11283  17.575  17.305   6.472 -0.0115  0.1868  0.1956
  761POPS   D2A11284  17.604  17.157   6.808  0.1782  0.4272 -0.0994
  761POPS   C3A11285  17.945  16.931   7.017 -0.0487 -0.0499  0.2759
  761POPS   C4A11286  18.192  16.673   7.302 -0.2084 -0.1670 -0.0498
  761POPS   C1B11287  17.157  17.383   6.746 -0.1440  0.0959  0.2183
  761POPS   C2B11288  17.169  17.397   7.234  0.1416  0.2421 -0.2987
  761POPS   C3B11289  17.259  17.330   7.694  0.0783  0.1288  0.1367
  761POPS   C4B11290  16.829  17.268   8.005 -0.3154  0.0692  0.1755
  762POPS   CNO11291   2.744   7.485   5.027 -0.0752 -0.2152  0.0354
  762POPS   PO411292   2.578   7.632   5.375  0.1360  0.4084 -0.0671
  762POPS   GL111293   2.858   7.587   5.791 -0.0545 -0.2703 -0.0379
  762POPS   GL211294   3.129   7.835   5.896  0.1311 -0.0232 -0.0295
  762POPS   C1A11295   2.810   7.554   6.202 -0.0004 -0.0788 -0.1701
  762POPS   D2A11296   2.783   7.674   6.634 -0.2166 -0.1375  0.4390
  762POPS   C3A11297   2.823   7.417   6.961 -0.0652  0.1365  0.2063
  762POPS   C4A11298   3.083   7.069   6.989 -0.3970  0.2891 -0.0517
  762POPS   C1B11299   3.295   7.759   6.324 -0.0856 -0.0597  0.1377
  762POPS   C2B11300   3.222   7.782   6.801 -0.2767 -0.0093 -0.1091
  762POPS   C3B11301   3.252   7.771   7.208 -0.2025  0.1615  0.0651
  762POPS   C4B11302   3.076   7.411   7.394 -0.0044 -0.0184  0.3290
  763POPS   CNO11303  14.124   8.725   5.158  0.3755 -0.0375 -0.0138
  763POPS   PO411304  14.292   8.723   5.553  0.0208 -0.0752 -0.0064
  763POPS   GL111305  14.144   8.665   6.048 -0.2826  0.2149 -0.2454
  763POPS   GL211306  14.132   8.927   6.185  0.2837 -0.4183 -0.2416
  763POPS   C1A11307  13.956   8.481   6.305  0.0131 -0.1349 -0.0053
  763POPS   D2A11308  13.912   8.119   6.500  0.0080 -0.2249  0.1549
  763POPS   C3A11309  13.871   7.747   6.329 -0.0146  0.1966 -0.0297
  763POPS   C4A11310  13.763   7.350   6.164  0.0427 -0.2635 -0.0690
  763POPS   C1B11311  14.275   8.915   6.467 -0.1511 -0.2662 -0.1024
  763POPS   C2B11312  14.201   8.908   6.874  0.0984 -0.0791 -0.0471
  763POPS   C3B11313  14.358   8.900   7.292 -0.2804  0.3053 -0.1847
  763POPS   C4B11314  14.459   9.240   7.717 -0.1404  0.2488  0.1998
  764POPS   CNO11315   5.244  14.009   5.630 -0.1851  0.1139 -0.1200
  764POPS   PO411316   5.345  13.773   6.033  0.1363  0.1085 -0.2081
  764POPS   GL111317   5.409  13.896   6.362 -0.1010  0.2433 -0.5842
  764POPS   GL211318   5.686  14.080   6.389 -0.2022  0.0576  0.1515
  764POPS   C1A11319   5.336  13.790   6.800 -0.0484 -0.0681  0.1416
  764POPS   D2A11320   5.088  13.566   7.076 -0.0398  0.0134 -0.2414
  764POPS   C3A11321   5.228  13.636   7.516  0.0724  0.2571 -0.0423
  764POPS   C4A11322   5.156  13.649   8.002  0.3316  0.0824 -0.2902
  764POPS   C1B11323   5.902  13.927   6.849 -0.0378  0.1369  0.3688
  764POPS   C2B11324   5.980  13.927   7.302 -0.0327 -0.0723 -0.0927
  764POPS   C3B11325   6.085  13.817   7.682  0.1015  0.4206 -0.0269
  764POPS   C4B11326   6.214  13.882   8.082  0.2976 -0.1535  0.0004
  765POPS   CNO11327  17.907   3.118   5.606  0.2109 -0.2219 -0.0223
  765POPS   PO411328  17.748   3.561   5.599  0.1155 -0.2156  0.0037
  765POPS   GL111329  17.624   3.382   6.019  0.1495 -0.0026  0.2661
  765POPS   GL211330  17.334   3.497   6.138  0.3765 -0.0998  0.1295
  765POPS   C1A11331  17.813   3.394   6.414  0.0813 -0.1406 -0.1420
  765POPS   D2A11332  17.968   3.526   6.768 -0.1319  0.3046  0.0442
  765POPS   C3A11333  18.231   3.296   6.972 -0.1523 -0.1149 -0.1957
  765POPS   C4A11334  18.339   3.030   7.319 -0.0337  0.3497 -0.0563
  765POPS   C1B11335  17.427   3.597   6.583  0.1448  0.1081  0.3576
  765POPS   C2B11336  17.652   3.885   6.873  0.0952  0.0907  0.0765
  765POPS   C3B11337  17.687   4.119   7.120 -0.0392  0.0602 -0.1010
  765POPS   C4B11338  17.834   4.156   7.465  0.1151 -0.2180  0.1001
  766POPS   CNO11339   6.308   4.777   5.723  0.1926 -0.0315  0.1991
  766POPS   PO411340   6.571   4.634   5.855  0.0707  0.3182 -0.1669
  766POPS   GL111341   6.578   4.774   6.249 -0.0278 -0.0633  0.3594
  766POPS   GL211342   6.956   4.691   6.442 -0.2096 -0.1036 -0.1370
  766POPS   C1A11343   6.680   4.860   6.790  0.0952 -0.3360  0.3123
  766POPS   D2A11344   6.821   4.946   7.200 -0.4355  0.1714  0.1189
  766POPS   C3A11345   6.523   5.032   7.573 -0.2532 -0.2931 -0.0098
  766POPS   C4A11346   6.323   4.956   8.021 -0.4246  0.1416  0.0968
  766POPS   C1B11347   6.959   4.402   6.765  0.0069  0.1890 -0.0465
  766POPS   C2B11348   6.660   4.495   7.114  0.0579  0.0802 -0.0326
  766POPS   C3B11349   6.619   4.481   7.527 -0.2768 -0.4006  0.1737
  766POPS   C4B11350   6.430   4.459   7.828 -0.0186 -0.1980  0.2445
  767POPS   CNO11351   3.849  10.529   5.482 -0.1494 -0.3347  0.0962
  767POPS   PO411352   3.633  10.079   5.432  0.1441  0.0555  0.1806
  767POPS   GL111353   3.755  10.213   5.872  0.0770  0.0051  0.2833
  767POPS   GL211354   3.514  10.203   6.008  0.1482 -0.1434  0.1277
  767POPS   C1A11355   4.064  10.176   6.238  0.2549 -0.1396 -0.0916
  767POPS   D2A11356   4.146  10.341   6.565  0.1904 -0.2966 -0.0609
  767POPS   C3A11357   4.004  10.442   7.001 -0.1641 -0.1517  0.0311
  767POPS   C4A11358   4.057  10.478   7.407 -0.0487 -0.3118 -0.3204
  767POPS   C1B11359   3.318  10.639   6.021 -0.0034  0.0867 -0.0311
  767POPS   C2B11360   3.370  11.050   6.170 -0.1897 -0.5641 -0.1267
  767POPS   C3B11361   3.345  11.146   6.578 -0.3582  0.0957 -0.0911
  767POPS   C4B11362   3.285  11.289   7.073 -0.1774 -0.1428 -0.1898
  768POPS   CNO11363   8.047   2.120   5.777 -0.0088 -0.3556 -0.2536
  768POPS   PO411364   8.431   1.979   5.976  0.5282  0.0512  0.0386
  768POPS   GL111365   8.570   1.823   6.389 -0.4519  0.0199  0.2225
  768POPS   GL211366   8.370   2.005   6.586  0.0365  0.0646  0.0738
  768POPS   C1A11367   8.712   1.523   6.588  0.2195 -0.1142  0.2031
  768POPS   D2A11368   8.870   1.178   6.539 -0.5075 -0.0224  0.0892
  768POPS   C3A11369   8.738   0.892   6.705  0.2096 -0.0186  0.0887
  768POPS   C4A11370   8.314   0.754   6.599 -0.0224 -0.0031  0.1022
  768POPS   C1B11371   8.457   1.909   6.991 -0.1918 -0.0295  0.1461
  768POPS   C2B11372   8.620   1.646   7.367 -0.3518  0.0353  0.0592
  768POPS   C3B11373   8.725   1.407   7.853 -0.2110 -0.2154  0.0070
  768POPS   C4B11374   8.592   0.964   7.937 -0.2649 -0.0193  0.0542
  769POPS   CNO11375   6.430  15.336   6.171 -0.4837  0.1044 -0.3535
  769POPS   PO411376   5.991  15.178   5.921  0.2514 -0.0813 -0.2931
  769POPS   GL111377   6.019  14.920   6.168  0.3261 -0.0407  0.2630
  769POPS   GL211378   5.777  14.562   6.256 -0.2469 -0.0481 -0.0387
  769POPS   C1A11379   5.966  14.880   6.562  0.0333  0.0517  0.0317
  769POPS   D2A11380   5.816  14.884   6.916 -0.0209 -0.2021 -0.1171
  769POPS   C3A11381   5.594  14.731   7.275 -0.2514 -0.1192 -0.0260
  769POPS   C4A11382   5.382  14.504   7.514  0.0542  0.2271  0.0362
  769POPS   C1B11383   5.571  14.530   6.701  0.1426 -0.1181 -0.0625
  769POPS   C2B11384   5.468  14.289   7.053 -0.1351  0.0919 -0.0722
  769POPS   C3B11385   5.479  13.991   7.325  0.0497  0.0890  0.0300
  769POPS   C4B11386   5.580  13.825   7.814 -0.1382 -0.1392  0.1876
  770POPS   CNO11387   4.988   8.035   5.740 -0.2354  0.0143  0.0299
  770POPS   PO411388   5.092   7.564   5.660 -0.1433  0.0853  0.2892
  770POPS   GL111389   5.252   7.409   6.006 -0.2576  0.0878  0.1887
  770POPS   GL211390   5.604   7.451   6.053  0.0545 -0.2334  0.0409
  770POPS   C1A11391   5.084   7.194   6.396 -0.1644  0.2467  0.0837
  770POPS   D2A11392   4.798   7.193   6.773 -0.0206 -0.0714 -0.0922
  770POPS   C3A11393   4.313   7.234   6.756  0.1186  0.0657 -0.0258
  770POPS   C4A11394   3.991   7.278   6.841  0.0341 -0.0059 -0.1691
  770POPS   C1B11395   5.543   7.448   6.489  0.1108 -0.0969 -0.0556
  770POPS   C2B11396   5.341   7.310   6.836  0.1044  0.0356  0.0462
  770POPS   C3B11397   5.426   7.280   7.282 -0.1135 -0.1828 -0.1349
  770POPS   C4B11398   5.297   7.386   7.677  0.0256 -0.2198 -0.0849
  771POPS   CNO11399  13.696   0.672   5.624 -0.2815  0.2649  0.1118
  771POPS   PO411400  13.880   0.298   5.729  0.0185 -0.0422  0.0115
  771POPS   GL111401  13.810   0.514   6.141  0.0091 -0.2800 -0.0135
  771POPS   GL211402  13.544   0.749   6.142  0.0001  0.0970  0.3649
  771POPS   C1A11403  13.742   0.375   6.572 -0.3235 -0.0479 -0.0995
  771POPS   D2A11404  13.557   0.555   6.950  0.0682 -0.0521 -0.2744
  771POPS   C3A11405  13.454   0.397   7.252  0.2608  0.1648 -0.1255
  771POPS   C4A11406  13.687   0.148   7.644  0.0523 -0.3702 -0.1227
  771POPS   C1B11407  13.420   0.920   6.532  0.4303  0.2435 -0.0362
  771POPS   C2B11408  13.257   0.992   6.850  0.2601 -0.0690 -0.1868
  771POPS   C3B11409  13.171   0.797   7.255  0.1987  0.0553 -0.0109
  771POPS   C4B11410  13.265   0.913   7.597  0.0170  0.0260 -0.0808
  772POPS   CNO11411  13.810  10.777   5.392 -0.1796 -0.0822  0.1828
  772POPS   PO411412  13.554  10.945   5.750  0.0538  0.1187 -0.0155
  772POPS   GL111413  13.562  10.863   6.206  0.2161  0.1857 -0.7964
  772POPS   GL211414  13.595  11.133   6.511  0.2461  0.1877 -0.3093
  772POPS   C1A11415  13.330  10.633   6.398  0.0059  0.2208  0.1171
  772POPS   D2A11416  13.109  10.507   6.866 -0.1282  0.0352  0.0071
  772POPS   C3A11417  12.907  10.773   7.091  0.4362  0.1890  0.0780
  772POPS   C4A11418  12.818  11.058   7.425  0.1172 -0.0764 -0.1302
  772POPS   C1B11419  13.852  11.230   6.741  0.1803 -0.0373 -0.1896
  772POPS   C2B11420  14.118  11.469   6.913 -0.0083 -0.0679  0.1340
  772POPS   C3B11421  14.300  11.867   7.114 -0.0193 -0.1272 -0.0141
  772POPS   C4B11422  14.480  12.163   7.350  0.0030  0.0346  0.1138
  773POPS   CNO11423   4.570   5.144   5.384  0.0492 -0.0457  0.1725
  773POPS   PO411424   4.692   4.719   5.563  0.1629 -0.5924 -0.0750
  773POPS   GL111425   4.611   4.748   5.930  0.1647 -0.0371  0.0424
  773POPS   GL211426   4.424   5.049   5.971  0.2197  0.1201  0.1418
  773POPS   C1A11427   4.832   4.705   6.322 -0.1246 -0.0573 -0.0506
  773POPS   D2A11428   5.110   4.702   6.698 -0.0601 -0.1254  0.1071
  773POPS   C3A11429   4.874   4.526   7.058 -0.2855 -0.1043  0.2577
  773POPS   C4A11430   4.835   4.497   7.466 -0.1732  0.0722  0.4414
  773POPS   C1B11431   4.501   5.197   6.416  0.1208 -0.1795  0.1157
  773POPS   C2B11432   4.458   5.457   6.705 -0.1249 -0.0749  0.1207
  773POPS   C3B11433   4.531   5.465   7.150  0.2073  0.1409 -0.0608
  773POPS   C4B11434   4.658   5.535   7.578  0.1703  0.0299 -0.2972
  774POPS   CNO11435  12.419  14.139   5.256  0.3098  0.0445 -0.2308
  774POPS   PO411436  12.559  13.862   5.497  0.3923 -0.0898  0.0536
  774POPS   GL111437  12.649  13.985   5.930 -0.1338 -0.1100 -0.1294
  774POPS   GL211438  12.929  13.805   5.987  0.0972  0.0988  0.3233
  774POPS   C1A11439  12.597  14.111   6.381  0.4673  0.2090  0.3021
  774POPS   D2A11440  12.483  14.009   6.842  0.2187 -0.3580  0.2093
  774POPS   C3A11441  12.565  14.018   7.217  0.1141 -0.2987  0.3797
  774POPS   C4A11442  12.933  13.878   7.495  0.1561  0.0296 -0.3427
  774POPS   C1B11443  13.066  13.938   6.394 -0.1145  0.0019  0.1521
  774POPS   C2B11444  13.051  14.050   6.887 -0.0739 -0.0339  0.2038
  774POPS   C3B11445  13.331  14.146   7.186  0.3209 -0.0162 -0.0253
  774POPS   C4B11446  13.195  14.267   7.625  0.0909  0.3485 -0.4556
  775POPS   CNO11447   0.606  15.449   5.328 -0.0524 -0.2017  0.3798
  775POPS   PO411448   0.685  15.176   5.598 -0.1888  0.2745  0.0948
  775POPS   GL111449   0.446  15.283   5.950  0.0843  0.3640  0.2990
  775POPS   GL211450   0.315  14.936   5.976 -0.0461 -0.1019  0.1979
  775POPS   C1A11451   0.488  15.207   6.355 -0.3095 -0.1807 -0.1256
  775POPS   D2A11452   0.654  15.382   6.739 -0.1503  0.0437  0.0004
  775POPS   C3A11453   0.587  15.599   7.042  0.1454  0.2396 -0.1174
  775POPS   C4A11454   0.317  15.717   7.458  0.0338 -0.1136 -0.0299
  775POPS   C1B11455   0.296  14.673   6.291  0.1683  0.3396 -0.3266
  775POPS   C2B11456   0.128  14.612   6.681  0.0474  0.0936 -0.1153
  775POPS   C3B11457   0.260  14.392   7.083  0.0456  0.1047  0.0248
  775POPS   C4B11458   0.529  14.240   7.390 -0.1350 -0.1656 -0.0078
  776POPS   CNO11459   0.130   3.775   5.254 -0.4517  0.0550 -0.2272
  776POPS   PO411460   0.557   3.924   5.212  0.5348  0.1117 -0.0870
  776POPS   GL111461   0.845   3.653   5.538 -0.1818  0.0258 -0.0984
  776POPS   GL211462   1.108   3.680   5.643 -0.2524  0.2098  0.4452
  776POPS   C1A11463   0.739   3.370   5.837  0.0767  0.1404  0.0946
  776POPS   D2A11464   0.692   3.099   6.154 -0.0467 -0.1111  0.1651
  776POPS   C3A11465   0.560   2.682   6.213 -0.1769  0.1052  0.2040
  776POPS   C4A11466   0.434   2.310   6.339  0.2811 -0.0486 -0.0317
  776POPS   C1B11467   0.975   3.815   6.102  0.1221  0.0301 -0.0201
  776POPS   C2B11468   1.022   3.887   6.530 -0.0282 -0.1715  0.1857
  776POPS   C3B11469   0.972   4.154   6.976  0.0472 -0.0038  0.1038
  776POPS   C4B11470   0.910   4.220   7.402  0.1799 -0.0198 -0.0280
  777POPS   CNO11471   3.459  15.826   5.533  0.2820 -0.0085  0.2326
  777POPS   PO411472   3.294  16.068   5.302  0.1402  0.3035  0.0341
  777POPS   GL111473   3.248  16.335   5.715 -0.0842 -0.2015  0.2810
  777POPS   GL211474   3.549  16.184   5.902  0.2917 -0.0376 -0.4365
  777POPS   C1A11475   3.383  16.643   6.110 -0.0857 -0.1908 -0.0425
  777POPS   D2A11476   3.622  16.982   6.356  0.0884 -0.0461  0.0558
  777POPS   C3A11477   3.312  17.373   6.438  0.0446 -0.0135  0.0780
  777POPS   C4A11478   3.427  17.826   6.561  0.0827  0.2392 -0.0762
  777POPS   C1B11479   3.674  16.307   6.295 -0.0501  0.2544  0.0481
  777POPS   C2B11480   3.550  16.589   6.678 -0.1548  0.0816 -0.1291
  777POPS   C3B11481   3.510  16.497   7.089 -0.2139  0.0922 -0.3195
  777POPS   C4B11482   3.383  16.125   7.369  0.1346  0.0416  0.0144
  778POPS   CNO11483   3.129   0.999   5.505  0.1694  0.2488  0.1748
  778POPS   PO411484   3.220   1.372   5.818  0.0415 -0.2821  0.1383
  778POPS   GL111485   3.096   1.463   6.195  0.0351  0.0238 -0.0721
  778POPS   GL211486   2.901   1.717   6.086  0.0912 -0.0688  0.4021
  778POPS   C1A11487   3.165   1.510   6.704 -0.3210  0.1636  0.0346
  778POPS   D2A11488   3.026   1.398   7.015  0.1993 -0.0926 -0.0704
  778POPS   C3A11489   3.135   1.414   7.407 -0.2043  0.0189 -0.0466
  778POPS   C4A11490   3.434   1.164   7.795  0.3001  0.0740 -0.0678
  778POPS   C1B11491   2.743   1.664   6.502  0.1034 -0.0588 -0.0557
  778POPS   C2B11492   2.527   1.522   6.984 -0.0652  0.0663 -0.1074
  778POPS   C3B11493   2.640   1.440   7.412 -0.0990  0.0290 -0.0011
  778POPS   C4B11494   2.942   1.219   7.833  0.2603  0.1949  0.1512
  779POPS   CNO11495  11.230   8.261   5.532  0.1114  0.2790 -0.3588
  779POPS   PO411496  11.027   8.602   5.756  0.1602  0.0579  0.0094
  779POPS   GL111497  11.115   8.486   6.109 -0.2036 -0.2702 -0.1175
  779POPS   GL211498  11.258   8.762   6.328  0.1277  0.0164 -0.1598
  779POPS   C1A11499  11.022   8.457   6.572 -0.0182 -0.2266  0.1309
  779POPS   D2A11500  11.435   8.408   6.916 -0.1797 -0.1556  0.1064
  779POPS   C3A11501  11.312   8.422   7.345 -0.0297 -0.3105  0.3717
  779POPS   C4A11502  11.235   8.507   7.746 -0.1547  0.2176 -0.4380
  779POPS   C1B11503  11.465   8.836   6.688 -0.0796 -0.0972 -0.4785
  779POPS   C2B11504  11.465   8.889   7.129  0.1228 -0.0545 -0.1282
  779POPS   C3B11505  11.603   8.906   7.639 -0.1390  0.3330 -0.3524
  779POPS   C4B11506  11.564   9.027   8.191  0.0867 -0.1096 -0.0522
  780POPS   CNO11507  17.789  15.700   5.666 -0.3506  0.0794 -0.1562
  780POPS   PO411508  18.044  15.737   5.947 -0.0091 -0.0615  0.0079
  780POPS   GL111509  17.879  15.881   6.263 -0.1050  0.0849  0.0393
  780POPS   GL211510  17.661  16.088   6.111 -0.1729  0.4072 -0.0297
  780POPS   C1A11511  17.847  15.720   6.748 -0.1517 -0.0272  0.1411
  780POPS   D2A11512  17.965  15.926   7.171 -0.2039 -0.2281  0.1918
  780POPS   C3A11513  18.313  15.692   7.366  0.0777 -0.2720  0.2036
  780POPS   C4A11514  18.414  15.557   7.837 -0.0277  0.0751 -0.5570
  780POPS   C1B11515  17.470  15.974   6.535 -0.2795 -0.0941 -0.2081
  780POPS   C2B11516  17.536  16.056   7.012  0.0672 -0.0692 -0.0668
  780POPS   C3B11517  17.367  16.120   7.412  0.0256 -0.1783 -0.1216
  780POPS   C4B11518  17.339  16.232   7.862  0.2003  0.0986 -0.0939
  781POPS   CNO11519   4.768   5.902   5.165 -0.1680 -0.2165  0.0110
  781POPS   PO411520   4.627   5.655   5.476  0.1517  0.3671 -0.1881
  781POPS   GL111521   4.493   5.754   5.904  0.0568 -0.1176 -0.0376
  781POPS   GL211522   4.603   6.096   6.012 -0.2663  0.0591 -0.2391
  781POPS   C1A11523   4.336   5.674   6.200 -0.1291 -0.0660  0.2635
  781POPS   D2A11524   4.394   5.912   6.511  0.1620  0.0369 -0.0923
  781POPS   C3A11525   4.362   5.871   6.968 -0.0144  0.0180  0.3015
  781POPS   C4A11526   4.610   5.992   7.260  0.1198  0.1168 -0.2699
  781POPS   C1B11527   4.724   6.282   6.438  0.1256 -0.0492 -0.0896
  781POPS   C2B11528   4.739   6.257   6.839  0.0400  0.0344 -0.0498
  781POPS   C3B11529   4.845   6.402   7.175  0.0252 -0.3448 -0.0468
  781POPS   C4B11530   5.035   6.100   7.447  0.1702  0.0378 -0.1303
  782POPS   CNO11531   4.699  12.208   5.570 -0.0456  0.1948 -0.1700
  782POPS   PO411532   4.607  11.875   5.852 -0.1542 -0.2050 -0.1961
  782POPS   GL111533   4.737  12.114   6.145  0.2748  0.1851  0.2025
  782POPS   GL211534   4.631  12.450   6.137 -0.1942  0.0258 -0.0175
  782POPS   C1A11535   4.649  11.972   6.640  0.1850  0.1825 -0.1566
  782POPS   D2A11536   4.694  11.857   7.157 -0.4547  0.0475  0.1308
  782POPS   C3A11537   4.817  11.784   7.505 -0.0841 -0.1769 -0.1617
  782POPS   C4A11538   4.729  11.676   7.981  0.0519  0.1616 -0.0455
  782POPS   C1B11539   4.773  12.483   6.505  0.2819  0.1465 -0.0884
  782POPS   C2B11540   4.801  12.317   6.967  0.0387  0.1344 -0.0791
  782POPS   C3B11541   4.929  12.288   7.415 -0.3708  0.3631  0.3476
  782POPS   C4B11542   4.915  12.654   7.616 -0.1403 -0.0194  0.2281
  783POPS   CNO11543   8.777  17.686   6.023  0.1132  0.1366  0.2353
  783POPS   PO411544   9.106  17.910   5.795  0.1987  0.0024 -0.4816
  783POPS   GL111545   9.072  17.939   6.351 -0.1071  0.1687 -0.0107
  783POPS   GL211546   8.672  18.020   6.396  0.4616 -0.0726 -0.0535
  783POPS   C1A11547   9.024  17.833   6.729  0.0541  0.0836 -0.4127
  783POPS   D2A11548   9.129  17.808   7.082  0.0873 -0.3021 -0.2672
  783POPS   C3A11549   9.097  17.954   7.501 -0.0048 -0.4179  0.3132
  783POPS   C4A11550   9.400  18.183   7.720  0.0059 -0.1346 -0.1407
  783POPS   C1B11551   8.560  18.091   6.864 -0.0863 -0.0596  0.1130
  783POPS   C2B11552   8.672  18.030   7.235  0.0199  0.2733 -0.3666
  783POPS   C3B11553   8.723  18.275   7.648  0.1135 -0.0020 -0.1741
  783POPS   C4B11554   8.504  18.367   7.911 -0.0157  0.0379 -0.2902
  784POPS   CNO11555   7.853  16.789   5.784  0.0249  0.1881 -0.2860
  784POPS   PO411556   8.167  17.083   6.083 -0.0413  0.1114 -0.2053
  784POPS   GL111557   8.380  17.209   6.463  0.3765  0.0248 -0.2784
  784POPS   GL211558   8.624  17.427   6.548 -0.0706  0.1535 -0.2995
  784POPS   C1A11559   8.361  17.139   6.924  0.0700 -0.0965  0.1968
  784POPS   D2A11560   8.303  17.159   7.362 -0.1475  0.3548 -0.1563
  784POPS   C3A11561   8.644  17.194   7.677  0.3545  0.3400 -0.1293
  784POPS   C4A11562   9.002  17.230   7.706 -0.3115  0.1495  0.0532
  784POPS   C1B11563   8.731  17.476   6.933  0.0443 -0.0421  0.4188
  784POPS   C2B11564   8.760  17.532   7.371 -0.0463 -0.2004  0.1270
  784POPS   C3B11565   8.463  17.674   7.620 -0.0132 -0.0309  0.3457
  784POPS   C4B11566   8.173  17.926   7.910 -0.2580 -0.2382 -0.3818
  785POPS   CNO11567   7.865  14.278   5.826 -0.0603 -0.1344 -0.3334
  785POPS   PO411568   7.754  13.806   5.881 -0.1959 -0.4074 -0.1352
  785POPS   GL111569   7.738  13.664   6.338  0.0531 -0.0199  0.0679
  785POPS   GL211570   7.981  13.376   6.301 -0.1114  0.3713  0.0900
  785POPS   C1A11571   7.508  13.742   6.600 -0.1684  0.1124 -0.1467
  785POPS   D2A11572   7.396  13.549   6.908  0.2666  0.1690 -0.1587
  785POPS   C3A11573   7.254  13.633   7.285  0.0500  0.3832  0.0381
  785POPS   C4A11574   7.038  13.702   7.554  0.0809  0.2345 -0.1137
  785POPS   C1B11575   7.760  13.277   6.690  0.2687  0.1481 -0.2256
  785POPS   C2B11576   7.721  13.296   7.133  0.2090 -0.0039  0.0415
  785POPS   C3B11577   7.573  13.145   7.546 -0.1559  0.1219 -0.2962
  785POPS   C4B11578   7.806  13.199   7.980 -0.2335 -0.0087 -0.2023
  786POPS   CNO11579  11.734   4.363   6.132 -0.0279 -0.1855 -0.0422
  786POPS   PO411580  11.967   4.044   5.895  0.0169 -0.4588 -0.2148
  786POPS   GL111581  11.921   3.604   6.012 -0.0769 -0.1176 -0.1311
  786POPS   GL211582  11.681   3.650   5.915  0.2234 -0.1298  0.0195
  786POPS   C1A11583  11.996   3.418   6.419 -0.2683  0.1133  0.0656
  786POPS   D2A11584  11.927   3.521   6.889  0.0439  0.1724 -0.0385
  786POPS   C3A11585  11.720   3.556   7.249 -0.1185 -0.1695  0.0710
  786POPS   C4A11586  11.676   3.670   7.633  0.0099  0.1142 -0.0692
  786POPS   C1B11587  11.520   3.555   6.394  0.2760  0.1480  0.3057
  786POPS   C2B11588  11.373   3.516   6.790  0.1313 -0.1985 -0.0735
  786POPS   C3B11589  11.231   3.520   7.222  0.3038  0.1194  0.1085
  786POPS   C4B11590  11.041   3.632   7.592 -0.1060 -0.0399 -0.0841
  787POPS   CNO11591   0.808   5.314   5.234  0.0734 -0.0917  0.0583
  787POPS   PO411592   0.737   5.044   5.578 -0.1370 -0.1859 -0.1048
  787POPS   GL111593   1.129   5.201   5.710 -0.1821  0.1222  0.1286
  787POPS   GL211594   1.372   5.047   5.879 -0.2073 -0.1372 -0.0457
  787POPS   C1A11595   1.307   5.572   5.919  0.0752 -0.3866  0.0097
  787POPS   D2A11596   1.063   5.998   5.906 -0.2347  0.2373 -0.0329
  787POPS   C3A11597   1.104   6.277   6.292  0.1582  0.0153 -0.0665
  787POPS   C4A11598   1.053   6.190   6.706  0.0529 -0.0322  0.0424
  787POPS   C1B11599   1.209   5.183   6.315 -0.0020  0.1371 -0.0424
  787POPS   C2B11600   1.148   5.225   6.830  0.3323 -0.0954  0.2305
  787POPS   C3B11601   1.497   5.385   7.179  0.0221 -0.2316 -0.0411
  787POPS   C4B11602   1.486   5.644   7.498  0.2073 -0.2790 -0.2350
  788POPS   CNO11603   5.823   5.207   4.932 -0.2106  0.1160  0.5078
  788POPS   PO411604   6.091   5.471   5.233 -0.0498  0.1134 -0.0234
  788POPS   GL111605   6.189   5.695   5.691  0.4700  0.4037  0.1481
  788POPS   GL211606   6.383   5.886   5.687 -0.0580  0.0693 -0.0401
  788POPS   C1A11607   6.143   5.799   6.088 -0.1433  0.0083 -0.1462
  788POPS   D2A11608   6.192   5.911   6.485  0.0749  0.1679  0.2427
  788POPS   C3A11609   6.216   5.753   6.901 -0.0806 -0.3940  0.0273
  788POPS   C4A11610   6.454   5.593   7.313  0.0324 -0.3262 -0.1297
  788POPS   C1B11611   6.648   5.893   5.986 -0.0398 -0.0880 -0.1670
  788POPS   C2B11612   6.645   5.766   6.316 -0.0598 -0.0625 -0.2213
  788POPS   C3B11613   6.750   5.961   6.706  0.2082  0.3511 -0.1029
  788POPS   C4B11614   6.871   5.904   7.066  0.2437  0.2087  0.1507
  789POPS   CNO11615   8.971  11.920   6.084 -0.1923  0.0749  0.0133
  789POPS   PO411616   8.923  12.296   6.079  0.0524  0.0147 -0.0409
  789POPS   GL111617   8.938  12.423   6.434  0.0946 -0.0272  0.0473
  789POPS   GL211618   8.623  12.496   6.714 -0.0615  0.2305 -0.0151
  789POPS   C1A11619   9.197  12.416   6.790 -0.0258 -0.4508 -0.2660
  789POPS   D2A11620   9.236  12.392   7.158 -0.4286  0.0145  0.1211
  789POPS   C3A11621   8.886  12.614   7.294  0.0106  0.0659  0.1755
  789POPS   C4A11622   8.814  12.791   7.591 -0.1005  0.1808 -0.2343
  789POPS   C1B11623   8.531  12.305   7.112 -0.0400  0.2217 -0.1518
  789POPS   C2B11624   8.436  12.113   7.543  0.2923 -0.1490 -0.0045
  789POPS   C3B11625   8.487  11.983   7.927  0.1280  0.0194  0.0516
  789POPS   C4B11626   8.804  11.720   7.854  0.2712 -0.4737 -0.2714
  790POPS   CNO11627   9.145   0.431   5.936  0.0109  0.0700 -0.0410
  790POPS   PO411628   9.306   0.009   5.806 -0.0611 -0.2524  0.0513
  790POPS   GL111629   9.559   0.168   6.111  0.0475  0.1774 -0.2631
  790POPS   GL211630   9.774   0.420   6.179 -0.2136 -0.0091 -0.3722
  790POPS   C1A11631   9.472  -0.024   6.514 -0.2496  0.2119 -0.1725
  790POPS   D2A11632   9.417  -0.385   6.824  0.1016 -0.1271  0.0843
  790POPS   C3A11633   9.457  -0.287   7.211  0.1247  0.1759 -0.1422
  790POPS   C4A11634   9.780  -0.115   7.482 -0.0044 -0.0893 -0.1510
  790POPS   C1B11635   9.733   0.530   6.521 -0.2112 -0.2030 -0.2208
  790POPS   C2B11636   9.888   0.545   6.898  0.0615  0.1005 -0.0465
  790POPS   C3B11637   9.813   0.456   7.382 -0.0015 -0.2351  0.1688
  790POPS   C4B11638   9.486   0.344   7.485  0.2758  0.0683 -0.2668
  791POPS   CNO11639  16.620   6.222   5.833 -0.4591 -0.3971  0.1580
  791POPS   PO411640  16.762   5.918   5.652 -0.2122  0.2063  0.0506
  791POPS   GL111641  17.081   5.798   5.980  0.1529  0.0835 -0.0355
  791POPS   GL211642  17.044   5.475   5.868 -0.0448 -0.2662  0.2009
  791POPS   C1A11643  17.228   5.704   6.393  0.0101  0.2315  0.0954
  791POPS   D2A11644  17.379   5.651   6.783 -0.1387  0.0052  0.0833
  791POPS   C3A11645  17.235   6.020   7.102 -0.0022  0.3256 -0.0142
  791POPS   C4A11646  17.126   6.421   7.154  0.1193 -0.0416  0.1482
  791POPS   C1B11647  16.979   5.231   6.225  0.1590  0.1744  0.1910
  791POPS   C2B11648  16.803   5.408   6.709  0.0043  0.0045  0.1668
  791POPS   C3B11649  16.980   5.558   7.056  0.0723  0.1379 -0.3273
  791POPS   C4B11650  17.289   5.482   7.451  0.1893 -0.1652 -0.1551
  792POPS   CNO11651   8.360   0.447   5.525  0.1739 -0.1794  0.1330
  792POPS   PO411652   8.041   0.634   5.527 -0.0449  0.1641 -0.3146
  792POPS   GL111653   8.237   0.738   5.974 -0.3027 -0.0416 -0.2727
  792POPS   GL211654   8.201   1.001   6.112 -0.1677 -0.3296  0.3440
  792POPS   C1A11655   8.667   0.693   6.197  0.0301  0.0338 -0.0614
  792POPS   D2A11656   8.665   0.418   6.544 -0.0535 -0.2281  0.1746
  792POPS   C3A11657   8.488   0.132   6.753 -0.2234  0.3399 -0.1503
  792POPS   C4A11658   8.430  -0.023   7.230  0.0071 -0.0081 -0.0520
  792POPS   C1B11659   8.353   1.233   6.506  0.0564  0.1655  0.1370
  792POPS   C2B11660   8.504   1.301   6.983 -0.1300 -0.0505  0.0361
  792POPS   C3B11661   8.689   1.104   7.414  0.1995  0.0127  0.1046
  792POPS   C4B11662   9.035   1.168   7.533  0.0254  0.2578 -0.1325
  793POPS   CNO11663  13.756  17.887   5.790 -0.0551 -0.2329  0.2331
  793POPS   PO411664  13.438  17.559   5.642 -0.1651 -0.3378  0.2436
  793POPS   GL111665  13.256  17.361   6.012  0.1864  0.3825  0.1174
  793POPS   GL211666  12.983  17.519   6.235  0.0904  0.3301 -0.0595
  793POPS   C1A11667  13.361  17.153   6.403  0.2994  0.1870  0.0895
  793POPS   D2A11668  13.103  17.115   6.791  0.2093  0.0444 -0.1292
  793POPS   C3A11669  12.998  16.631   6.987 -0.2898  0.2110  0.0216
  793POPS   C4A11670  12.817  16.526   7.382  0.2391  0.0896  0.1345
  793POPS   C1B11671  12.810  17.497   6.690 -0.3779  0.3311  0.0872
  793POPS   C2B11672  12.818  17.423   7.074  0.0115 -0.1611 -0.2180
  793POPS   C3B11673  12.831  17.449   7.482  0.0950 -0.3818  0.1371
  793POPS   C4B11674  13.020  17.650   7.844  0.1576  0.1376  0.3743
  794POPS   CNO11675  16.771  16.761   5.472 -0.0482  0.1251 -0.3586
  794POPS   PO411676  17.152  16.911   5.706 -0.2672 -0.0589 -0.5949
  794POPS   GL111677  17.155  16.945   6.113  0.1921 -0.3964 -0.0662
  794POPS   GL211678  17.109  16.633   6.191  0.2914  0.0264  0.0379
  794POPS   C1A11679  17.174  16.934   6.609 -0.0568  0.1160 -0.0237
  794POPS   D2A11680  17.185  16.940   7.066 -0.0467  0.1851 -0.2189
  794POPS   C3A11681  16.858  17.063   7.424  0.2929  0.0127  0.0672
  794POPS   C4A11682  16.537  16.938   7.632 -0.0649 -0.1662 -0.0004
  794POPS   C1B11683  17.140  16.466   6.624  0.0476 -0.0010 -0.1071
  794POPS   C2B11684  16.994  16.530   6.977 -0.0467 -0.2000 -0.2627
  794POPS   C3B11685  16.667  16.554   7.357 -0.0366  0.1850  0.2882
  794POPS   C4B11686  16.413  16.309   7.683  0.1586 -0.0752 -0.1628
  795POPS   CNO11687   5.494   6.036   5.354  0.2221  0.1641 -0.0524
  795POPS   PO411688   5.472   6.394   5.560 -0.2399  0.0893  0.0264
  795POPS   GL111689   5.396   6.233   5.914 -0.0605 -0.2134 -0.0590
  795POPS   GL211690   5.190   6.344   6.074  0.1467  0.0278 -0.0297
  795POPS   C1A11691   5.663   5.901   6.257 -0.0805 -0.0944  0.5736
  795POPS   D2A11692   5.512   5.683   6.549  0.2038 -0.0029  0.1515
  795POPS   C3A11693   5.657   5.835   6.927  0.3422  0.0392  0.1474
  795POPS   C4A11694   5.493   5.854   7.351  0.0467  0.0912  0.4122
  795POPS   C1B11695   5.339   6.271   6.483  0.0565  0.0516 -0.0618
  795POPS   C2B11696   5.333   6.299   6.953 -0.0712 -0.2581  0.2566
  795POPS   C3B11697   5.422   6.440   7.321  0.1814  0.0577  0.4060
  795POPS   C4B11698   5.364   6.392   7.808  0.1478  0.2587  0.0845
  796POPS   CNO11699  16.377  11.522   5.335  0.1071 -0.0467  0.0329
  796POPS   PO411700  16.200  11.741   5.684 -0.1825  0.0193 -0.2603
  796POPS   GL111701  16.017  11.624   6.050  0.5395  0.0196 -0.0663
  796POPS   GL211702  16.324  11.344   6.073  0.0014  0.2513 -0.1571
  796POPS   C1A11703  16.146  11.644   6.494 -0.1692  0.0059  0.0810
  796POPS   D2A11704  16.265  11.786   6.811  0.0554  0.1207 -0.2794
  796POPS   C3A11705  15.952  11.749   7.194 -0.0138 -0.1469  0.0374
  796POPS   C4A11706  15.765  11.510   7.512  0.1455  0.2283 -0.0017
  796POPS   C1B11707  16.359  11.229   6.464 -0.0902 -0.2577 -0.0294
  796POPS   C2B11708  16.580  11.359   6.803 -0.2212  0.2234 -0.0344
  796POPS   C3B11709  16.383  11.457   7.166  0.0526 -0.1166  0.1603
  796POPS   C4B11710  16.277  11.758   7.575 -0.1694  0.0219 -0.3650
  797POPS   CNO11711  18.133  14.510   5.234 -0.1236 -0.1650 -0.0019
  797POPS   PO411712  18.619  14.641   5.484  0.1817 -0.3342  0.1741
  797POPS   GL111713  18.422  14.549   5.899 -0.0206  0.0248  0.1119
  797POPS   GL211714  18.212  14.808   6.195  0.1772 -0.0176  0.0305
  797POPS   C1A11715  18.337  14.341   6.354  0.1827 -0.0049 -0.0401
  797POPS   D2A11716  18.433  14.131   6.700 -0.2190 -0.1158 -0.0216
  797POPS   C3A11717  18.241  14.180   7.087 -0.0249  0.3395  0.0348
  797POPS   C4A11718  18.513  14.091   7.459 -0.0595  0.2195  0.2134
  797POPS   C1B11719  18.021  15.100   6.536 -0.3339  0.0059 -0.2415
  797POPS   C2B11720  18.084  15.340   7.003 -0.4740 -0.1467  0.1867
  797POPS   C3B11721  18.213  15.148   7.360  0.0686  0.3544 -0.1081
  797POPS   C4B11722  18.080  15.135   7.751  0.0348 -0.1040  0.0700
  798POPS   CNO11723  15.383  18.060   5.736 -0.0797 -0.0315 -0.1464
  798POPS   PO411724  15.072  18.053   6.091 -0.0016  0.0575  0.0146
  798POPS   GL111725  14.818  18.191   6.422  0.0638  0.2385  0.3735
  798POPS   GL211726  14.454  18.101   6.508  0.0171  0.0715  0.0627
  798POPS   C1A11727  14.782  18.154   6.886 -0.2973  0.1801  0.1515
  798POPS   D2A11728  14.659  18.126   7.282 -0.2111 -0.0207  0.1071
  798POPS   C3A11729  14.250  17.919   7.500  0.0502 -0.2315 -0.2223
  798POPS   C4A11730  13.769  18.015   7.541  0.0177 -0.0219  0.2229
  798POPS   C1B11731  14.383  18.418   6.880  0.3710  0.1528  0.2414
  798POPS   C2B11732  14.416  18.762   7.097  0.1303 -0.1328 -0.0703
  798POPS   C3B11733  14.482  19.023   7.486  0.2167 -0.1017  0.4446
  798POPS   C4B11734  14.186  19.275   7.780  0.4441 -0.3219 -0.0011
  799POPS   CNO11735   8.720   5.190   5.641  0.1002  0.1625 -0.1408
  799POPS   PO411736   8.991   5.532   5.515  0.0815 -0.2349 -0.0891
  799POPS   GL111737   9.032   5.497   5.921 -0.0107  0.1373 -0.0156
  799POPS   GL211738   9.222   5.792   5.994  0.0245  0.2487  0.0142
  799POPS   C1A11739   9.195   5.526   6.388 -0.0118 -0.4292 -0.0210
  799POPS   D2A11740   9.267   5.652   6.748  0.1384 -0.0088  0.0843
  799POPS   C3A11741   9.472   6.025   6.776  0.3004 -0.0594 -0.0554
  799POPS   C4A11742   9.410   6.334   7.041 -0.3436  0.0856 -0.2825
  799POPS   C1B11743   9.143   6.067   6.409  0.1167 -0.0814  0.2333
  799POPS   C2B11744   8.907   6.279   6.841 -0.3012 -0.0278 -0.2686
  799POPS   C3B11745   8.750   6.214   7.263  0.0662 -0.2325 -0.0291
  799POPS   C4B11746   8.724   5.945   7.538  0.0055 -0.0880  0.0217
  800POPS   CNO11747   5.955   5.997   5.283 -0.3204  0.3687 -0.1850
  800POPS   PO411748   6.168   6.426   5.152  0.0047 -0.2020 -0.1593
  800POPS   GL111749   6.084   6.385   5.715 -0.0529 -0.1165  0.0834
  800POPS   GL211750   5.869   6.533   5.867  0.0866  0.1117 -0.0272
  800POPS   C1A11751   6.257   6.341   6.141  0.0568  0.1594  0.0443
  800POPS   D2A11752   6.579   6.245   6.351  0.1900  0.2207 -0.1154
  800POPS   C3A11753   6.628   6.641   6.565 -0.0413 -0.1521 -0.3094
  800POPS   C4A11754   6.813   7.004   6.887  0.0625 -0.0286  0.1379
  800POPS   C1B11755   5.791   6.394   6.240 -0.0803 -0.1714  0.0483
  800POPS   C2B11756   5.810   6.329   6.761 -0.0445  0.1246 -0.1944
  800POPS   C3B11757   5.906   6.275   7.113 -0.6340 -0.0018  0.0465
  800POPS   C4B11758   5.798   6.168   7.566 -0.1193  0.0444 -0.1580
  801POPS   CNO11759   2.355  16.823   5.660 -0.1256  0.0254  0.0275
  801POPS   PO411760   2.043  17.042   5.675 -0.0837 -0.2498 -0.1955
  801POPS   GL111761   2.069  17.112   6.095 -0.0834 -0.0605  0.3572
  801POPS   GL211762   1.980  17.038   6.338  0.2334 -0.0800  0.1087
  801POPS   C1A11763   2.400  17.270   6.391  0.1059  0.0965 -0.2901
  801POPS   D2A11764   2.421  17.512   6.804  0.1018 -0.0185 -0.1540
  801POPS   C3A11765   2.166  17.762   7.049  0.1847  0.4320  0.0380
  801POPS   C4A11766   1.832  17.624   7.187  0.0800 -0.3385  0.0194
  801POPS   C1B11767   1.846  17.295   6.685  0.3574 -0.0240  0.1929
  801POPS   C2B11768   1.991  17.199   7.010 -0.3796 -0.2792 -0.2454
  801POPS   C3B11769   2.074  16.998   7.345  0.0314 -0.1530  0.2480
  801POPS   C4B11770   2.063  17.026   7.771  0.2159  0.2008 -0.1152
  802POPS   CNO11771   6.523   0.418   5.698 -0.1041 -0.1053  0.1228
  802POPS   PO411772   6.512   0.666   6.099 -0.2095  0.1120  0.0668
  802POPS   GL111773   6.523   0.655   6.488  0.0223 -0.0306 -0.0007
  802POPS   GL211774   6.334   0.776   6.586 -0.2364  0.0682  0.1066
  802POPS   C1A11775   6.526   0.378   6.763  0.1127  0.0973 -0.2225
  802POPS   D2A11776   6.642   0.087   7.052  0.2241 -0.0498  0.0390
  802POPS   C3A11777   6.377  -0.040   7.374  0.2532  0.0288 -0.0667
  802POPS   C4A11778   6.235  -0.019   7.963 -0.1282 -0.2352 -0.0655
  802POPS   C1B11779   6.613   0.967   6.930  0.2492  0.0734 -0.0124
  802POPS   C2B11780   6.773   0.653   7.204  0.3508  0.0768 -0.2089
  802POPS   C3B11781   7.128   0.551   7.358  0.0054  0.0775 -0.0593
  802POPS   C4B11782   7.573   0.423   7.448 -0.3822 -0.0024 -0.0664
  803POPS   CNO11783   6.652  15.515   5.780 -0.0037 -0.1911  0.0532
  803POPS   PO411784   6.684  15.828   5.530 -0.0276 -0.0030 -0.1328
  803POPS   GL111785   6.560  15.944   6.088 -0.4897 -0.0275  0.1799
  803POPS   GL211786   6.894  15.922   6.205 -0.2106 -0.4018  0.1508
  803POPS   C1A11787   6.494  15.791   6.575 -0.2836 -0.1031 -0.2185
  803POPS   D2A11788   6.606  15.914   7.064 -0.0507 -0.1316 -0.0871
  803POPS   C3A11789   7.024  16.002   7.254  0.1990 -0.0127 -0.1138
  803POPS   C4A11790   7.371  15.850   7.397 -0.1013 -0.0536  0.1798
  803POPS   C1B11791   7.022  15.873   6.594 -0.1425  0.0408  0.0522
  803POPS   C2B11792   6.985  15.621   6.911  0.1955 -0.1356  0.0393
  803POPS   C3B11793   6.850  15.581   7.431  0.1567  0.2590  0.3361
  803POPS   C4B11794   7.049  15.739   7.767 -0.3118 -0.0956  0.1692
  804POPS   CNO11795  16.660   8.016   5.999 -0.2347  0.1654 -0.3394
  804POPS   PO411796  17.086   7.998   5.847 -0.0540  0.2852  0.2178
  804POPS   GL111797  17.176   8.286   6.106 -0.1517  0.2165  0.3209
  804POPS   GL211798  17.009   8.635   6.090  0.0667  0.2733  0.0392
  804POPS   C1A11799  17.190   8.435   6.537  0.1710 -0.0198  0.1178
  804POPS   D2A11800  16.941   8.674   6.763  0.0187 -0.1044 -0.2645
  804POPS   C3A11801  17.086   8.533   7.151  0.2487  0.2722  0.2071
  804POPS   C4A11802  17.159   8.257   7.421  0.0531 -0.1104 -0.0308
  804POPS   C1B11803  17.146   8.920   6.317  0.0897 -0.0149 -0.0957
  804POPS   C2B11804  17.119   9.140   6.647  0.0875 -0.3080  0.0673
  804POPS   C3B11805  17.011   9.096   7.024  0.1061  0.1277  0.1963
  804POPS   C4B11806  16.769   8.927   7.293 -0.0310  0.2994  0.0563
  805POPS   CNO11807   5.278   3.962   6.104  0.2350  0.0211  0.1324
  805POPS   PO411808   4.823   3.954   5.906  0.1424  0.1628  0.2561
  805POPS   GL111809   4.679   4.223   6.230  0.1660 -0.1307  0.0111
  805POPS   GL211810   4.358   4.262   6.116 -0.0215  0.2555  0.2364
  805POPS   C1A11811   4.717   4.330   6.623 -0.2237  0.3432 -0.1557
  805POPS   D2A11812   4.380   4.312   6.970  0.1035 -0.2689 -0.0627
  805POPS   C3A11813   4.334   4.499   7.350 -0.1000 -0.2334  0.1026
  805POPS   C4A11814   3.954   4.767   7.431  0.1545 -0.1818  0.0951
  805POPS   C1B11815   4.153   4.316   6.516  0.2196 -0.3571  0.2216
  805POPS   C2B11816   3.968   4.569   6.902 -0.0768  0.1150 -0.0548
  805POPS   C3B11817   3.624   4.537   7.172 -0.2148 -0.1905  0.1854
  805POPS   C4B11818   3.142   4.737   7.252 -0.0584  0.1038  0.2059
  806POPS   CNO11819   8.160   8.298   5.608 -0.1743 -0.2270  0.1094
  806POPS   PO411820   7.778   8.207   5.808  0.2362  0.2812 -0.1838
  806POPS   GL111821   7.584   8.405   6.120 -0.2688  0.0840  0.0116
  806POPS   GL211822   7.585   8.760   6.197  0.4832 -0.1969 -0.0388
  806POPS   C1A11823   7.254   8.368   6.475 -0.4668  0.1612 -0.1540
  806POPS   D2A11824   7.020   8.292   6.957  0.0159  0.0911 -0.0074
  806POPS   C3A11825   7.061   8.383   7.342 -0.0006  0.2599 -0.2006
  806POPS   C4A11826   7.134   8.298   7.706  0.0287  0.0353 -0.0327
  806POPS   C1B11827   7.742   8.640   6.567  0.0069 -0.1304 -0.1582
  806POPS   C2B11828   7.734   8.668   7.034 -0.2269  0.0851  0.1098
  806POPS   C3B11829   7.576   8.506   7.419 -0.1638 -0.0287  0.0158
  806POPS   C4B11830   7.738   8.430   7.868  0.1623 -0.0380  0.0125
  807POPS   CNO11831  15.590  12.990   5.537  0.0393 -0.2205 -0.3366
  807POPS   PO411832  15.208  12.885   5.563  0.2041 -0.1034  0.0475
  807POPS   GL111833  15.325  12.753   5.961 -0.0483 -0.1568  0.1702
  807POPS   GL211834  15.533  12.952   6.092 -0.0811 -0.1654 -0.0755
  807POPS   C1A11835  15.050  12.564   6.211  0.1691  0.0686 -0.0807
  807POPS   D2A11836  14.717  12.729   6.454  0.1581 -0.0984  0.0389
  807POPS   C3A11837  14.638  13.253   6.638 -0.3425 -0.1482 -0.3066
  807POPS   C4A11838  14.495  13.490   7.012  0.3408  0.1047 -0.2085
  807POPS   C1B11839  15.561  13.170   6.471 -0.1021 -0.1493 -0.0127
  807POPS   C2B11840  15.567  13.195   6.942  0.1091  0.0716  0.1691
  807POPS   C3B11841  15.490  13.034   7.242  0.1498  0.0587  0.2441
  807POPS   C4B11842  15.381  12.636   7.416  0.1745  0.0921  0.1459
  808POPS   CNO11843   6.942  17.133   5.383  0.0683  0.3614 -0.1039
  808POPS   PO411844   6.848  16.763   5.708 -0.0401  0.0083 -0.2546
  808POPS   GL111845   6.821  16.688   6.134 -0.0690 -0.0118  0.0308
  808POPS   GL211846   7.034  16.436   6.341  0.1061  0.0079 -0.0879
  808POPS   C1A11847   6.850  16.974   6.553 -0.1759  0.0531  0.1109
  808POPS   D2A11848   7.030  16.826   6.881  0.0319 -0.1284 -0.0012
  808POPS   C3A11849   6.935  17.088   7.171 -0.0056 -0.0423  0.1812
  808POPS   C4A11850   6.660  17.191   7.532  0.0078 -0.2884  0.0084
  808POPS   C1B11851   7.376  16.554   6.650  0.0750  0.1086 -0.2019
  808POPS   C2B11852   7.724  16.350   6.765  0.0402 -0.1581  0.2969
  808POPS   C3B11853   8.063  16.362   7.113 -0.0538  0.0998 -0.0314
  808POPS   C4B11854   8.475  16.144   7.038 -0.1689  0.2127 -0.0948
  809POPS   CNO11855   1.577  17.706   5.767 -0.1853 -0.0413 -0.0315
  809POPS   PO411856   1.175  17.454   5.926  0.0049 -0.0583  0.0675
  809POPS   GL111857   1.378  17.472   6.175 -0.3480  0.1019 -0.1165
  809POPS   GL211858   1.512  17.856   6.243  0.0736  0.0844  0.1181
  809POPS   C1A11859   1.394  17.448   6.651 -0.1086  0.0921 -0.1706
  809POPS   D2A11860   1.485  17.315   7.133  0.2956 -0.1469  0.2298
  809POPS   C3A11861   1.298  17.426   7.435 -0.0437 -0.2021  0.0084
  809POPS   C4A11862   1.241  17.171   7.712  0.2406 -0.1903  0.1349
  809POPS   C1B11863   1.415  17.984   6.602 -0.1680 -0.1186 -0.1018
  809POPS   C2B11864   1.382  17.913   7.030 -0.0058  0.1678  0.0962
  809POPS   C3B11865   1.507  17.886   7.434 -0.3980  0.0484  0.0942
  809POPS   C4B11866   1.509  18.194   7.660  0.0695  0.0330  0.0144
  810POPS   CNO11867  13.555  11.936   5.344  0.2670  0.2556 -0.0329
  810POPS   PO411868  13.380  11.681   5.590 -0.1388  0.0095  0.0070
  810POPS   GL111869  13.386  11.863   5.993  0.1346  0.0154  0.1055
  810POPS   GL211870  13.458  12.205   6.094  0.1995  0.1709  0.2785
  810POPS   C1A11871  13.473  11.826   6.422 -0.1954 -0.0832  0.2429
  810POPS   D2A11872  13.395  11.609   6.721 -0.1427 -0.0344 -0.1309
  810POPS   C3A11873  13.289  11.781   7.044  0.2188 -0.1864 -0.0986
  810POPS   C4A11874  13.123  12.062   7.337 -0.0442 -0.1800 -0.1443
  810POPS   C1B11875  13.522  12.350   6.411 -0.4020  0.0974 -0.0272
  810POPS   C2B11876  13.457  12.195   6.808  0.2705 -0.0949 -0.0923
  810POPS   C3B11877  13.518  12.378   7.246  0.3897  0.0869  0.0770
  810POPS   C4B11878  13.648  12.380   7.719  0.1463 -0.0376  0.3899
  811YOPS   CNO11879   3.868  12.372   5.403 -0.0332  0.0734  0.1427
  811YOPS   PO411880   3.804  12.359   5.836 -0.2480 -0.0561 -0.3410
  811YOPS   GL111881   3.915  12.338   6.195  0.1148 -0.0093 -0.0196
  811YOPS   GL211882   4.172  12.169   6.138  0.0320 -0.2072 -0.3078
  811YOPS   C1A11883   3.813  12.491   6.664 -0.2029 -0.1457  0.2143
  811YOPS   D2A11884   3.944  12.435   7.050 -0.0070 -0.1264 -0.2211
  811YOPS   C3A11885   4.440  12.422   7.277  0.3142 -0.0628 -0.1273
  811YOPS   C4A11886   4.472  12.182   7.654  0.0171  0.1526 -0.1827
  811YOPS   C1B11887   4.183  12.157   6.544 -0.0412  0.2372  0.0977
  811YOPS   C2B11888   4.277  12.113   6.922 -0.1686 -0.2431  0.2664
  811YOPS   D3B11889   4.094  12.029   7.297 -0.1372  0.1084  0.3217
  811YOPS   C4B11890   4.000  12.333   7.568  0.0648 -0.1674  0.0454
  812YOPS   CNO11891  17.519   7.615   5.490 -0.3823  0.0462 -0.2991
  812YOPS   PO411892  17.507   7.562   5.887  0.0829  0.0985 -0.0201
  812YOPS   GL111893  17.807   7.671   6.183 -0.0697 -0.1263 -0.0814
  812YOPS   GL211894  17.849   7.423   6.279  0.1330  0.0925  0.1328
  812YOPS   C1A11895  17.921   7.870   6.668 -0.2019 -0.0728  0.0513
  812YOPS   D2A11896  17.954   7.997   7.061  0.1487  0.1327  0.0690
  812YOPS   C3A11897  17.724   7.954   7.475 -0.2804  0.0553 -0.3080
  812YOPS   C4A11898  17.753   7.896   7.939 -0.1027 -0.0156 -0.2228
  812YOPS   C1B11899  17.679   7.465   6.634  0.0171 -0.0624  0.1407
  812YOPS   C2B11900  17.700   7.594   7.116  0.0816  0.0179 -0.1268
  812YOPS   D3B11901  17.968   7.500   7.450 -0.0557 -0.3097  0.0421
  812YOPS   C4B11902  18.238   7.173   7.300  0.1247 -0.2688 -0.1031
  813YOPS   CNO11903   4.086  14.553   5.762 -0.0405  0.0141  0.0814
  813YOPS   PO411904   4.136  14.965   5.696  0.1535 -0.0066 -0.0073
  813YOPS   GL111905   3.758  14.958   5.992 -0.2852  0.1857  0.1549
  813YOPS   GL211906   3.580  15.182   6.092 -0.0053 -0.0135  0.2976
  813YOPS   C1A11907   3.527  14.778   6.401  0.0464  0.1007  0.1645
  813YOPS   D2A11908   3.449  14.851   6.912 -0.0735  0.0977  0.0319
  813YOPS   C3A11909   3.206  14.848   7.258  0.3127 -0.0533 -0.1701
  813YOPS   C4A11910   3.126  14.548   7.549 -0.1059  0.1354 -0.1766
  813YOPS   C1B11911   3.363  15.301   6.476 -0.2489  0.5229 -0.0535
  813YOPS   C2B11912   3.282  15.368   6.881 -0.2496 -0.3323 -0.0612
  813YOPS   D3B11913   3.172  15.754   7.027  0.1482  0.2067 -0.1136
  813YOPS   C4B11914   2.768  15.773   7.214  0.0783  0.1810 -0.1533
  814YOPS   CNO11915   1.929   8.339   5.027 -0.0330  0.2010 -0.0323
  814YOPS   PO411916   2.151   7.966   5.287  0.0984  0.3221 -0.0550
  814YOPS   GL111917   2.165   7.896   5.740  0.1502  0.2808 -0.4176
  814YOPS   GL211918   2.471   8.058   5.898  0.0740  0.0621  0.1905
  814YOPS   C1A11919   1.940   7.736   6.155 -0.0670  0.3451 -0.0302
  814YOPS   D2A11920   1.914   7.645   6.589  0.2174 -0.0174 -0.2455
  814YOPS   C3A11921   1.695   7.446   6.993  0.2292  0.1879  0.2691
  814YOPS   C4A11922   1.348   7.620   7.120  0.0979  0.1109 -0.1473
  814YOPS   C1B11923   2.410   8.360   6.355 -0.0946 -0.0167  0.2328
  814YOPS   C2B11924   2.417   8.556   6.655 -0.0071  0.3593 -0.0269
  814YOPS   D3B11925   2.324   8.746   6.930  0.1593  0.0804  0.1966
  814YOPS   C4B11926   2.501   9.193   6.949  0.1641 -0.2197 -0.1325
  815YOPS   CNO11927  17.311   1.781   5.070  0.1655 -0.4086  0.2744
  815YOPS   PO411928  17.612   1.650   5.365 -0.0503 -0.1839  0.1720
  815YOPS   GL111929  17.751   1.680   5.836 -0.0789  0.1887 -0.1358
  815YOPS   GL211930  17.590   1.853   5.986  0.1433  0.0226  0.2019
  815YOPS   C1A11931  18.036   1.767   6.262 -0.1162 -0.0804 -0.0668
  815YOPS   D2A11932  18.030   2.072   6.622 -0.0781  0.2925 -0.1418
  815YOPS   C3A11933  18.308   1.956   6.912 -0.0862  0.0888 -0.0037
  815YOPS   C4A11934  18.455   2.239   7.241  0.0874  0.0316 -0.0072
  815YOPS   C1B11935  17.510   2.082   6.278  0.1956  0.3608 -0.0289
  815YOPS   C2B11936  17.511   2.226   6.645  0.1482  0.2899 -0.0404
  815YOPS   D3B11937  17.474   2.215   7.104 -0.2266  0.1476 -0.2152
  815YOPS   C4B11938  17.907   2.109   7.167 -0.1938  0.1456  0.1458
  816YOPS   CNO11939   0.909   6.987   5.510  0.1086 -0.2229  0.2335
  816YOPS   PO411940   0.822   7.396   5.541  0.2173  0.1204 -0.2571
  816YOPS   GL111941   0.572   7.602   5.967  0.1626 -0.1389  0.2822
  816YOPS   GL211942   0.306   7.784   6.175  0.2054 -0.0280 -0.1276
  816YOPS   C1A11943   0.585   7.392   6.399  0.0370  0.0768 -0.0079
  816YOPS   D2A11944   0.666   7.152   6.826  0.1863 -0.0684  0.2591
  816YOPS   C3A11945   0.820   6.668   6.945  0.0105  0.0312 -0.1496
  816YOPS   C4A11946   0.583   6.431   6.675  0.0571 -0.1813 -0.1019
  816YOPS   C1B11947   0.226   7.646   6.596  0.0431  0.0357  0.0950
  816YOPS   C2B11948   0.376   7.800   6.963 -0.1202 -0.1376 -0.0097
  816YOPS   D3B11949   0.512   7.912   7.346 -0.1223 -0.2260 -0.2464
  816YOPS   C4B11950   0.241   7.905   7.634 -0.0610  0.0541  0.2080
  817YOPS   CNO11951   6.794   2.785   6.067 -0.0931 -0.0445  0.2378
  817YOPS   PO411952   7.041   3.073   5.862  0.1231  0.1355  0.1354
  817YOPS   GL111953   6.922   3.193   6.288  0.1681 -0.1024 -0.0359
  817YOPS   GL211954   6.922   3.445   6.338  0.3147  0.0983  0.2265
  817YOPS   C1A11955   6.745   3.288   6.756  0.1569 -0.2652 -0.0935
  817YOPS   D2A11956   6.691   3.330   7.128  0.1053 -0.1936  0.1483
  817YOPS   C3A11957   6.823   3.487   7.418  0.1190 -0.0902 -0.2390
  817YOPS   C4A11958   6.685   3.530   7.644  0.0039  0.0627 -0.1460
  817YOPS   C1B11959   7.287   3.470   6.468 -0.1369  0.0268 -0.0316
  817YOPS   C2B11960   7.546   3.335   6.825 -0.1120 -0.0136 -0.1281
  817YOPS   D3B11961   7.658   3.306   7.234  0.0911  0.1586 -0.1256
  817YOPS   C4B11962   8.129   3.485   7.261 -0.0247  0.0837 -0.0801
  818YOPS   CNO11963   4.900   9.072   5.100  0.3470 -0.0464  0.2354
  818YOPS   PO411964   5.384   8.904   5.223  0.2354 -0.1566  0.0703
  818YOPS   GL111965   5.232   8.806   5.735  0.1753 -0.1367  0.0337
  818YOPS   GL211966   5.333   8.462   5.941  0.0129  0.0164 -0.1579
  818YOPS   C1A11967   5.198   8.862   6.230 -0.1610  0.0649  0.0240
  818YOPS   D2A11968   5.145   8.800   6.633  0.0055 -0.0995 -0.1411
  818YOPS   C3A11969   5.311   8.708   7.020  0.1321  0.1349  0.0750
  818YOPS   C4A11970   5.237   8.747   7.496  0.0850 -0.0959 -0.2954
  818YOPS   C1B11971   5.344   8.374   6.341 -0.2990 -0.4309 -0.0719
  818YOPS   C2B11972   5.374   8.235   6.776  0.0324 -0.1628  0.0682
  818YOPS   D3B11973   5.093   8.237   7.221  0.0115 -0.0835  0.3492
  818YOPS   C4B11974   5.267   8.348   7.727 -0.2723  0.0396  0.2711
  819YOPS   CNO11975   2.526  13.125   5.179  0.1640 -0.0178 -0.2102
  819YOPS   PO411976   2.501  12.775   5.437 -0.2152  0.4753  0.1019
  819YOPS   GL111977   2.428  12.923   5.867  0.0995 -0.2174 -0.2266
  819YOPS   GL211978   2.263  13.168   6.053  0.0987 -0.1879  0.2514
  819YOPS   C1A11979   2.573  12.880   6.271  0.0423 -0.2226 -0.3119
  819YOPS   D2A11980   2.392  12.990   6.718  0.0597  0.1307 -0.1267
  819YOPS   C3A11981   2.287  12.976   7.062  0.0916 -0.0525 -0.2522
  819YOPS   C4A11982   2.275  13.166   7.427 -0.1945  0.2118  0.2697
  819YOPS   C1B11983   2.084  13.332   6.447 -0.1925  0.1272  0.2202
  819YOPS   C2B11984   1.834  13.328   6.842  0.1282 -0.0070 -0.1511
  819YOPS   D3B11985   1.777  13.209   7.260  0.1318 -0.0021  0.1948
  819YOPS   C4B11986   1.643  13.514   7.556  0.1939  0.0594 -0.0386
  820YOPS   CNO11987   3.260   5.189   5.510  0.0372 -0.1007 -0.0131
  820YOPS   PO411988   2.855   5.315   5.510  0.0411  0.0537 -0.1327
  820YOPS   GL111989   2.776   5.545   5.822 -0.3056  0.1021  0.2769
  820YOPS   GL211990   2.555   5.411   5.999  0.0860  0.1629  0.1626
  820YOPS   C1A11991   3.001   5.632   6.240  0.0607  0.2287  0.4045
  820YOPS   D2A11992   2.924   5.476   6.660  0.1902  0.1968  0.2928
  820YOPS   C3A11993   3.111   5.236   7.012 -0.0536  0.2152 -0.2654
  820YOPS   C4A11994   3.174   5.466   7.337  0.1497 -0.1775  0.0506
  820YOPS   C1B11995   2.143   5.493   6.090  0.2004 -0.2752  0.0663
  820YOPS   C2B11996   1.918   5.655   6.516 -0.0759 -0.2505  0.0500
  820YOPS   D3B11997   1.947   5.794   6.942  0.0131  0.0495 -0.2659
  820YOPS   C4B11998   2.185   5.688   7.317 -0.1009  0.3286 -0.2697
  821YOPS   CNO11999   7.326  11.561   5.587 -0.0798  0.0195 -0.0373
  821YOPS   PO412000   6.935  11.561   5.818 -0.1722 -0.3681 -0.0271
  821YOPS   GL112001   6.999  11.797   6.237 -0.1270  0.0247  0.0215
  821YOPS   GL212002   7.194  11.583   6.547  0.3422 -0.0045  0.2913
  821YOPS   C1A12003   6.663  12.061   6.419  0.2643  0.1565 -0.1707
  821YOPS   D2A12004   6.155  12.062   6.600 -0.0171 -0.0777  0.0824
  821YOPS   C3A12005   5.857  11.991   6.971  0.0739 -0.0146 -0.1678
  821YOPS   C4A12006   5.757  12.499   6.985  0.2339  0.1674 -0.5205
  821YOPS   C1B12007   7.223  11.829   6.829 -0.2215 -0.1420  0.1102
  821YOPS   C2B12008   7.295  12.134   7.115 -0.0849  0.3376  0.0281
  821YOPS   D3B12009   7.225  12.275   7.558 -0.0610  0.2580 -0.0072
  821YOPS   C4B12010   7.326  12.082   7.942  0.5577  0.4912  0.0540
  822YOPS   CNO12011  11.299  12.912   5.827 -0.2915 -0.2058 -0.1661
  822YOPS   PO412012  11.101  13.255   5.987  0.1224  0.1963  0.1427
  822YOPS   GL112013  11.002  13.091   6.336  0.0041 -0.0279  0.2696
  822YOPS   GL212014  10.859  13.358   6.585  0.0669 -0.1856 -0.1566
  822YOPS   C1A12015  11.014  12.869   6.689  0.1228  0.0123 -0.0535
  822YOPS   D2A12016  10.888  12.827   7.056 -0.0294 -0.2339 -0.0936
  822YOPS   C3A12017  11.131  12.925   7.478  0.0238 -0.1489  0.3901
  822YOPS   C4A12018  10.968  13.304   7.582 -0.2269 -0.1291 -0.0619
  822YOPS   C1B12019  11.140  13.368   6.998  0.2223 -0.2529  0.1010
  822YOPS   C2B12020  11.402  13.315   7.339  0.0571  0.0762 -0.1095
  822YOPS   D3B12021  11.409  13.350   7.810  0.0444 -0.0962 -0.0355
  822YOPS   C4B12022  11.424  12.973   8.022  0.3053 -0.0536 -0.2292
  823YOPS   CNO12023  17.649   9.104   5.761  0.0058  0.1049 -0.0515
  823YOPS   PO412024  18.157   9.190   5.674 -0.3398  0.0525 -0.3266
  823YOPS   GL112025  18.002   9.298   6.028  0.0275  0.0110  0.2592
  823YOPS   GL212026  18.221   9.175   6.287 -0.2784  0.0519 -0.2388
  823YOPS   C1A12027  17.813   9.586   6.249  0.0256 -0.1683 -0.2629
  823YOPS   D2A12028  17.743   9.842   6.550  0.2034  0.0630 -0.0814
  823YOPS   C3A12029  17.624   9.799   6.969 -0.2795  0.1726 -0.1424
  823YOPS   C4A12030  17.357  10.003   7.228  0.0504 -0.2007  0.2570
  823YOPS   C1B12031  18.461   9.138   6.676 -0.3315  0.1793  0.0391
  823YOPS   C2B12032  18.400   9.223   7.078  0.0544 -0.0932  0.0917
  823YOPS   D3B12033  18.269   9.385   7.361 -0.2165 -0.1961  0.0413
  823YOPS   C4B12034  18.242   9.817   7.540 -0.0977 -0.1331 -0.2013
  824YOPS   CNO12035  12.510  12.042   6.069 -0.0388  0.1825  0.1042
  824YOPS   PO412036  12.212  12.226   5.825  0.1215 -0.0659  0.0182
  824YOPS   GL112037  12.150  12.375   6.236 -0.0405  0.0138 -0.1214
  824YOPS   GL212038  11.770  12.381   6.419  0.1672  0.3624 -0.0135
  824YOPS   C1A12039  12.128  12.239   6.730 -0.0078  0.1153 -0.1636
  824YOPS   D2A12040  12.238  12.169   7.149  0.3072  0.0629  0.3231
  824YOPS   C3A12041  12.539  12.028   7.559  0.1015 -0.1878 -0.1679
  824YOPS   C4A12042  12.664  11.564   7.554  0.0622 -0.2644 -0.2753
  824YOPS   C1B12043  11.748  12.559   6.779 -0.0542  0.0057 -0.0043
  824YOPS   C2B12044  11.842  12.463   7.276 -0.0188  0.1293  0.2771
  824YOPS   D3B12045  12.014  12.257   7.561  0.1040  0.0375  0.3003
  824YOPS   C4B12046  12.408  12.508   7.798  0.1735 -0.1426  0.2672
  825YOPS   CNO12047   8.783   9.461   5.497 -0.0336  0.0260 -0.0803
  825YOPS   PO412048   8.709   9.656   5.820  0.2977 -0.0041 -0.1007
  825YOPS   GL112049   8.811   9.550   6.269 -0.0946  0.1766 -0.0570
  825YOPS   GL212050   8.574   9.386   6.400  0.1493  0.3016  0.0033
  825YOPS   C1A12051   9.029   9.471   6.521  0.0310 -0.1606  0.3175
  825YOPS   D2A12052   9.030   9.408   6.922 -0.0438  0.0770  0.0243
  825YOPS   C3A12053   8.947   9.570   7.394  0.0165  0.3204 -0.1165
  825YOPS   C4A12054   8.866   9.325   7.765 -0.2305  0.1640 -0.3528
  825YOPS   C1B12055   8.591   9.588   6.795 -0.1640  0.1436 -0.0394
  825YOPS   C2B12056   8.505   9.468   7.144  0.1354  0.3114  0.1593
  825YOPS   D3B12057   8.422   9.460   7.621  0.2212 -0.3275  0.0008
  825YOPS   C4B12058   8.299   9.070   7.763 -0.1073 -0.1569  0.0118
  826YOPS   CNO12059   2.931  11.879   5.192 -0.4080 -0.1173  0.0435
  826YOPS   PO412060   2.796  11.804   5.546  0.0957 -0.1162 -0.0316
  826YOPS   GL112061   2.433  11.891   5.843  0.3213 -0.1485  0.1619
  826YOPS   GL212062   2.143  11.984   5.822 -0.0641  0.4168  0.0444
  826YOPS   C1A12063   2.430  11.750   6.232  0.0859 -0.3088  0.0889
  826YOPS   D2A12064   2.393  11.756   6.757 -0.0016 -0.0696 -0.1674
  826YOPS   C3A12065   2.042  12.004   7.035 -0.3364  0.1901  0.0537
  826YOPS   C4A12066   1.859  11.854   7.446  0.0251 -0.1768 -0.0259
  826YOPS   C1B12067   1.999  12.065   6.280  0.1139 -0.4625  0.0808
  826YOPS   C2B12068   1.717  12.392   6.507 -0.0244 -0.0691  0.1208
  826YOPS   D3B12069   1.336  12.396   6.666  0.2518  0.0223  0.2324
  826YOPS   C4B12070   1.055  12.240   6.438  0.0694  0.1173  0.0805
  827YOPS   CNO12071  10.825   6.260   5.285  0.4264  0.1008  0.1137
  827YOPS   PO412072  10.469   6.367   5.520  0.0697  0.2431  0.2111
  827YOPS   GL112073  10.789   6.444   5.934  0.0045  0.1091 -0.3009
  827YOPS   GL212074  10.808   6.766   6.026 -0.0023 -0.0839 -0.2844
  827YOPS   C1A12075  10.692   6.329   6.385 -0.0425 -0.0550  0.3972
  827YOPS   D2A12076  10.673   6.324   6.885 -0.1186 -0.0874 -0.1121
  827YOPS   C3A12077  10.846   6.262   7.162 -0.2184 -0.0673 -0.1148
  827YOPS   C4A12078  10.669   6.039   7.539  0.4437  0.2679  0.0350
  827YOPS   C1B12079  11.051   6.656   6.350 -0.1442  0.1092  0.3011
  827YOPS   C2B12080  11.109   6.403   6.681  0.1415  0.0117  0.0770
  827YOPS   D3B12081  11.403   6.358   6.983  0.0214  0.1541  0.3795
  827YOPS   C4B12082  11.274   6.671   7.242  0.1444  0.2200  0.2785
  828YOPS   CNO12083   4.555   6.222   5.476  0.0725 -0.0981  0.1195
  828YOPS   PO412084   4.462   6.657   5.466  0.0358  0.0234 -0.3289
  828YOPS   GL112085   4.410   6.564   5.874  0.0224  0.0037 -0.1852
  828YOPS   GL212086   4.729   6.610   6.073  0.2807 -0.0703  0.0635
  828YOPS   C1A12087   4.303   6.445   6.242  0.2374  0.1177  0.2309
  828YOPS   D2A12088   4.219   6.360   6.694 -0.2019  0.0872 -0.1273
  828YOPS   C3A12089   4.317   6.365   7.060  0.0414  0.0086  0.0123
  828YOPS   C4A12090   4.141   6.155   7.373 -0.0663  0.0909  0.1768
  828YOPS   C1B12091   4.991   6.706   6.397  0.1096 -0.1563  0.0108
  828YOPS   C2B12092   5.049   6.690   6.801  0.0734  0.1935 -0.1162
  828YOPS   D3B12093   5.111   6.825   7.165  0.0297 -0.2086  0.1761
  828YOPS   C4B12094   5.003   7.102   7.390 -0.1213 -0.2378  0.0464
  829YOPS   CNO12095  17.789   2.304   5.090 -0.4575  0.0767  0.1556
  829YOPS   PO412096  17.763   2.646   5.433 -0.0840  0.1685  0.1416
  829YOPS   GL112097  17.976   2.680   5.846  0.1532 -0.1112 -0.0309
  829YOPS   GL212098  17.700   2.742   5.947 -0.1168 -0.1319 -0.1170
  829YOPS   C1A12099  18.307   2.705   5.912 -0.0992 -0.0912 -0.2486
  829YOPS   D2A12100  18.528   2.633   6.223 -0.0882 -0.1528 -0.1509
  829YOPS   C3A12101  18.687   2.792   6.518  0.0898 -0.2724  0.0983
  829YOPS   C4A12102  18.662   3.197   6.378 -0.3647 -0.0899 -0.0404
  829YOPS   C1B12103  17.629   2.916   6.363 -0.1474 -0.2088  0.2868
  829YOPS   C2B12104  17.742   3.064   6.799 -0.3789  0.2253  0.1356
  829YOPS   D3B12105  17.850   3.015   7.177 -0.0263  0.1399  0.1994
  829YOPS   C4B12106  17.820   3.145   7.541  0.0965  0.0711  0.0166
  830YOPS   CNO12107   3.803   5.631   4.981 -0.0169  0.2072  0.0561
  830YOPS   PO412108   3.766   5.472   5.329  0.2827 -0.4520  0.0951
  830YOPS   GL112109   3.680   5.479   5.727  0.0265 -0.2620  0.0797
  830YOPS   GL212110   3.497   5.646   5.915  0.1654  0.0896  0.1665
  830YOPS   C1A12111   3.921   5.419   6.010 -0.0113  0.0771  0.0779
  830YOPS   D2A12112   4.041   5.378   6.445  0.1454  0.1364 -0.2557
  830YOPS   C3A12113   4.049   5.411   6.956 -0.0590  0.3685 -0.3625
  830YOPS   C4A12114   3.879   5.100   7.066  0.0374  0.3153  0.2037
  830YOPS   C1B12115   3.401   5.906   6.064  0.0177  0.3843 -0.0189
  830YOPS   C2B12116   3.259   5.961   6.541  0.0041  0.4196 -0.0119
  830YOPS   D3B12117   3.236   5.804   6.879 -0.2620  0.2114 -0.1783
  830YOPS   C4B12118   3.254   5.986   7.193 -0.0269  0.2813  0.2620
  831YOPS   CNO12119   3.483   9.832   4.799 -0.0335  0.0366 -0.1209
  831YOPS   PO412120   3.249   9.568   5.066  0.2128 -0.0446  0.2948
  831YOPS   GL112121   3.185   9.694   5.550 -0.0647 -0.2281  0.0646
  831YOPS   GL212122   3.456   9.658   5.777 -0.2114  0.3725 -0.0189
  831YOPS   C1A12123   3.130   9.890   6.004  0.0364  0.1454 -0.3254
  831YOPS   D2A12124   3.162   9.930   6.432  0.1604 -0.0280 -0.2178
  831YOPS   C3A12125   3.111   9.970   6.851  0.1006  0.4339 -0.5045
  831YOPS   C4A12126   3.040   9.630   7.192  0.0651 -0.1778 -0.1230
  831YOPS   C1B12127   3.614   9.793   6.209 -0.0500 -0.2383 -0.1749
  831YOPS   C2B12128   3.911   9.820   6.543 -0.1838  0.0952 -0.1105
  831YOPS   D3B12129   3.874   9.961   7.013 -0.0920 -0.3034 -0.0084
  831YOPS   C4B12130   3.547  10.262   7.108  0.0159 -0.1896 -0.0721
  832YOPS   CNO12131   2.922   6.054   4.889 -0.0577  0.1654  0.0417
  832YOPS   PO412132   2.687   6.280   5.214 -0.0579 -0.0405  0.1096
  832YOPS   GL112133   2.473   6.103   5.619  0.0449 -0.1347 -0.3077
  832YOPS   GL212134   2.265   5.926   5.768  0.0700 -0.0176  0.1208
  832YOPS   C1A12135   2.345   6.430   5.862 -0.0570  0.0085  0.0054
  832YOPS   D2A12136   2.319   6.531   6.312 -0.1208  0.1150 -0.1066
  832YOPS   C3A12137   2.338   6.916   6.570 -0.3015 -0.2064 -0.0758
  832YOPS   C4A12138   2.482   7.056   7.032  0.0869 -0.1459  0.0463
  832YOPS   C1B12139   2.146   6.008   6.232  0.0085  0.0077  0.1033
  832YOPS   C2B12140   2.220   6.157   6.669  0.1154  0.1172  0.3552
  832YOPS   D3B12141   2.376   6.545   6.919 -0.0922  0.0207 -0.1889
  832YOPS   C4B12142   2.738   6.705   6.854  0.2746  0.5251 -0.0670
  833YOPS   CNO12143  16.921  14.918   5.919 -0.1008  0.0161  0.0910
  833YOPS   PO412144  16.730  14.737   5.548  0.4451  0.1038 -0.1457
  833YOPS   GL112145  16.587  14.382   5.944 -0.1964  0.0267 -0.0477
  833YOPS   GL212146  16.350  14.487   5.923  0.0431  0.0421  0.1553
  833YOPS   C1A12147  16.386  14.007   6.229  0.1736 -0.4021  0.1423
  833YOPS   D2A12148  16.345  13.704   6.599 -0.0885 -0.1586  0.1051
  833YOPS   C3A12149  16.562  13.406   6.793  0.1845 -0.2315  0.1154
  833YOPS   C4A12150  16.720  13.132   7.104  0.1818 -0.0199  0.0954
  833YOPS   C1B12151  16.195  14.411   6.411  0.4107  0.0880  0.0554
  833YOPS   C2B12152  16.247  14.202   6.840 -0.1416  0.2219  0.1919
  833YOPS   D3B12153  16.283  14.243   7.306  0.3093 -0.1660  0.2627
  833YOPS   C4B12154  16.577  14.432   7.476 -0.1460 -0.0447 -0.2261
  834YOPS   CNO12155   7.403  11.183   6.114  0.0124 -0.2557 -0.1431
  834YOPS   PO412156   7.442  11.584   6.054  0.1583 -0.1727  0.0200
  834YOPS   GL112157   7.458  11.977   6.283 -0.0430 -0.0486 -0.3126
  834YOPS   GL212158   7.649  12.219   6.568 -0.1363 -0.0964  0.0972
  834YOPS   C1A12159   7.131  12.186   6.508  0.3652 -0.2883 -0.2315
  834YOPS   D2A12160   6.877  12.141   6.874 -0.2934  0.1033 -0.1125
  834YOPS   C3A12161   6.805  12.225   7.264 -0.0727 -0.0400  0.0576
  834YOPS   C4A12162   6.565  11.964   7.527  0.0107 -0.4818 -0.2185
  834YOPS   C1B12163   7.438  12.490   6.832  0.2526 -0.0730  0.1188
  834YOPS   C2B12164   7.531  12.642   7.303  0.2458 -0.2181  0.3153
  834YOPS   D3B12165   7.568  12.599   7.768  0.0705  0.0961 -0.0171
  834YOPS   C4B12166   7.919  12.757   8.173 -0.1193 -0.3587 -0.1589
  835YOPS   CNO12167  11.580   3.348   5.330  0.3215  0.2588 -0.1085
  835YOPS   PO412168  11.405   3.275   5.670  0.0866 -0.3291 -0.1132
  835YOPS   GL112169  11.548   3.112   6.106  0.2211  0.0222 -0.0135
  835YOPS   GL212170  11.677   2.821   6.089  0.0963 -0.0144 -0.1130
  835YOPS   C1A12171  11.602   3.119   6.591 -0.0709  0.1052  0.2583
  835YOPS   D2A12172  11.468   3.040   7.094 -0.1969  0.3605 -0.0826
  835YOPS   C3A12173  11.433   2.714   7.454  0.0618 -0.0795  0.2735
  835YOPS   C4A12174  11.610   2.826   7.825  0.0434  0.0140 -0.0451
  835YOPS   C1B12175  11.770   2.513   6.450  0.0246 -0.3015 -0.3097
  835YOPS   C2B12176  12.055   2.417   6.809 -0.2681 -0.0263 -0.0243
  835YOPS   D3B12177  12.416   2.252   6.831 -0.4154 -0.0964  0.0165
  835YOPS   C4B12178  12.576   2.101   6.443 -0.1081 -0.0206  0.0828
  836YOPS   CNO12179   7.778   7.065   5.463  0.0504  0.1133  0.1182
  836YOPS   PO412180   7.609   6.738   5.665  0.1968  0.1687  0.1537
  836YOPS   GL112181   7.592   6.663   6.088  0.0479  0.0923 -0.0845
  836YOPS   GL212182   7.507   6.934   6.300 -0.3109 -0.0813  0.1397
  836YOPS   C1A12183   7.633   6.496   6.531 -0.1891  0.1071  0.4619
  836YOPS   D2A12184   7.736   6.547   6.938 -0.1327  0.1801  0.2317
  836YOPS   C3A12185   7.838   6.622   7.326  0.1747  0.0999 -0.0565
  836YOPS   C4A12186   8.148   6.459   7.643 -0.0791  0.0971  0.1194
  836YOPS   C1B12187   7.614   7.055   6.778 -0.0183 -0.0289 -0.2460
  836YOPS   C2B12188   7.461   6.982   7.189  0.2181  0.1887  0.0741
  836YOPS   D3B12189   7.381   6.956   7.586  0.1054  0.0039  0.0670
  836YOPS   C4B12190   7.747   6.832   7.877  0.0382 -0.2699 -0.1164
  837YOPS   CNO12191   7.338   4.107   5.759 -0.0197  0.1846 -0.1661
  837YOPS   PO412192   7.625   4.402   5.910  0.0806 -0.2817  0.0424
  837YOPS   GL112193   7.538   4.160   6.218  0.1850  0.0376 -0.0569
  837YOPS   GL212194   7.386   4.324   6.410  0.1269 -0.2757 -0.0703
  837YOPS   C1A12195   7.657   3.823   6.580  0.0035 -0.1554 -0.1021
  837YOPS   D2A12196   7.702   3.820   7.028  0.1011  0.2117 -0.3662
  837YOPS   C3A12197   7.873   3.840   7.499 -0.0803 -0.0476 -0.2381
  837YOPS   C4A12198   7.815   3.504   7.675  0.1428 -0.1396 -0.0564
  837YOPS   C1B12199   7.385   4.186   6.956 -0.2717  0.0681  0.1470
  837YOPS   C2B12200   7.529   4.187   7.389  0.1257 -0.0272  0.0306
  837YOPS   D3B12201   7.507   3.872   7.824 -0.2246 -0.2254 -0.1100
  837YOPS   C4B12202   7.660   3.891   8.287  0.0362 -0.0067 -0.1301
  838YOPS   CNO12203   1.989   6.956   5.138  0.1278  0.2377  0.1490
  838YOPS   PO412204   1.770   7.100   5.517 -0.2214  0.0280  0.3555
  838YOPS   GL112205   2.240   6.997   5.645 -0.2989 -0.1651  0.1647
  838YOPS   GL212206   2.526   7.218   5.704 -0.1313  0.0167 -0.1211
  838YOPS   C1A12207   2.283   6.924   6.016 -0.1001  0.0489  0.0428
  838YOPS   D2A12208   2.581   7.108   6.149  0.0558 -0.1728  0.0166
  838YOPS   C3A12209   2.868   7.162   6.531 -0.3153  0.3275  0.1932
  838YOPS   C4A12210   3.239   7.336   6.575 -0.0750  0.2033  0.0679
  838YOPS   C1B12211   2.372   7.532   6.032  0.0240  0.2417 -0.1827
  838YOPS   C2B12212   2.413   7.867   6.363 -0.0075  0.0301  0.0916
  838YOPS   D3B12213   2.474   8.020   6.724  0.3061  0.0206 -0.5021
  838YOPS   C4B12214   2.783   7.938   7.050 -0.1933  0.0295 -0.0453
  839YOPS   CNO12215  11.459   9.566   5.962  0.0851 -0.1359 -0.2648
  839YOPS   PO412216  10.970   9.415   6.021 -0.0921  0.0355 -0.0308
  839YOPS   GL112217  11.322   9.239   6.343 -0.0332 -0.1933  0.0476
  839YOPS   GL212218  11.696   9.319   6.365  0.1701 -0.1638  0.2643
  839YOPS   C1A12219  11.281   9.436   6.753  0.2036 -0.2015 -0.1845
  839YOPS   D2A12220  11.306   9.379   7.146  0.2070  0.2041  0.2597
  839YOPS   C3A12221  11.448   9.383   7.540 -0.0926 -0.2640  0.1037
  839YOPS   C4A12222  11.860   9.578   7.655  0.1230  0.5182 -0.0686
  839YOPS   C1B12223  11.796   9.241   6.808 -0.0149  0.0362 -0.0579
  839YOPS   C2B12224  11.867   9.228   7.267 -0.0413 -0.2397  0.0461
  839YOPS   D3B12225  12.047   9.013   7.566  0.1718  0.1538 -0.1882
  839YOPS   C4B12226  12.172   9.136   7.889  0.0166  0.0374 -0.0296
  840YOPS   CNO12227   5.472   0.855   6.190  0.1710  0.1574  0.0352
  840YOPS   PO412228   5.353   1.291   6.152  0.0283  0.1504  0.1347
  840YOPS   GL112229   5.530   1.185   6.567 -0.1113 -0.1281  0.0309
  840YOPS   GL212230   5.808   1.294   6.371 -0.0691 -0.2224 -0.2239
  840YOPS   C1A12231   5.537   1.072   7.002  0.0932 -0.2249 -0.0275
  840YOPS   D2A12232   5.631   0.835   7.399 -0.2689 -0.0094 -0.0414
  840YOPS   C3A12233   5.757   0.858   7.751  0.0280 -0.0525  0.2502
  840YOPS   C4A12234   5.624   0.844   8.204 -0.3722  0.1268  0.2407
  840YOPS   C1B12235   6.045   1.205   6.708  0.0251  0.0090 -0.0406
  840YOPS   C2B12236   6.131   0.958   7.087  0.1555  0.0318 -0.0884
  840YOPS   D3B12237   6.124   0.750   7.463 -0.0646 -0.1282  0.1763
  840YOPS   C4B12238   6.526   0.452   7.575 -0.1625 -0.4049 -0.0300
  841POPE   NH312239  12.370   3.655   5.817  0.0035 -0.2481 -0.2413
  841POPE   PO412240  12.808   3.562   5.865 -0.0405 -0.1177  0.0069
  841POPE   GL112241  13.014   3.544   6.079  0.0737  0.0156 -0.1883
  841POPE   GL212242  13.307   3.641   5.923 -0.1236  0.0758  0.0625
  841POPE   C1A12243  12.906   3.655   6.548 -0.1382  0.0517  0.0315
  841POPE   D2A12244  12.912   3.770   6.997  0.0269 -0.0320  0.0346
  841POPE   C3A12245  12.592   3.736   7.373  0.0543 -0.0488 -0.1160
  841POPE   C4A12246  12.185   3.701   7.489 -0.0687  0.2967 -0.2494
  841POPE   C1B12247  13.381   3.885   6.270 -0.3699 -0.0958 -0.1452
  841POPE   C2B12248  13.437   3.917   6.581 -0.2010  0.1850 -0.2190
  841POPE   C3B12249  13.517   3.921   6.999 -0.1360  0.3606 -0.2992
  841POPE   C4B12250  13.501   4.080   7.390  0.1510 -0.0986 -0.1056
  842POPE   NH312251  16.678  11.646   5.764 -0.0198 -0.2698  0.1053
  842POPE   PO412252  17.142  11.354   5.818 -0.0951  0.0946 -0.2838
  842POPE   GL112253  17.164  11.269   6.328  0.2922  0.0580  0.1289
  842POPE   GL212254  16.878  11.437   6.337 -0.2697  0.0932  0.2117
  842POPE   C1A12255  17.161  11.332   6.726 -0.1920 -0.1965  0.0526
  842POPE   D2A12256  17.414  11.522   7.030  0.0630 -0.3677 -0.1837
  842POPE   C3A12257  17.555  11.320   7.193 -0.0818  0.1921 -0.0446
  842POPE   C4A12258  17.548  11.033   7.506 -0.1369 -0.0554 -0.0566
  842POPE   C1B12259  16.806  11.698   6.590 -0.0395  0.1415 -0.1422
  842POPE   C2B12260  16.869  11.685   7.056  0.1008 -0.1496  0.1642
  842POPE   C3B12261  16.781  11.729   7.380 -0.1922 -0.2107 -0.2678
  842POPE   C4B12262  16.769  11.631   7.777  0.0411  0.0255  0.2066
  843POPE   NH312263  15.289  13.822   5.120 -0.0170  0.2091  0.1164
  843POPE   PO412264  15.105  14.178   5.243  0.0109  0.3434 -0.1621
  843POPE   GL112265  14.893  14.143   5.725 -0.1017 -0.1421 -0.0936
  843POPE   GL212266  15.097  13.879   5.913 -0.3352  0.1167  0.1645
  843POPE   C1A12267  14.569  14.021   6.015 -0.1312 -0.1382 -0.1666
  843POPE   D2A12268  14.072  13.843   5.998 -0.0868  0.1090  0.0176
  843POPE   C3A12269  13.840  13.802   6.420 -0.0786  0.2963  0.4214
  843POPE   C4A12270  13.983  13.667   6.791  0.1427  0.4435  0.0415
  843POPE   C1B12271  14.888  13.735   6.290  0.1105 -0.0047  0.1750
  843POPE   C2B12272  14.740  13.750   6.711 -0.1427  0.0543 -0.0006
  843POPE   C3B12273  14.865  13.821   7.119  0.3490 -0.2422  0.1427
  843POPE   C4B12274  14.837  13.629   7.505  0.3551  0.2349  0.1513
  844POPE   NH312275   0.314   4.202   4.860 -0.0073 -0.0591  0.1139
  844POPE   PO412276   0.067   4.290   5.270 -0.1546  0.0845  0.2051
  844POPE   GL112277   0.283   4.091   5.620 -0.0041  0.4018  0.3365
  844POPE   GL212278   0.013   3.954   5.760  0.0387  0.1356 -0.3163
  844POPE   C1A12279   0.454   4.053   5.965  0.0994 -0.0545  0.1571
  844POPE   D2A12280   0.379   4.074   6.436  0.3206  0.1861 -0.0594
  844POPE   C3A12281   0.565   3.928   6.764  0.0281  0.2041  0.0239
  844POPE   C4A12282   0.787   3.546   7.011 -0.2175  0.3542 -0.2462
  844POPE   C1B12283  -0.065   4.204   6.175 -0.0593 -0.0077 -0.1105
  844POPE   C2B12284  -0.048   4.365   6.581  0.0842 -0.2027  0.4378
  844POPE   C3B12285   0.113   4.186   6.986 -0.1879  0.0089  0.3403
  844POPE   C4B12286   0.403   3.987   7.260 -0.0591  0.1381  0.0943
  845POPE   NH312287   9.943   0.054   5.711 -0.1341 -0.1614  0.1105
  845POPE   PO412288  10.320   0.069   5.759  0.0976  0.0385 -0.2092
  845POPE   GL112289  10.563   0.167   6.108  0.0953  0.0219 -0.0459
  845POPE   GL212290  10.771   0.355   6.144 -0.2361 -0.1087  0.1266
  845POPE   C1A12291  10.728  -0.056   6.420  0.0223  0.0787  0.2142
  845POPE   D2A12292  10.988  -0.153   6.776  0.0077 -0.0299  0.0126
  845POPE   C3A12293  11.062  -0.094   7.144 -0.1175  0.0973 -0.0147
  845POPE   C4A12294  11.040  -0.053   7.531 -0.3091 -0.0417 -0.1245
  845POPE   C1B12295  10.603   0.525   6.485 -0.0764 -0.0239  0.0917
  845POPE   C2B12296  10.797   0.943   6.773  0.2348 -0.2243 -0.2470
  845POPE   C3B12297  10.896   1.209   7.225 -0.0899 -0.0791  0.2412
  845POPE   C4B12298  10.851   1.492   7.662 -0.1109 -0.0957  0.0331
  846POPE   NH312299  15.582   0.353   5.485 -0.2169  0.2252 -0.1330
  846POPE   PO412300  15.431   0.084   5.767  0.1945 -0.5061 -0.2088
  846POPE   GL112301  15.385   0.034   6.111  0.0015 -0.1412 -0.2224
  846POPE   GL212302  15.437   0.399   6.302 -0.0155  0.5442  0.2361
  846POPE   C1A12303  15.315  -0.094   6.554 -0.0477 -0.1882 -0.1490
  846POPE   D2A12304  15.469  -0.050   7.034  0.0123  0.2824  0.4326
  846POPE   C3A12305  15.275   0.044   7.468  0.0277 -0.3124  0.0614
  846POPE   C4A12306  15.018   0.095   7.802 -0.0966 -0.0986 -0.3536
  846POPE   C1B12307  15.320   0.423   6.662 -0.1989 -0.1664 -0.0130
  846POPE   C2B12308  15.358   0.420   7.041  0.1136 -0.2038 -0.0013
  846POPE   C3B12309  15.539   0.445   7.432  0.0209 -0.1458 -0.3154
  846POPE   C4B12310  15.408   0.452   7.899  0.1244 -0.1156 -0.3260
  847POPE   NH312311  10.633  13.421   6.080  0.0809 -0.3020 -0.3546
  847POPE   PO412312  10.792  13.789   5.836 -0.0253  0.2747  0.5021
  847POPE   GL112313  11.085  13.722   6.240  0.1451 -0.1284  0.0064
  847POPE   GL212314  10.961  14.004   6.494 -0.1721  0.0385  0.3125
  847POPE   C1A12315  11.303  13.632   6.614 -0.1026 -0.3695  0.1144
  847POPE   D2A12316  11.608  13.601   6.969 -0.1164 -0.0336  0.0148
  847POPE   C3A12317  11.632  13.767   7.460  0.0536  0.0998  0.0557
  847POPE   C4A12318  11.723  13.700   7.943  0.0102 -0.1175 -0.1130
  847POPE   C1B12319  10.785  13.766   6.826  0.2043 -0.0829  0.2472
  847POPE   C2B12320  10.842  13.766   7.241  0.1223 -0.0200 -0.2080
  847POPE   C3B12321  11.156  13.808   7.617 -0.0616 -0.1159  0.1682
  847POPE   C4B12322  11.414  14.154   7.868 -0.0051 -0.1565 -0.0989
  848POPE   NH312323  11.471   5.262   5.787  0.0754 -0.0848  0.1526
  848POPE   PO412324  11.110   5.088   5.572 -0.1801 -0.1124  0.1625
  848POPE   GL112325  11.005   5.017   5.920  0.0535  0.0296 -0.0849
  848POPE   GL212326  11.138   5.172   6.176 -0.0144  0.0818  0.0840
  848POPE   C1A12327  10.919   4.771   6.274 -0.0488  0.0466  0.0989
  848POPE   D2A12328  10.947   4.904   6.741 -0.0173 -0.2124  0.3003
  848POPE   C3A12329  11.030   5.390   6.911 -0.3710  0.0389 -0.3064
  848POPE   C4A12330  10.935   5.575   7.336 -0.2037  0.1792  0.0964
  848POPE   C1B12331  11.092   5.459   6.426  0.1010  0.1397  0.0745
  848POPE   C2B12332  10.756   5.774   6.579 -0.1878  0.2513 -0.2355
  848POPE   C3B12333  10.589   5.795   6.974 -0.2106 -0.1019  0.0935
  848POPE   C4B12334  10.267   5.764   7.351 -0.0297  0.0361  0.0054
  849POPE   NH312335  11.179  16.589   5.779 -0.1047 -0.0978  0.0844
  849POPE   PO412336  11.057  16.222   5.883 -0.0624 -0.1303 -0.1151
  849POPE   GL112337  11.015  16.101   6.280 -0.1065  0.2449 -0.0385
  849POPE   GL212338  11.314  16.085   6.308  0.0203  0.2603 -0.0564
  849POPE   C1A12339  10.970  15.905   6.742 -0.1364 -0.1599 -0.1348
  849POPE   D2A12340  11.228  15.925   7.147 -0.0066  0.2821  0.0558
  849POPE   C3A12341  11.625  15.919   7.336 -0.2446  0.0427 -0.0509
  849POPE   C4A12342  11.884  15.691   7.645  0.0641 -0.2545 -0.1287
  849POPE   C1B12343  11.475  15.858   6.707  0.0407  0.2077 -0.2811
  849POPE   C2B12344  11.291  15.472   6.868 -0.2394  0.1104 -0.3510
  849POPE   C3B12345  11.362  15.079   6.909  0.1544 -0.1299 -0.1718
  849POPE   C4B12346  11.393  14.884   7.250  0.0753 -0.0048 -0.2178
  850POPE   NH312347  17.516   6.960   5.244  0.1381  0.0988  0.0502
  850POPE   PO412348  17.273   7.172   5.562 -0.0662  0.0714  0.2071
  850POPE   GL112349  17.188   7.010   6.050  0.0230  0.0551  0.0733
  850POPE   GL212350  17.309   7.256   6.269 -0.2739  0.2711  0.0185
  850POPE   C1A12351  17.071   6.821   6.419 -0.1070  0.0722 -0.1237
  850POPE   D2A12352  17.114   6.896   6.872 -0.0440 -0.1250 -0.1153
  850POPE   C3A12353  16.849   6.788   7.230  0.3555  0.0473 -0.1011
  850POPE   C4A12354  16.988   6.921   7.684 -0.1381 -0.4809  0.1929
  850POPE   C1B12355  17.179   7.390   6.558 -0.2500  0.0871 -0.2656
  850POPE   C2B12356  17.261   7.397   6.950 -0.0160  0.0979 -0.1166
  850POPE   C3B12357  17.289   7.217   7.304  0.1709 -0.2003 -0.1082
  850POPE   C4B12358  17.548   7.422   7.584  0.1731  0.2364  0.2234
  851POPE   NH312359   0.487   1.849   5.899 -0.0143 -0.0067  0.0563
  851POPE   PO412360   0.543   1.539   5.762 -0.3868  0.3267  0.1826
  851POPE   GL112361   0.320   1.334   6.053 -0.0139 -0.0949  0.3665
  851POPE   GL212362   0.086   1.624   6.085  0.1176  0.1073 -0.2270
  851POPE   C1A12363   0.358   1.307   6.457 -0.1354 -0.0476  0.1550
  851POPE   D2A12364   0.423   1.325   6.899  0.0260 -0.1765  0.3192
  851POPE   C3A12365   0.389   1.423   7.326  0.2427 -0.0215  0.1507
  851POPE   C4A12366   0.383   1.518   7.750 -0.0431  0.1622  0.0251
  851POPE   C1B12367   0.040   1.950   6.347  0.0582 -0.3412  0.1457
  851POPE   C2B12368   0.017   2.319   6.641  0.1045 -0.0188  0.3128
  851POPE   C3B12369   0.344   2.504   6.951  0.0459  0.3697 -0.1143
  851POPE   C4B12370   0.694   2.797   6.961 -0.1500 -0.0245  0.3483
  852POPE   NH312371   7.625  14.885   5.788  0.0924 -0.1464 -0.1872
  852POPE   PO412372   7.394  15.225   5.793 -0.1001 -0.1055 -0.0191
  852POPE   GL112373   7.350  15.427   6.121 -0.0254  0.0047 -0.1045
  852POPE   GL212374   6.976  15.477   6.346 -0.0207 -0.2891 -0.0424
  852POPE   C1A12375   7.398  15.426   6.617  0.3660 -0.4315 -0.1787
  852POPE   D2A12376   7.460  15.495   7.092  0.0009 -0.1111  0.0512
  852POPE   C3A12377   7.259  15.241   7.389 -0.1211 -0.1475 -0.0163
  852POPE   C4A12378   7.205  14.906   7.669  0.1693  0.0805  0.0051
  852POPE   C1B12379   6.637  15.339   6.641 -0.0854  0.2694  0.0029
  852POPE   C2B12380   6.445  15.472   7.082  0.1747  0.1230  0.0101
  852POPE   C3B12381   6.323  15.403   7.517 -0.2689  0.0266 -0.1859
  852POPE   C4B12382   5.991  15.456   7.833 -0.3672  0.4249  0.3602
  853POPE   NH312383   8.736  17.156   6.113  0.2993  0.1128  0.1849
  853POPE   PO412384   8.937  16.825   5.956 -0.0444  0.0704 -0.1195
  853POPE   GL112385   9.186  16.604   6.280  0.0633  0.3014 -0.1830
  853POPE   GL212386   9.540  16.616   6.268 -0.1296  0.2825  0.1043
  853POPE   C1A12387   9.263  16.551   6.732 -0.0180 -0.2180 -0.0270
  853POPE   D2A12388   9.440  16.637   7.072 -0.0597 -0.1219 -0.0462
  853POPE   C3A12389   9.277  16.340   7.431  0.0592  0.3500  0.1460
  853POPE   C4A12390   9.273  15.997   7.535 -0.0535 -0.0671 -0.2607
  853POPE   C1B12391   9.539  16.941   6.500  0.5019 -0.0554 -0.1751
  853POPE   C2B12392   9.706  17.026   6.877 -0.5244  0.0709  0.0594
  853POPE   C3B12393   9.838  17.189   7.145  0.0199  0.1668 -0.3428
  853POPE   C4B12394   9.831  17.342   7.494  0.0546 -0.2928 -0.0000
  854POPE   NH312395  15.112  14.559   5.531  0.0008  0.1693  0.1888
  854POPE   PO412396  15.485  14.198   5.644 -0.1412  0.0806  0.2504
  854POPE   GL112397  15.657  14.053   6.018 -0.2120  0.0052 -0.3380
  854POPE   GL212398  15.969  14.115   6.035  0.0769 -0.1443 -0.0425
  854POPE   C1A12399  15.352  13.921   6.350  0.0950 -0.1958  0.1511
  854POPE   D2A12400  15.227  13.910   6.770  0.2201  0.0364  0.1136
  854POPE   C3A12401  15.317  13.678   7.046 -0.5164 -0.1339 -0.1263
  854POPE   C4A12402  15.549  13.443   7.433 -0.0469 -0.1502 -0.1344
  854POPE   C1B12403  15.878  14.044   6.513  0.0169 -0.3536 -0.0564
  854POPE   C2B12404  15.719  14.031   6.984  0.0446  0.1074 -0.0337
  854POPE   C3B12405  15.765  14.207   7.377 -0.2713 -0.2396  0.1143
  854POPE   C4B12406  15.836  14.191   7.842 -0.3175 -0.1560  0.2862
  855POPE   NH312407   1.296   4.036   5.331  0.2292 -0.0164 -0.0481
  855POPE   PO412408   1.551   4.336   5.473 -0.0144  0.1812 -0.1084
  855POPE   GL112409   1.568   4.603   5.821  0.1263  0.0841 -0.0161
  855POPE   GL212410   1.838   4.448   5.918  0.1998 -0.2638 -0.0743
  855POPE   C1A12411   1.672   4.710   6.329 -0.1398 -0.0847 -0.3624
  855POPE   D2A12412   1.457   4.903   6.690  0.0496 -0.0505 -0.0779
  855POPE   C3A12413   1.088   4.711   6.736  0.0886 -0.0680  0.0004
  855POPE   C4A12414   1.014   4.649   7.171 -0.1849  0.2181 -0.2511
  855POPE   C1B12415   2.120   4.342   6.322  0.3557 -0.2945  0.3002
  855POPE   C2B12416   1.907   4.439   6.629  0.3530 -0.1345 -0.0543
  855POPE   C3B12417   1.779   4.447   7.114  0.0041  0.3042 -0.0357
  855POPE   C4B12418   1.418   4.395   7.453 -0.3167  0.2303 -0.0123
  856POPE   NH312419  15.323   1.525   5.817 -0.0972  0.0426 -0.2263
  856POPE   PO412420  15.183   1.147   5.885  0.2171 -0.0499 -0.2260
  856POPE   GL112421  15.206   1.306   6.355 -0.0787 -0.1541  0.2846
  856POPE   GL212422  15.009   1.575   6.207  0.0690  0.0873  0.1447
  856POPE   C1A12423  15.200   1.359   6.703  0.1448 -0.2260  0.3763
  856POPE   D2A12424  15.038   1.577   7.097  0.5667  0.0016 -0.2806
  856POPE   C3A12425  15.297   1.821   7.418  0.1594  0.3669  0.2272
  856POPE   C4A12426  15.580   1.835   7.622  0.1143 -0.0803  0.2985
  856POPE   C1B12427  15.000   1.809   6.510  0.0539  0.4790  0.1942
  856POPE   C2B12428  15.023   2.070   6.945  0.0036 -0.0619  0.2672
  856POPE   C3B12429  15.086   2.260   7.378  0.0025  0.3196  0.0667
  856POPE   C4B12430  15.416   2.269   7.795  0.0119  0.1930  0.1988
  857POPE   NH312431   3.481   4.027   5.829  0.1758 -0.0479  0.3261
  857POPE   PO412432   3.082   3.778   5.868  0.1224  0.1660 -0.3366
  857POPE   GL112433   2.895   4.019   6.092 -0.0091  0.3184  0.1964
  857POPE   GL212434   2.590   3.955   6.153 -0.1553  0.0818  0.2373
  857POPE   C1A12435   3.020   4.087   6.547  0.0827  0.1900  0.0308
  857POPE   D2A12436   2.939   4.006   6.975  0.1291  0.0487  0.0900
  857POPE   C3A12437   3.031   4.253   7.248  0.2081  0.2370 -0.0337
  857POPE   C4A12438   3.005   4.290   7.583  0.1040  0.2973  0.1040
  857POPE   C1B12439   2.543   3.856   6.621 -0.4573  0.1733  0.1653
  857POPE   C2B12440   2.525   3.764   7.019 -0.0223  0.0674  0.0983
  857POPE   C3B12441   2.598   3.985   7.427 -0.0380 -0.2703  0.0502
  857POPE   C4B12442   2.471   3.843   7.820  0.4231 -0.2552 -0.0371
  858POPE   NH312443  13.678  10.436   5.729  0.3665  0.0220 -0.2091
  858POPE   PO412444  13.940  10.602   5.896 -0.1723 -0.1817 -0.0670
  858POPE   GL112445  13.818  10.439   6.261 -0.3102 -0.1800 -0.2815
  858POPE   GL212446  13.768  10.232   6.278 -0.1736 -0.0470 -0.1937
  858POPE   C1A12447  13.769  10.647   6.641 -0.3613 -0.1795 -0.2367
  858POPE   D2A12448  13.740  10.766   7.035  0.2063  0.1314  0.0311
  858POPE   C3A12449  13.398  10.570   7.269  0.0382  0.0402 -0.0984
  858POPE   C4A12450  13.436  10.407   7.691  0.1396 -0.0866 -0.1847
  858POPE   C1B12451  13.593  10.171   6.673  0.4570  0.3090  0.4075
  858POPE   C2B12452  13.556  10.255   6.935 -0.1400 -0.0004 -0.0752
  858POPE   C3B12453  13.789  10.127   7.276  0.1449  0.0937 -0.1408
  858POPE   C4B12454  14.156  10.085   7.601 -0.0571 -0.0988  0.0955
  859POPE   NH312455   3.960   0.980   5.854 -0.1183  0.3009 -0.2239
  859POPE   PO412456   3.735   0.513   5.866 -0.0606  0.1257 -0.3587
  859POPE   GL112457   3.784   0.737   6.253  0.0421  0.0018 -0.1047
  859POPE   GL212458   3.567   0.571   6.364 -0.2502 -0.2045  0.0952
  859POPE   C1A12459   3.910   0.843   6.621  0.0589  0.1078 -0.0974
  859POPE   D2A12460   4.189   0.841   6.945  0.1841  0.1157  0.1880
  859POPE   C3A12461   4.247   0.809   7.336 -0.2858 -0.0257 -0.1995
  859POPE   C4A12462   4.415   0.438   7.605  0.1563  0.1427 -0.2307
  859POPE   C1B12463   3.490   0.547   6.767 -0.1601  0.0498 -0.2850
  859POPE   C2B12464   3.379   0.549   7.240 -0.0026 -0.0354 -0.2087
  859POPE   C3B12465   3.091   0.390   7.482  0.0996  0.0343  0.1557
  859POPE   C4B12466   3.109   0.183   7.962 -0.0164  0.3498 -0.0943
  860POPE   NH312467   5.289  17.074   6.218 -0.6508 -0.3555 -0.1867
  860POPE   PO412468   5.029  17.402   6.130  0.2771  0.1924 -0.0782
  860POPE   GL112469   5.049  17.740   6.374 -0.1490 -0.1762  0.1209
  860POPE   GL212470   5.399  17.672   6.492  0.1047 -0.0245 -0.3303
  860POPE   C1A12471   5.154  18.062   6.723  0.0797 -0.0193 -0.2882
  860POPE   D2A12472   5.451  18.125   7.121 -0.1473  0.0114  0.2622
  860POPE   C3A12473   5.221  18.273   7.461  0.1620  0.0862  0.1011
  860POPE   C4A12474   4.713  18.476   7.471  0.0524  0.3021 -0.2837
  860POPE   C1B12475   5.254  17.614   6.941 -0.1426 -0.1021  0.1724
  860POPE   C2B12476   5.024  17.817   7.255  0.1521 -0.1647  0.0068
  860POPE   C3B12477   4.664  17.879   7.459 -0.0050 -0.0276 -0.1766
  860POPE   C4B12478   4.328  18.172   7.405 -0.0938 -0.0351 -0.0773
  861POPE   NH312479  11.907   3.201   5.682  0.0386  0.1302  0.0145
  861POPE   PO412480  12.288   3.076   5.511  0.1588 -0.1296 -0.3951
  861POPE   GL112481  12.201   3.114   6.027 -0.3206 -0.1462 -0.1150
  861POPE   GL212482  12.510   3.268   6.145  0.0774  0.0692 -0.5471
  861POPE   C1A12483  12.052   2.940   6.487 -0.1185 -0.1553  0.1911
  861POPE   D2A12484  11.957   2.983   6.925 -0.0675 -0.1076  0.1494
  861POPE   C3A12485  12.046   2.676   7.233  0.0375 -0.1561  0.1589
  861POPE   C4A12486  11.845   2.417   7.598 -0.1371  0.1098  0.0538
  861POPE   C1B12487  12.473   3.335   6.616  0.0840  0.0813  0.1645
  861POPE   C2B12488  12.432   3.483   6.985  0.3508 -0.1568 -0.1779
  861POPE   C3B12489  12.257   3.242   7.265 -0.1518  0.0380  0.0913
  861POPE   C4B12490  12.369   3.188   7.757  0.0725 -0.0828 -0.2736
  862POPE   NH312491  13.263   8.435   5.650  0.1238 -0.1764 -0.0727
  862POPE   PO412492  13.317   8.945   5.731 -0.0060  0.0135 -0.0305
  862POPE   GL112493  13.198   8.902   6.133  0.2923  0.0833 -0.1679
  862POPE   GL212494  13.100   8.612   6.157  0.0126  0.0322 -0.0624
  862POPE   C1A12495  13.148   8.786   6.641  0.1684  0.0638  0.0496
  862POPE   D2A12496  13.269   8.561   7.066  0.0697 -0.1018 -0.0906
  862POPE   C3A12497  13.481   8.383   7.444 -0.0280  0.3120 -0.1076
  862POPE   C4A12498  13.759   8.104   7.568 -0.2561 -0.1068 -0.0950
  862POPE   C1B12499  12.765   8.679   6.360  0.0565  0.2031 -0.1289
  862POPE   C2B12500  12.716   8.741   6.865  0.2562 -0.0745  0.0253
  862POPE   C3B12501  12.818   8.446   7.280  0.2684 -0.1717 -0.5135
  862POPE   C4B12502  12.645   8.189   7.641  0.0248 -0.1689 -0.2447
  863POPE   NH312503   9.453   6.802   5.709  0.0238 -0.4007 -0.1193
  863POPE   PO412504   9.603   7.187   5.921 -0.0336 -0.3657 -0.1840
  863POPE   GL112505   9.441   7.543   6.214 -0.1682  0.0507 -0.0470
  863POPE   GL212506   9.428   7.919   6.075  0.1726  0.1446  0.1189
  863POPE   C1A12507   9.479   7.709   6.632 -0.1623  0.0027  0.1246
  863POPE   D2A12508   9.723   8.063   6.810  0.0352  0.0948  0.1012
  863POPE   C3A12509   9.925   8.202   7.094  0.0292 -0.0346 -0.0802
  863POPE   C4A12510   9.921   7.996   7.420  0.0439 -0.0178 -0.0911
  863POPE   C1B12511   9.664   8.190   6.206 -0.0525 -0.2725 -0.3126
  863POPE   C2B12512   9.883   8.575   6.267  0.3072  0.0933  0.1206
  863POPE   C3B12513   9.856   8.982   6.487 -0.0240  0.0174  0.3631
  863POPE   C4B12514   9.989   8.943   6.845  0.3303 -0.1495  0.1204
  864POPE   NH312515   0.135   9.233   5.477 -0.1692  0.1167 -0.1140
  864POPE   PO412516   0.549   9.232   5.290  0.1443  0.1844  0.0324
  864POPE   GL112517   0.500   9.521   5.692  0.1609 -0.2263 -0.1708
  864POPE   GL212518   0.382   9.847   5.934  0.1995 -0.0000  0.0820
  864POPE   C1A12519   0.640   9.389   6.074  0.0179 -0.2468 -0.1433
  864POPE   D2A12520   0.880   9.266   6.444 -0.1286 -0.3764 -0.1755
  864POPE   C3A12521   0.922   8.798   6.557  0.1101  0.1815 -0.0667
  864POPE   C4A12522   0.612   8.539   6.772  0.1651 -0.1398 -0.0054
  864POPE   C1B12523   0.220   9.960   6.282 -0.2681  0.3782 -0.0220
  864POPE   C2B12524   0.321  10.049   6.801 -0.0662 -0.0339 -0.1596
  864POPE   C3B12525   0.580   9.920   7.184  0.1678  0.0084  0.0090
  864POPE   C4B12526   0.796  10.146   7.504 -0.2939 -0.0916 -0.1086
  865POPE   NH312527   5.829  10.251   5.821  0.2589 -0.0208  0.2849
  865POPE   PO412528   6.171  10.361   5.711 -0.0866 -0.3179 -0.1780
  865POPE   GL112529   6.224  10.341   6.142 -0.0883 -0.0929  0.2938
  865POPE   GL212530   6.015  10.471   6.262 -0.2106 -0.3279 -0.0430
  865POPE   C1A12531   6.380  10.104   6.518  0.2545 -0.2099  0.3014
  865POPE   D2A12532   6.192  10.130   7.061 -0.1589  0.0684  0.1778
  865POPE   C3A12533   5.983  10.334   7.395 -0.1372  0.0348  0.0698
  865POPE   C4A12534   5.940  10.515   7.734 -0.1918  0.0120  0.0452
  865POPE   C1B12535   5.964  10.346   6.582  0.0657 -0.1333 -0.0955
  865POPE   C2B12536   5.820  10.483   6.980  0.0773 -0.3585  0.0087
  865POPE   C3B12537   5.540  10.550   7.297 -0.0603 -0.0956  0.0460
  865POPE   C4B12538   5.404  10.591   7.709  0.1070  0.2585  0.0590
  866POPE   NH312539   1.797  14.772   5.576  0.1229  0.3293  0.2753
  866POPE   PO412540   1.910  15.173   5.648 -0.0420  0.2480 -0.2524
  866POPE   GL112541   1.974  15.064   6.061  0.2797  0.0917  0.3345
  866POPE   GL212542   2.133  14.733   5.935  0.2503 -0.1472  0.0770
  866POPE   C1A12543   2.029  15.156   6.507 -0.0114  0.3370 -0.0355
  866POPE   D2A12544   2.118  15.197   6.967  0.0845  0.1050 -0.5255
  866POPE   C3A12545   2.454  15.050   7.202  0.1586 -0.0328  0.2319
  866POPE   C4A12546   2.726  14.797   7.374 -0.1293  0.0925 -0.1697
  866POPE   C1B12547   2.215  14.677   6.350 -0.3720  0.0199 -0.0548
  866POPE   C2B12548   2.376  14.735   6.776 -0.4009  0.3607 -0.0894
  866POPE   C3B12549   2.438  14.430   7.030 -0.1405  0.1734  0.3602
  866POPE   C4B12550   2.455  14.178   7.441  0.0144  0.0533 -0.4906
  867POPE   NH312551   2.069  13.071   5.549 -0.2054 -0.3280  0.1778
  867POPE   PO412552   1.791  12.758   5.466 -0.1412 -0.1840  0.2072
  867POPE   GL112553   1.838  12.830   5.885 -0.2588  0.1145 -0.1168
  867POPE   GL212554   1.688  13.083   6.109  0.1124 -0.1075  0.0912
  867POPE   C1A12555   2.049  12.856   6.335  0.2854 -0.1903 -0.1717
  867POPE   D2A12556   1.913  12.831   6.782  0.2227  0.0579 -0.4450
  867POPE   C3A12557   1.771  12.455   7.005 -0.1381 -0.4089 -0.1738
  867POPE   C4A12558   1.694  12.271   7.318  0.0799  0.0771  0.0371
  867POPE   C1B12559   1.633  13.391   6.352 -0.0107  0.3745  0.2774
  867POPE   C2B12560   1.342  13.553   6.706  0.1569 -0.1950 -0.3973
  867POPE   C3B12561   1.303  13.426   7.154  0.0373  0.3017 -0.0911
  867POPE   C4B12562   1.065  13.460   7.473 -0.0636  0.0392  0.0037
  868POPE   NH312563  14.488  18.039   5.551  0.0434 -0.1533  0.3248
  868POPE   PO412564  14.121  18.247   5.781 -0.0302 -0.3487 -0.1584
  868POPE   GL112565  14.086  18.517   6.234  0.0426  0.1093  0.2286
  868POPE   GL212566  14.346  18.591   6.383 -0.2002  0.0055 -0.1572
  868POPE   C1A12567  13.890  18.363   6.674 -0.4178 -0.0219  0.2413
  868POPE   D2A12568  13.933  18.654   7.027  0.0895 -0.0681  0.1893
  868POPE   C3A12569  14.135  18.616   7.441 -0.1310  0.1228 -0.0698
  868POPE   C4A12570  14.158  18.293   7.827  0.0989  0.0033  0.2184
  868POPE   C1B12571  14.298  18.875   6.586 -0.2506 -0.1161  0.3412
  868POPE   C2B12572  14.044  19.236   6.478  0.1635  0.1740  0.2615
  868POPE   C3B12573  13.803  19.449   6.801 -0.2329 -0.1560 -0.0484
  868POPE   C4B12574  13.564  19.546   7.228 -0.1666  0.1789 -0.2333
  869POPE   NH312575  10.554   5.132   5.621  0.0342  0.2320  0.1413
  869POPE   PO412576  10.809   5.496   5.763  0.0755  0.1305 -0.0642
  869POPE   GL112577  10.605   5.190   6.154  0.1315  0.1044 -0.2564
  869POPE   GL212578  10.376   4.863   6.095  0.1726  0.0207 -0.3351
  869POPE   C1A12579  10.628   5.278   6.656 -0.1766  0.2624 -0.1251
  869POPE   D2A12580  10.636   5.105   7.074 -0.1080 -0.1076 -0.2065
  869POPE   C3A12581  10.470   5.303   7.356 -0.0328  0.2292  0.0766
  869POPE   C4A12582  10.533   5.572   7.770 -0.0398 -0.0868  0.1579
  869POPE   C1B12583  10.450   4.825   6.492  0.0996  0.0962  0.2961
  869POPE   C2B12584  10.183   4.946   6.905  0.1429 -0.0844  0.0760
  869POPE   C3B12585  10.238   4.867   7.241  0.1997 -0.0873 -0.2083
  869POPE   C4B12586  10.131   5.094   7.713  0.0414 -0.0821  0.2201
  870POPE   NH312587  13.093  12.732   5.747  0.1873  0.3709  0.0994
  870POPE   PO412588  12.929  12.261   5.683 -0.0689 -0.0264  0.1640
  870POPE   GL112589  12.962  12.187   6.104 -0.1234  0.1113  0.2771
  870POPE   GL212590  13.003  12.513   6.176 -0.0041  0.0776  0.2087
  870POPE   C1A12591  13.081  12.052   6.472 -0.1249 -0.0547 -0.1195
  870POPE   D2A12592  12.940  12.089   6.871 -0.1233 -0.1512 -0.1779
  870POPE   C3A12593  12.705  11.859   7.065  0.1138 -0.0833  0.3488
  870POPE   C4A12594  12.560  11.523   7.047  0.1237  0.3737 -0.2124
  870POPE   C1B12595  13.106  12.600   6.629  0.0534 -0.1145 -0.0418
  870POPE   C2B12596  13.110  12.545   6.998  0.4589 -0.3348  0.3734
  870POPE   C3B12597  13.046  12.652   7.359 -0.0691 -0.2088 -0.1483
  870POPE   C4B12598  12.894  12.381   7.776  0.0031 -0.0940  0.0999
  871YOPE   NH312599  12.824  14.885   5.754 -0.2637  0.3411  0.3161
  871YOPE   PO412600  12.471  14.862   5.582 -0.0795 -0.2344 -0.0821
  871YOPE   GL112601  12.344  14.737   5.994  0.0593  0.3035 -0.2087
  871YOPE   GL212602  12.050  14.513   6.060  0.0459 -0.0076  0.1743
  871YOPE   C1A12603  12.486  14.663   6.455 -0.2578  0.2775  0.0967
  871YOPE   D2A12604  12.675  14.462   6.851 -0.2353 -0.0374  0.0537
  871YOPE   C3A12605  12.385  14.691   7.287 -0.0262  0.0540 -0.1434
  871YOPE   C4A12606  12.186  14.638   7.696  0.1137 -0.3786  0.0871
  871YOPE   C1B12607  11.886  14.390   6.559  0.2006  0.0225  0.3881
  871YOPE   C2B12608  12.120  14.352   6.946 -0.1195  0.0384  0.1335
  871YOPE   D3B12609  12.092  14.251   7.408  0.0466 -0.1506  0.0829
  871YOPE   C4B12610  11.897  14.182   7.796  0.0449  0.0372  0.0033
  872YOPE   NH312611  12.922   6.382   5.994 -0.3419  0.3059  0.0889
  872YOPE   PO412612  13.322   6.429   6.044  0.2591  0.1721  0.0392
  872YOPE   GL112613  13.388   6.309   6.399  0.1483 -0.1861 -0.0074
  872YOPE   GL212614  13.193   6.105   6.446  0.0142 -0.4833 -0.2220
  872YOPE   C1A12615  13.522   6.564   6.775 -0.1405 -0.1506 -0.0996
  872YOPE   D2A12616  13.430   6.559   7.141  0.0239 -0.0630 -0.3077
  872YOPE   C3A12617  13.587   6.736   7.480 -0.1027  0.2935  0.1776
  872YOPE   C4A12618  13.821   6.606   7.873  0.0229 -0.1124  0.1675
  872YOPE   C1B12619  13.199   6.169   6.974 -0.0620 -0.1756 -0.0307
  872YOPE   C2B12620  13.217   6.085   7.389 -0.1053  0.2080 -0.0155
  872YOPE   D3B12621  13.175   6.462   7.772 -0.1968 -0.1049 -0.2356
  872YOPE   C4B12622  12.885   6.535   8.129 -0.0616 -0.1198 -0.0046
  873YOPE   NH312623  13.518   2.815   5.598  0.3948 -0.0688  0.0035
  873YOPE   PO412624  13.565   3.223   5.910 -0.0581  0.2768 -0.0872
  873YOPE   GL112625  13.768   3.164   6.325 -0.0510 -0.2721 -0.0491
  873YOPE   GL212626  14.051   3.394   6.519 -0.0554  0.0281 -0.0892
  873YOPE   C1A12627  13.850   3.069   6.814  0.0252 -0.2442  0.0571
  873YOPE   D2A12628  13.889   3.142   7.296  0.0678  0.0921  0.1257
  873YOPE   C3A12629  13.658   2.736   7.543  0.0002  0.2193  0.2369
  873YOPE   C4A12630  13.675   2.308   7.716  0.0999 -0.1095  0.1186
  873YOPE   C1B12631  14.187   3.779   6.616  0.1807  0.1855 -0.3149
  873YOPE   C2B12632  14.431   3.997   6.995 -0.2060  0.3315 -0.0073
  873YOPE   D3B12633  14.674   3.730   7.360  0.0663 -0.3404 -0.1827
  873YOPE   C4B12634  14.617   3.550   7.739 -0.2127  0.1348 -0.0296
  874YOPE   NH312635  10.616  11.147   6.315 -0.0703  0.0731 -0.0919
  874YOPE   PO412636  10.077  10.997   6.308 -0.2682  0.0085 -0.0558
  874YOPE   GL112637   9.857  10.697   6.571 -0.3465 -0.1345 -0.1609
  874YOPE   GL212638   9.484  10.687   6.586  0.1106  0.1377  0.1291
  874YOPE   C1A12639  10.077  10.457   6.876  0.1663  0.1832  0.1265
  874YOPE   D2A12640  10.080  10.480   7.291  0.0961  0.1241 -0.1142
  874YOPE   C3A12641  10.296  10.469   7.788 -0.0721  0.0569 -0.1712
  874YOPE   C4A12642  10.645  10.563   8.070 -0.2013 -0.0348  0.0513
  874YOPE   C1B12643   9.487  10.507   7.020 -0.2334 -0.1508 -0.1232
  874YOPE   C2B12644   9.616  10.341   7.353 -0.0274  0.0678  0.2418
  874YOPE   D3B12645   9.690  10.232   7.710 -0.2449 -0.1069 -0.1288
  874YOPE   C4B12646   9.992  10.042   7.897 -0.1387 -0.2324  0.2330
  875YOPE   NH312647  16.221   9.975   5.682  0.0929 -0.0021 -0.0688
  875YOPE   PO412648  15.919   9.720   5.479  0.2636 -0.2240 -0.1595
  875YOPE   GL112649  15.790   9.768   5.958 -0.0208  0.0353 -0.4401
  875YOPE   GL212650  16.070   9.529   6.014  0.1833  0.3377  0.0402
  875YOPE   C1A12651  15.902   9.763   6.478 -0.1309 -0.3474 -0.0473
  875YOPE   D2A12652  15.868   9.847   7.021  0.0817 -0.0038 -0.0998
  875YOPE   C3A12653  15.903  10.208   7.296  0.0204 -0.4100  0.0689
  875YOPE   C4A12654  15.792  10.523   7.622 -0.0122 -0.2011 -0.1353
  875YOPE   C1B12655  16.184   9.285   6.479  0.0707 -0.1314  0.0672
  875YOPE   C2B12656  15.919   9.378   6.858 -0.0885  0.0351 -0.3107
  875YOPE   D3B12657  15.997   9.328   7.283  0.0211  0.0713  0.2254
  875YOPE   C4B12658  15.953   9.736   7.533 -0.0855 -0.0328 -0.0239
  876YOPE   NH312659   8.804   2.979   5.746 -0.3002  0.1026 -0.0548
  876YOPE   PO412660   8.439   3.183   5.892 -0.3014  0.1208 -0.1189
  876YOPE   GL112661   8.639   3.057   6.242 -0.0542 -0.0882  0.2685
  876YOPE   GL212662   8.932   2.838   6.266 -0.0765  0.0209  0.0208
  876YOPE   C1A12663   8.557   2.878   6.561 -0.2600 -0.1280  0.2515
  876YOPE   D2A12664   8.733   2.802   6.909  0.0016  0.0829 -0.0889
  876YOPE   C3A12665   8.579   2.867   7.217 -0.0798 -0.0445 -0.0159
  876YOPE   C4A12666   8.576   3.178   7.512  0.0570  0.0187 -0.1613
  876YOPE   C1B12667   9.032   3.149   6.586 -0.2212  0.1254 -0.2038
  876YOPE   C2B12668   9.149   3.529   6.780 -0.3100 -0.1984 -0.2125
  876YOPE   D3B12669   9.048   3.852   6.973 -0.0792 -0.1763 -0.3248
  876YOPE   C4B12670   8.896   4.167   7.054 -0.3149 -0.3555 -0.0418
  877YOPE   NH312671   0.265  18.036   5.806 -0.0578 -0.1351  0.2212
  877YOPE   PO412672   0.679  18.201   5.888  0.1553  0.1213 -0.0488
  877YOPE   GL112673   0.537  18.033   6.236  0.1983  0.2053 -0.0670
  877YOPE   GL212674   0.800  18.130   6.394 -0.1609  0.0932  0.0498
  877YOPE   C1A12675   0.421  17.832   6.659 -0.0821  0.1381 -0.3735
  877YOPE   D2A12676   0.425  17.822   7.075 -0.0957  0.1754 -0.1505
  877YOPE   C3A12677   0.024  17.897   7.383  0.0378 -0.0194  0.0771
  877YOPE   C4A12678  -0.132  17.943   7.759 -0.0300  0.1540  0.0851
  877YOPE   C1B12679   0.621  18.258   6.822  0.1441  0.3165  0.1643
  877YOPE   C2B12680   0.605  18.249   7.224 -0.0412  0.0822 -0.1198
  877YOPE   D3B12681   0.516  18.015   7.568 -0.0258 -0.1280  0.0153
  877YOPE   C4B12682   0.657  18.114   7.948  0.0106 -0.1820  0.2796
  878YOPE   NH312683  17.053   0.413   5.657 -0.1698  0.3445 -0.0467
  878YOPE   PO412684  16.858   0.707   5.855 -0.0699  0.0227  0.4173
  878YOPE   GL112685  16.702   0.687   6.326  0.0575 -0.2924  0.3280
  878YOPE   GL212686  16.542   0.836   6.431 -0.0119  0.1530  0.0111
  878YOPE   C1A12687  16.857   0.320   6.486  0.4217 -0.0796  0.1327
  878YOPE   D2A12688  16.742  -0.131   6.551 -0.2126 -0.2371  0.1801
  878YOPE   C3A12689  17.135  -0.203   6.635 -0.2780 -0.0301 -0.0844
  878YOPE   C4A12690  17.513  -0.254   6.882 -0.0599  0.0481  0.2279
  878YOPE   C1B12691  16.715   0.754   6.887  0.0315 -0.0932  0.1485
  878YOPE   C2B12692  16.862   0.342   7.174 -0.0895  0.1142  0.2403
  878YOPE   D3B12693  16.823  -0.025   7.036 -0.0585  0.2458  0.1286
  878YOPE   C4B12694  16.403  -0.201   7.005 -0.1882  0.1537  0.1700
  879YOPE   NH312695   4.193  18.024   5.662 -0.0518 -0.1177  0.0704
  879YOPE   PO412696   4.414  18.306   5.910  0.1945 -0.3545 -0.1586
  879YOPE   GL112697   4.283  18.394   6.320 -0.0030  0.0240 -0.1799
  879YOPE   GL212698   3.969  18.466   6.352  0.0489 -0.0691 -0.2252
  879YOPE   C1A12699   4.173  18.422   6.797 -0.4784  0.0337 -0.1655
  879YOPE   D2A12700   3.949  18.806   6.845  0.1424 -0.2474 -0.1999
  879YOPE   C3A12701   3.831  18.927   7.158 -0.0991 -0.0925 -0.3181
  879YOPE   C4A12702   3.540  18.703   7.557  0.1169 -0.2167 -0.0308
  879YOPE   C1B12703   4.143  18.870   6.405 -0.1557 -0.0561  0.0399
  879YOPE   C2B12704   4.465  19.001   6.641 -0.3256  0.1320  0.0059
  879YOPE   D3B12705   4.744  19.188   6.843  0.0298 -0.3574  0.0246
  879YOPE   C4B12706   4.697  19.283   7.268  0.0523  0.0590  0.2746
  880YOPE   NH312707   8.821  14.371   6.361 -0.2890  0.1740 -0.2367
  880YOPE   PO412708   9.152  14.788   6.311 -0.0677 -0.3709  0.0186
  880YOPE   GL112709   9.167  14.586   6.626 -0.1692 -0.1165 -0.0951
  880YOPE   GL212710   9.392  14.581   6.788  0.2106 -0.2073 -0.0761
  880YOPE   C1A12711   8.876  14.455   6.940  0.2702  0.0972  0.1720
  880YOPE   D2A12712   8.726  14.485   7.355 -0.0375 -0.1202  0.1965
  880YOPE   C3A12713   8.933  14.801   7.644 -0.0117 -0.1272 -0.1866
  880YOPE   C4A12714   9.078  15.052   8.032  0.0764 -0.3750  0.0991
  880YOPE   C1B12715   9.575  14.506   7.092  0.2227  0.1562  0.1321
  880YOPE   C2B12716   9.836  14.492   7.361 -0.0040 -0.0704  0.1001
  880YOPE   D3B12717   9.836  14.509   7.798 -0.0270  0.0056 -0.4405
  880YOPE   C4B12718   9.825  14.377   8.207 -0.0676  0.1760 -0.1015
  881YOPE   NH312719   7.313   5.441   5.583 -0.1487  0.2034  0.0635
  881YOPE   PO412720   7.367   5.858   5.479 -0.1958  0.1058  0.0157
  881YOPE   GL112721   7.175   5.825   5.902  0.0040 -0.0392 -0.2670
  881YOPE   GL212722   7.505   5.828   6.002  0.0280  0.1295 -0.2226
  881YOPE   C1A12723   7.159   5.628   6.260  0.3425 -0.0002  0.1019
  881YOPE   D2A12724   7.188   5.661   6.594  0.0218 -0.2284  0.1514
  881YOPE   C3A12725   7.636   5.673   6.706  0.0265  0.4924  0.3092
  881YOPE   C4A12726   7.993   5.637   6.994 -0.0374 -0.1425 -0.1525
  881YOPE   C1B12727   7.788   5.988   6.353  0.0025  0.1539 -0.1516
  881YOPE   C2B12728   7.927   6.071   6.759 -0.0535  0.0421  0.1606
  881YOPE   D3B12729   7.801   6.085   7.163 -0.0558  0.0833 -0.0714
  881YOPE   C4B12730   7.795   6.004   7.645 -0.0894 -0.2440  0.1744
  882YOPE   NH312731   9.772  13.280   6.000 -0.0655  0.3393  0.1840
  882YOPE   PO412732  10.183  13.549   5.924 -0.2730  0.0040 -0.1845
  882YOPE   GL112733  10.124  13.485   6.391  0.2604 -0.0890  0.1965
  882YOPE   GL212734   9.855  13.399   6.533 -0.3100  0.0099  0.0534
  882YOPE   C1A12735  10.408  13.429   6.744 -0.1467  0.1845  0.0637
  882YOPE   D2A12736  10.636  13.335   7.147  0.0305  0.1458  0.1436
  882YOPE   C3A12737  10.513  13.447   7.464  0.3310 -0.1072 -0.1400
  882YOPE   C4A12738  10.477  13.803   7.623 -0.0686  0.1873  0.1508
  882YOPE   C1B12739   9.832  13.316   6.881 -0.1894  0.1294 -0.1460
  882YOPE   C2B12740  10.024  13.480   7.224 -0.1201 -0.0077 -0.3198
  882YOPE   D3B12741  10.076  13.520   7.701  0.1724  0.0656  0.1205
  882YOPE   C4B12742  10.492  13.365   8.012  0.0200 -0.0211  0.1064
  883YOPE   NH312743   7.319   2.024   5.582 -0.2165  0.1293 -0.0833
  883YOPE   PO412744   7.604   2.284   5.632  0.0214 -0.2339 -0.0638
  883YOPE   GL112745   7.665   2.439   6.010 -0.0288 -0.1194 -0.1307
  883YOPE   GL212746   7.595   2.167   6.098 -0.1281 -0.0267  0.0569
  883YOPE   C1A12747   7.718   2.557   6.392  0.1292  0.2556 -0.1015
  883YOPE   D2A12748   7.552   2.458   6.768 -0.1528  0.1684  0.0060
  883YOPE   C3A12749   7.468   2.089   6.918 -0.0604  0.0350  0.1497
  883YOPE   C4A12750   7.262   1.839   7.152 -0.1436 -0.0594 -0.2127
  883YOPE   C1B12751   7.248   2.056   6.431 -0.0753  0.1620  0.0812
  883YOPE   C2B12752   7.027   1.739   6.702 -0.4472  0.0645  0.1290
  883YOPE   D3B12753   6.964   1.460   6.982 -0.1669  0.3285 -0.2492
  883YOPE   C4B12754   6.876   1.423   7.365 -0.3122  0.0095 -0.0173
  884YOPE   NH312755  11.493  10.997   6.234 -0.1242  0.0998  0.2569
  884YOPE   PO412756  11.032  10.940   6.078 -0.0525  0.0880  0.2691
  884YOPE   GL112757  11.123  11.131   6.591 -0.0885  0.2861  0.0022
  884YOPE   GL212758  10.842  11.000   6.748 -0.0659  0.1196 -0.1822
  884YOPE   C1A12759  11.185  11.187   7.090 -0.1743 -0.0090 -0.0601
  884YOPE   D2A12760  11.332  11.378   7.575 -0.0938 -0.1644 -0.2244
  884YOPE   C3A12761  11.509  11.599   7.727  0.2444  0.0577  0.1487
  884YOPE   C4A12762  11.686  11.994   7.861  0.2650 -0.0055  0.0323
  884YOPE   C1B12763  10.659  11.313   7.115  0.1088  0.0509 -0.0695
  884YOPE   C2B12764  10.755  11.414   7.575 -0.2891 -0.0338 -0.1784
  884YOPE   D3B12765  10.883  11.528   8.017  0.4029 -0.2580  0.1097
  884YOPE   C4B12766  11.023  11.743   8.362  0.0205 -0.3822 -0.1616
  885YOPE   NH312767  12.228   7.366   5.753 -0.1896  0.0206  0.0616
  885YOPE   PO412768  11.936   7.671   5.762 -0.0258  0.0498 -0.0101
  885YOPE   GL112769  11.956   7.621   6.124  0.0124  0.1318 -0.2201
  885YOPE   GL212770  11.858   7.931   6.322  0.2373 -0.1414 -0.1848
  885YOPE   C1A12771  11.661   7.495   6.528 -0.0274  0.4503  0.0008
  885YOPE   D2A12772  11.639   7.520   6.944  0.0901 -0.1106  0.0402
  885YOPE   C3A12773  11.883   7.178   7.343  0.3382 -0.2267 -0.2682
  885YOPE   C4A12774  11.830   6.831   7.672  0.0533  0.0085  0.1119
  885YOPE   C1B12775  12.175   7.883   6.552  0.1280  0.1887 -0.0633
  885YOPE   C2B12776  12.411   7.928   6.882  0.2067 -0.0799  0.0998
  885YOPE   D3B12777  12.555   7.881   7.252 -0.3913 -0.3599 -0.2542
  885YOPE   C4B12778  12.974   7.660   7.454 -0.2409 -0.4262 -0.2582
  886YOPE   NH312779  16.983  15.446   5.877  0.2808  0.1274 -0.1151
  886YOPE   PO412780  17.379  15.196   5.886 -0.2652  0.1690 -0.2683
  886YOPE   GL112781  17.178  15.239   6.347  0.0857  0.1766  0.0790
  886YOPE   GL212782  17.066  14.986   6.514 -0.2246 -0.3026 -0.2238
  886YOPE   C1A12783  17.400  15.451   6.674  0.1063 -0.2983  0.0347
  886YOPE   D2A12784  17.529  15.524   7.067 -0.0102 -0.1083  0.1611
  886YOPE   C3A12785  17.852  15.498   7.438  0.0295  0.2669 -0.1624
  886YOPE   C4A12786  17.941  15.712   7.883 -0.0680 -0.1560 -0.1972
  886YOPE   C1B12787  17.028  14.674   6.744  0.2056 -0.1786 -0.1268
  886YOPE   C2B12788  17.269  14.440   7.145  0.0318  0.0073 -0.0722
  886YOPE   D3B12789  17.419  14.352   7.503 -0.1242 -0.1296 -0.1401
  886YOPE   C4B12790  17.222  14.332   7.964 -0.0757 -0.1457 -0.5009
  887YOPE   NH312791  14.646   8.344   5.680 -0.2604 -0.0021 -0.2112
  887YOPE   PO412792  14.999   8.134   5.550  0.0873  0.2043  0.1177
  887YOPE   GL112793  14.907   7.878   6.032  0.0029 -0.1430 -0.3241
  887YOPE   GL212794  14.833   8.061   6.358 -0.0172  0.2447 -0.0164
  887YOPE   C1A12795  15.154   7.703   6.419 -0.1173 -0.1068  0.1182
  887YOPE   D2A12796  15.020   7.877   6.864  0.3542  0.3496 -0.0554
  887YOPE   C3A12797  14.999   7.721   7.298 -0.2153 -0.1242  0.2911
  887YOPE   C4A12798  14.993   7.511   7.818  0.0319 -0.0217  0.2152
  887YOPE   C1B12799  14.563   8.115   6.815 -0.1885 -0.4035  0.1065
  887YOPE   C2B12800  14.528   7.925   7.295  0.0351 -0.1367  0.0917
  887YOPE   D3B12801  14.478   7.646   7.645 -0.0923  0.5286  0.0582
  887YOPE   C4B12802  14.248   7.381   7.842  0.1380  0.0229  0.3247
  888YOPE   NH312803   3.296  12.061   5.609  0.1094  0.3695  0.0131
  888YOPE   PO412804   2.990  12.194   5.758  0.3683 -0.2644 -0.0350
  888YOPE   GL112805   2.983  11.926   5.995  0.0376 -0.2941 -0.1840
  888YOPE   GL212806   3.208  11.658   5.895  0.0356 -0.0743  0.4420
  888YOPE   C1A12807   2.888  11.928   6.380 -0.0379  0.2316 -0.0038
  888YOPE   D2A12808   2.840  11.888   6.813 -0.0079  0.1340  0.0524
  888YOPE   C3A12809   2.528  11.994   7.193 -0.1759 -0.0271  0.2021
  888YOPE   C4A12810   2.667  12.224   7.551 -0.1080  0.1783 -0.0448
  888YOPE   C1B12811   3.321  11.601   6.324 -0.0495  0.0429 -0.1303
  888YOPE   C2B12812   3.283  11.724   6.693 -0.3594  0.1520  0.0967
  888YOPE   D3B12813   3.278  11.763   7.134  0.2514  0.0862 -0.0947
  888YOPE   C4B12814   2.939  11.865   7.438 -0.2027  0.0481 -0.1599
  889YOPE   NH312815  18.291   6.818   5.689  0.0452 -0.4112  0.1635
  889YOPE   PO412816  17.962   6.807   5.491 -0.1332  0.0141 -0.0091
  889YOPE   GL112817  17.665   6.852   5.738 -0.1118 -0.0324  0.1477
  889YOPE   GL212818  17.417   6.653   5.814  0.2670  0.1257 -0.1770
  889YOPE   C1A12819  17.720   6.955   6.182  0.1423 -0.3329  0.1184
  889YOPE   D2A12820  17.544   6.987   6.636 -0.2107  0.2386 -0.0240
  889YOPE   C3A12821  17.659   7.077   7.030 -0.3118  0.1891 -0.0890
  889YOPE   C4A12822  17.831   6.970   7.358 -0.0153 -0.2660  0.0936
  889YOPE   C1B12823  17.584   6.415   6.189 -0.1891  0.2022 -0.1116
  889YOPE   C2B12824  17.870   6.533   6.531  0.0957 -0.0047  0.0050
  889YOPE   D3B12825  18.271   6.299   6.734  0.2825 -0.2051 -0.1837
  889YOPE   C4B12826  18.627   6.279   6.937  0.0207 -0.3701 -0.0842
  890YOPE   NH312827   6.408   6.807   5.497 -0.2994  0.0972 -0.1731
  890YOPE   PO412828   6.767   6.853   5.722  0.0810  0.0431 -0.1937
  890YOPE   GL112829   6.944   6.855   6.039  0.0781 -0.0179  0.3195
  890YOPE   GL212830   7.004   7.125   6.107  0.2316  0.0776  0.0374
  890YOPE   C1A12831   7.158   6.618   6.336 -0.1198  0.0425  0.0135
  890YOPE   D2A12832   7.185   6.705   6.743  0.0308  0.0264 -0.0237
  890YOPE   C3A12833   6.802   6.460   7.002  0.2505  0.0061 -0.2527
  890YOPE   C4A12834   6.338   6.270   6.797 -0.0613 -0.0670 -0.3440
  890YOPE   C1B12835   7.105   7.134   6.439 -0.0214 -0.2352 -0.2916
  890YOPE   C2B12836   7.123   7.345   6.856 -0.2588  0.4275  0.2106
  890YOPE   D3B12837   6.996   7.215   7.302 -0.2238  0.1942  0.0737
  890YOPE   C4B12838   6.899   7.339   7.738  0.1443  0.1622  0.1100
  891YOPE   NH312839  14.552  18.105   6.044 -0.0898 -0.0535  0.3004
  891YOPE   PO412840  14.230  17.729   5.841 -0.1922 -0.1142 -0.3776
  891YOPE   GL112841  14.244  17.719   6.207  0.2351  0.0568  0.1521
  891YOPE   GL212842  13.965  17.945   6.247  0.3419 -0.2963 -0.1236
  891YOPE   C1A12843  14.325  17.559   6.607 -0.2619 -0.2342  0.1050
  891YOPE   D2A12844  14.167  17.320   6.989  0.1846  0.0223 -0.0451
  891YOPE   C3A12845  14.364  17.353   7.363 -0.0139 -0.1204  0.0091
  891YOPE   C4A12846  14.716  17.260   7.507  0.0469 -0.0957 -0.0232
  891YOPE   C1B12847  13.924  17.818   6.711  0.1806 -0.2088  0.0758
  891YOPE   C2B12848  13.874  17.685   7.145 -0.3116  0.1133  0.1827
  891YOPE   D3B12849  13.876  17.494   7.523 -0.1232  0.0917 -0.0282
  891YOPE   C4B12850  13.760  17.227   7.919  0.0143 -0.0862 -0.2005
  892YOPE   NH312851   3.857   3.663   5.961 -0.2729 -0.3739 -0.0447
  892YOPE   PO412852   3.517   3.456   5.950 -0.0821 -0.3566 -0.0085
  892YOPE   GL112853   3.264   3.439   6.329  0.0811 -0.0587  0.4006
  892YOPE   GL212854   2.944   3.397   6.200 -0.0067  0.1767 -0.0637
  892YOPE   C1A12855   2.953   3.543   6.721 -0.2722  0.4810  0.1625
  892YOPE   D2A12856   2.946   3.536   7.105  0.2764 -0.1453  0.0244
  892YOPE   C3A12857   3.127   3.772   7.503 -0.1583  0.2081 -0.0197
  892YOPE   C4A12858   3.429   4.029   7.596  0.2459 -0.0662  0.1872
  892YOPE   C1B12859   2.811   3.036   6.468  0.1126 -0.1249  0.1861
  892YOPE   C2B12860   2.702   3.072   6.889  0.1799 -0.1660 -0.1179
  892YOPE   D3B12861   2.601   3.137   7.323  0.1232 -0.1317 -0.0484
  892YOPE   C4B12862   2.782   3.413   7.566 -0.0468  0.0187  0.2799
  893YOPE   NH312863  12.094   0.866   5.584 -0.1664  0.0966  0.0499
  893YOPE   PO412864  11.743   0.738   5.725 -0.0349 -0.3696 -0.0321
  893YOPE   GL112865  11.942   0.548   6.197  0.0117  0.3740 -0.1025
  893YOPE   GL212866  12.028   0.239   6.285 -0.1695 -0.2411 -0.0006
  893YOPE   C1A12867  11.961   0.555   6.624 -0.0484  0.0529 -0.0033
  893YOPE   D2A12868  11.882   0.500   7.039  0.1074 -0.1008 -0.1862
  893YOPE   C3A12869  11.721   0.590   7.448 -0.0980  0.1288  0.1269
  893YOPE   C4A12870  11.633   0.762   7.813  0.3210  0.0017 -0.3707
  893YOPE   C1B12871  11.855  -0.229   6.421  0.3812  0.0876  0.0929
  893YOPE   C2B12872  12.090  -0.585   6.539  0.2986 -0.0561 -0.2117
  893YOPE   D3B12873  12.574  -0.606   6.651 -0.0963 -0.0839 -0.0236
  893YOPE   C4B12874  12.953  -0.511   6.915 -0.1093 -0.2389 -0.2235
  894YOPE   NH312875   7.488   9.939   5.650  0.2492  0.2657 -0.2269
  894YOPE   PO412876   7.879  10.073   5.715  0.0872 -0.1011 -0.1094
  894YOPE   GL112877   8.079   9.980   6.121 -0.4683  0.2744 -0.0217
  894YOPE   GL212878   8.144   9.641   6.134 -0.0381  0.0732 -0.1352
  894YOPE   C1A12879   8.454   9.874   6.402 -0.0169 -0.2641  0.0090
  894YOPE   D2A12880   8.891   9.940   6.603  0.0575  0.0982  0.0355
  894YOPE   C3A12881   8.965   9.900   6.998 -0.1131 -0.0122 -0.0343
  894YOPE   C4A12882   9.229   9.979   7.342  0.4547 -0.0781  0.0459
  894YOPE   C1B12883   8.096   9.471   6.589  0.1965 -0.1651  0.0093
  894YOPE   C2B12884   8.047   9.305   7.054  0.0148 -0.1997  0.0514
  894YOPE   D3B12885   7.970   9.351   7.438  0.0580  0.1078  0.1134
  894YOPE   C4B12886   7.941   9.357   7.847  0.1144 -0.1992  0.1323
  895YOPE   NH312887  17.950   7.803   5.665  0.1386  0.1214 -0.2389
  895YOPE   PO412888  18.020   8.254   5.837 -0.1327 -0.3666 -0.2122
  895YOPE   GL112889  18.128   8.077   6.189  0.2304 -0.0377  0.2226
  895YOPE   GL212890  18.269   7.755   6.123  0.0745 -0.4371  0.0708
  895YOPE   C1A12891  18.183   8.318   6.511 -0.0401  0.1420  0.0312
  895YOPE   D2A12892  18.060   8.446   6.902  0.2573  0.3447 -0.2434
  895YOPE   C3A12893  18.103   8.606   7.186 -0.3862 -0.1062  0.0453
  895YOPE   C4A12894  18.276   8.885   7.443  0.0515  0.3832  0.1736
  895YOPE   C1B12895  18.247   7.560   6.444  0.2091 -0.2389 -0.2531
  895YOPE   C2B12896  18.176   7.439   6.869  0.1037 -0.3146  0.0811
  895YOPE   D3B12897  18.349   7.691   7.243  0.0597  0.1661 -0.0147
  895YOPE   C4B12898  18.232   7.804   7.730 -0.1951 -0.3108 -0.0894
  896YOPE   NH312899  15.170  17.628   5.886 -0.0856  0.0654 -0.0819
  896YOPE   PO412900  15.148  17.218   5.916 -0.4574 -0.0256 -0.1290
  896YOPE   GL112901  14.822  17.044   6.171  0.1492 -0.0323  0.0778
  896YOPE   GL212902  14.725  17.278   6.439 -0.0163  0.0635  0.0562
  896YOPE   C1A12903  14.561  16.809   6.290 -0.0389 -0.2001  0.0081
  896YOPE   D2A12904  14.289  16.938   6.646 -0.2571 -0.0496  0.0642
  896YOPE   C3A12905  14.002  16.883   7.006 -0.1568  0.2545  0.1688
  896YOPE   C4A12906  13.981  17.012   7.419 -0.3254  0.0733 -0.2065
  896YOPE   C1B12907  14.651  17.156   6.982  0.0392 -0.0130  0.0169
  896YOPE   C2B12908  14.491  16.806   7.278 -0.0488 -0.0437  0.1791
  896YOPE   D3B12909  14.364  16.750   7.686  0.0234  0.2780 -0.1726
  896YOPE   C4B12910  13.966  16.779   7.879  0.0305  0.0339 -0.0749
  897YOPE   NH312911   8.045  10.505   5.938 -0.0428  0.0510 -0.3266
  897YOPE   PO412912   7.717  10.820   6.008  0.1047  0.2061  0.0479
  897YOPE   GL112913   7.730  10.562   6.329 -0.2109 -0.1893 -0.0760
  897YOPE   GL212914   7.846  10.310   6.356 -0.1528 -0.1610  0.3243
  897YOPE   C1A12915   7.372  10.684   6.676 -0.1731  0.0349  0.0432
  897YOPE   D2A12916   7.176  10.736   7.111 -0.0619  0.0758  0.0149
  897YOPE   C3A12917   7.365  10.877   7.559 -0.2742 -0.0328  0.0903
  897YOPE   C4A12918   7.879  10.900   7.630 -0.3809  0.4621  0.0121
  897YOPE   C1B12919   7.954  10.020   6.584 -0.2645 -0.1984  0.2107
  897YOPE   C2B12920   8.139   9.847   6.957 -0.1966  0.1699  0.0567
  897YOPE   D3B12921   8.179   9.788   7.310  0.0731 -0.2011 -0.2787
  897YOPE   C4B12922   8.185   9.855   7.790  0.0176  0.2196  0.1634
  898YOPE   NH312923  17.284  12.334   5.879  0.1241 -0.0396  0.1422
  898YOPE   PO412924  17.651  12.021   5.836 -0.2546  0.0992 -0.1344
  898YOPE   GL112925  17.772  12.103   6.163  0.1046  0.1384  0.3012
  898YOPE   GL212926  17.558  12.149   6.342  0.1053  0.2669  0.0474
  898YOPE   C1A12927  18.043  11.991   6.555  0.0305 -0.0803 -0.0673
  898YOPE   D2A12928  18.029  12.132   7.014 -0.0959 -0.0076 -0.0225
  898YOPE   C3A12929  18.361  12.443   7.287  0.0474 -0.1850  0.1064
  898YOPE   C4A12930  18.814  12.304   7.494  0.0332 -0.2525 -0.1524
  898YOPE   C1B12931  17.684  12.441   6.653  0.0821 -0.0612  0.2377
  898YOPE   C2B12932  17.737  12.933   6.814 -0.2505 -0.0849  0.0710
  898YOPE   D3B12933  17.952  13.282   7.163 -0.2754  0.4808  0.0627
  898YOPE   C4B12934  18.409  13.317   7.408  0.1933  0.2475 -0.0346
  899YOPE   NH312935  13.980   5.036   6.019  0.2025 -0.0260  0.1348
  899YOPE   PO412936  13.852   4.580   5.910 -0.0107 -0.0249  0.3468
  899YOPE   GL112937  13.827   4.508   6.321  0.0194  0.1602 -0.1899
  899YOPE   GL212938  13.845   4.144   6.288  0.2255 -0.0699 -0.1343
  899YOPE   C1A12939  13.951   4.823   6.745  0.1666 -0.0904  0.0507
  899YOPE   D2A12940  14.048   5.228   6.995  0.1285  0.3404 -0.0771
  899YOPE   C3A12941  14.264   5.425   7.418  0.0339  0.3526  0.0301
  899YOPE   C4A12942  14.383   5.524   7.873  0.3316 -0.0486 -0.0557
  899YOPE   C1B12943  13.912   4.137   6.707 -0.1973 -0.0684 -0.0846
  899YOPE   C2B12944  13.983   4.079   7.147 -0.2693 -0.0542 -0.2238
  899YOPE   D3B12945  14.103   3.968   7.463  0.0550  0.0284  0.1022
  899YOPE   C4B12946  14.439   3.943   7.795  0.0999 -0.2149 -0.1934
  900YOPE   NH312947  16.089  17.502   6.028 -0.4566  0.2698  0.5597
  900YOPE   PO412948  16.239  17.212   5.891 -0.1079 -0.0794  0.2737
  900YOPE   GL112949  16.312  17.121   6.298  0.1190 -0.2380  0.0217
  900YOPE   GL212950  16.542  17.243   6.332  0.0533 -0.0935 -0.1898
  900YOPE   C1A12951  16.229  17.248   6.793  0.0266  0.0942 -0.1205
  900YOPE   D2A12952  16.004  17.299   7.097 -0.5052 -0.1038 -0.0538
  900YOPE   C3A12953  16.205  17.293   7.505  0.0172  0.1171  0.0538
  900YOPE   C4A12954  16.384  17.634   7.823  0.0165 -0.0722  0.1683
  900YOPE   C1B12955  16.671  17.440   6.755  0.0464  0.1960  0.1698
  900YOPE   C2B12956  16.589  17.383   7.118 -0.1698 -0.3135  0.1758
  900YOPE   D3B12957  16.742  17.557   7.468 -0.0563  0.3714 -0.1775
  900YOPE   C4B12958  17.026  17.877   7.683 -0.0837 -0.0147  0.0650
  901YOPE   NH312959   5.286  15.739   6.344 -0.3274 -0.0080 -0.2966
  901YOPE   PO412960   4.996  15.547   6.171  0.0300 -0.0635  0.0580
  901YOPE   GL112961   4.983  15.349   6.505  0.0261 -0.2735  0.1373
  901YOPE   GL212962   4.978  15.576   6.755 -0.2624  0.0530  0.3002
  901YOPE   C1A12963   4.809  15.148   6.930  0.0411  0.0979  0.1191
  901YOPE   D2A12964   4.614  15.138   7.292  0.0390  0.2948 -0.2402
  901YOPE   C3A12965   4.530  15.504   7.678  0.1961 -0.0767 -0.2804
  901YOPE   C4A12966   4.244  15.861   7.878  0.0354  0.0936  0.0582
  901YOPE   C1B12967   4.786  15.591   7.125  0.1002 -0.2697  0.1694
  901YOPE   C2B12968   4.854  15.870   7.554 -0.2838  0.1119 -0.1399
  901YOPE   D3B12969   4.604  16.202   7.877  0.1355  0.1537 -0.0655
  901YOPE   C4B12970   4.243  16.644   7.958  0.2461  0.0309 -0.0018
  902YOPE   NH312971  16.324  16.702   5.753 -0.3436 -0.1110 -0.1979
  902YOPE   PO412972  15.945  16.836   5.776  0.0784  0.1860 -0.0475
  902YOPE   GL112973  15.792  16.425   6.023  0.0206  0.0394  0.1607
  902YOPE   GL212974  15.877  16.133   6.172  0.1539  0.0103 -0.0109
  902YOPE   C1A12975  15.507  16.418   6.322  0.1018  0.0211 -0.0947
  902YOPE   D2A12976  15.345  16.600   6.675  0.0423  0.1172 -0.2007
  902YOPE   C3A12977  15.500  16.437   7.097 -0.2340 -0.0914  0.1209
  902YOPE   C4A12978  15.647  16.493   7.400 -0.2309  0.2525  0.1195
  902YOPE   C1B12979  15.963  15.841   6.448 -0.2138 -0.3860  0.0275
  902YOPE   C2B12980  15.785  15.593   6.786  0.0536  0.0675 -0.2424
  902YOPE   D3B12981  15.412  15.425   7.088 -0.1608 -0.0144 -0.0479
  902YOPE   C4B12982  15.164  15.090   7.184 -0.1339  0.3029 -0.0205
  903YOPE   NH312983  18.008   5.848   5.544  0.1728  0.3842 -0.1796
  903YOPE   PO412984  17.588   5.545   5.355 -0.2408  0.2413 -0.1341
  903YOPE   GL112985  17.525   5.672   5.768  0.2292  0.0213 -0.1153
  903YOPE   GL212986  17.701   5.953   5.941 -0.0647  0.0263 -0.1976
  903YOPE   C1A12987  17.595   5.455   6.177  0.1880 -0.3313  0.1097
  903YOPE   D2A12988  17.427   5.179   6.505  0.2197  0.0038 -0.0843
  903YOPE   C3A12989  17.629   5.204   6.932  0.2473  0.0030  0.0265
  903YOPE   C4A12990  17.759   5.114   7.432  0.2209 -0.1842  0.1295
  903YOPE   C1B12991  17.627   6.004   6.388 -0.0387 -0.0985  0.2180
  903YOPE   C2B12992  17.642   6.147   6.801  0.1329  0.0193 -0.1309
  903YOPE   D3B12993  17.640   6.189   7.296 -0.3331  0.1346  0.0707
  903YOPE   C4B12994  17.819   6.147   7.733 -0.2376 -0.1161  0.2581
  904YOPE   NH312995   3.415  13.692   5.035  0.0722  0.2051 -0.0885
  904YOPE   PO412996   3.440  13.815   5.440 -0.0916  0.0067  0.0328
  904YOPE   GL112997   3.633  14.042   5.866  0.1689  0.1854  0.1013
  904YOPE   GL212998   3.689  14.341   5.921 -0.1580 -0.1963 -0.4315
  904YOPE   C1A12999   3.696  13.818   6.247 -0.0587  0.0297  0.0381
  904YOPE   D2A13000   3.614  13.755   6.686  0.1709 -0.0978  0.0283
  904YOPE   C3A13001   3.718  14.039   6.971  0.1014  0.1264  0.2058
  904YOPE   C4A13002   3.917  14.041   7.282 -0.1116  0.0989 -0.0949
  904YOPE   C1B13003   3.657  14.323   6.308 -0.0901 -0.0272 -0.1750
  904YOPE   C2B13004   3.432  14.346   6.611  0.0420  0.2994 -0.3155
  904YOPE   D3B13005   3.378  14.385   7.045  0.2763 -0.0865 -0.1284
  904YOPE   C4B13006   3.560  14.263   7.505  0.2910 -0.2779 -0.0951
  905YOPE   NH313007   7.971   1.659   5.781  0.2574 -0.0427 -0.3292
  905YOPE   PO413008   8.234   1.372   5.820 -0.2511 -0.0710  0.0420
  905YOPE   GL113009   8.136   1.583   6.273 -0.1088  0.0533 -0.0845
  905YOPE   GL213010   7.983   1.925   6.246  0.1946 -0.4132 -0.1680
  905YOPE   C1A13011   8.101   1.599   6.736  0.2061 -0.3561 -0.3031
  905YOPE   D2A13012   8.117   1.505   7.189  0.1493  0.3175  0.4879
  905YOPE   C3A13013   7.870   1.258   7.364  0.2539  0.0667  0.0693
  905YOPE   C4A13014   7.686   0.975   7.616  0.0490  0.1404 -0.0832
  905YOPE   C1B13015   7.873   2.114   6.645  0.2279  0.2923  0.0877
  905YOPE   C2B13016   8.004   2.078   7.047 -0.1661  0.1735 -0.1328
  905YOPE   D3B13017   8.169   1.933   7.390  0.0318  0.0781  0.0627
  905YOPE   C4B13018   8.316   1.797   7.818  0.1311 -0.0357 -0.0173
  906YOPE   NH313019   3.367  13.311   5.370  0.2564  0.0039  0.0620
  906YOPE   PO413020   3.368  13.048   5.658  0.0245  0.0338  0.1766
  906YOPE   GL113021   3.097  13.167   5.992  0.0911 -0.1840  0.0445
  906YOPE   GL213022   3.036  12.990   6.210  0.0638  0.1412 -0.2117
  906YOPE   C1A13023   2.729  13.345   5.974  0.2210 -0.1491  0.2668
  906YOPE   D2A13024   2.414  13.700   6.102  0.0559 -0.1974 -0.1021
  906YOPE   C3A13025   2.272  13.791   6.467 -0.0214  0.1261 -0.0872
  906YOPE   C4A13026   2.538  13.912   6.789  0.0352 -0.3906 -0.1907
  906YOPE   C1B13027   2.882  13.010   6.601  0.0213 -0.0468  0.1080
  906YOPE   C2B13028   2.804  13.128   6.931 -0.0169 -0.2975  0.0164
  906YOPE   D3B13029   2.812  13.191   7.332  0.3347 -0.0408 -0.1446
  906YOPE   C4B13030   2.885  13.240   7.772  0.0235  0.3595  0.0666
  907YOPE   NH313031  12.620   5.000   5.772 -0.0847  0.0341 -0.0865
  907YOPE   PO413032  12.149   5.094   5.845 -0.3109  0.0864 -0.1056
  907YOPE   GL113033  12.285   5.254   6.265  0.0014 -0.0439 -0.1787
  907YOPE   GL213034  12.602   5.287   6.256  0.2186 -0.0612  0.1348
  907YOPE   C1A13035  12.536   5.302   6.750  0.1479  0.1330  0.0349
  907YOPE   D2A13036  12.557   5.302   7.180  0.0822 -0.0909  0.1331
  907YOPE   C3A13037  12.631   4.874   7.269 -0.0672  0.1364 -0.0252
  907YOPE   C4A13038  12.679   4.388   7.242 -0.1269 -0.0498 -0.0422
  907YOPE   C1B13039  13.010   5.303   6.606 -0.0410 -0.1165  0.3392
  907YOPE   C2B13040  13.045   5.251   7.096 -0.1987 -0.1811  0.1123
  907YOPE   D3B13041  12.951   5.148   7.494  0.0649 -0.1288 -0.0769
  907YOPE   C4B13042  12.967   4.803   7.926 -0.3000  0.1264 -0.1586
  908YOPE   NH313043   3.702   8.900   5.342  0.2361 -0.0456  0.0533
  908YOPE   PO413044   3.276   8.675   5.289  0.1005 -0.0233 -0.0447
  908YOPE   GL113045   3.499   8.608   5.708  0.0731  0.0733 -0.4873
  908YOPE   GL213046   3.755   8.759   5.820  0.0870  0.0632 -0.0918
  908YOPE   C1A13047   3.403   8.268   5.983  0.0115  0.1735 -0.0702
  908YOPE   D2A13048   3.478   8.249   6.473 -0.2000 -0.1518 -0.3395
  908YOPE   C3A13049   3.787   8.057   6.477 -0.1663  0.0763 -0.2546
  908YOPE   C4A13050   4.181   8.070   6.265 -0.0186  0.1024  0.0446
  908YOPE   C1B13051   3.803   8.579   6.295 -0.0788 -0.1735 -0.1593
  908YOPE   C2B13052   3.759   8.474   6.805  0.1227 -0.0884  0.0769
  908YOPE   D3B13053   3.884   8.557   7.226  0.0144  0.1680 -0.0414
  908YOPE   C4B13054   3.886   8.737   7.623  0.1258  0.2119  0.2972
  909YOPE   NH313055   1.096  17.963   6.012  0.1161  0.0294  0.1795
  909YOPE   PO413056   1.397  18.181   5.855  0.3011  0.1782  0.2771
  909YOPE   GL113057   1.653  18.357   6.176 -0.0083 -0.1682  0.2029
  909YOPE   GL213058   1.625  18.730   6.219  0.0877 -0.3221 -0.1663
  909YOPE   C1A13059   1.902  18.162   6.379 -0.2524 -0.1694 -0.1953
  909YOPE   D2A13060   2.292  17.942   6.429 -0.0230 -0.0867 -0.1527
  909YOPE   C3A13061   2.580  18.012   6.653 -0.0065  0.0681  0.0646
  909YOPE   C4A13062   2.871  17.785   6.743 -0.0829 -0.0396  0.3306
  909YOPE   C1B13063   1.605  18.534   6.651 -0.0236  0.0386  0.1609
  909YOPE   C2B13064   1.731  18.522   7.033 -0.0975 -0.0073  0.0947
  909YOPE   D3B13065   1.837  18.300   7.316  0.0102 -0.3261  0.0167
  909YOPE   C4B13066   2.015  17.923   7.598  0.2024  0.3783  0.1741
  910YOPE   NH313067   5.594   4.075   5.712 -0.0760  0.0667 -0.1218
  910YOPE   PO413068   5.615   3.596   5.820 -0.2879 -0.2871 -0.2290
  910YOPE   GL113069   5.645   3.560   6.282 -0.1064 -0.1657  0.1988
  910YOPE   GL213070   5.443   3.756   6.539 -0.0273  0.0594  0.1725
  910YOPE   C1A13071   5.932   3.626   6.635 -0.2984 -0.3404  0.0762
  910YOPE   D2A13072   6.218   3.422   7.030 -0.0853 -0.2322 -0.0402
  910YOPE   C3A13073   6.304   3.660   7.323 -0.2411  0.1562  0.1529
  910YOPE   C4A13074   6.412   3.952   7.706 -0.2652 -0.0723  0.0549
  910YOPE   C1B13075   5.559   3.865   6.860 -0.2238  0.0729 -0.2452
  910YOPE   C2B13076   5.556   3.960   7.275 -0.2073 -0.0677 -0.2865
  910YOPE   D3B13077   5.811   3.816   7.604 -0.1488 -0.4234  0.0012
  910YOPE   C4B13078   6.149   3.531   7.837  0.0252  0.0569  0.0076
  911YOPE   NH313079   0.962  12.989   5.035  0.0178 -0.1318  0.1693
  911YOPE   PO413080   1.076  13.230   5.439 -0.0533 -0.1525 -0.0425
  911YOPE   GL113081   0.929  13.087   5.742 -0.1727 -0.0100  0.1422
  911YOPE   GL213082   0.779  13.306   5.855  0.2267  0.2418 -0.1831
  911YOPE   C1A13083   0.924  12.857   6.088  0.0647 -0.0514 -0.1320
  911YOPE   D2A13084   1.265  12.727   6.333  0.1307  0.0776  0.1179
  911YOPE   C3A13085   1.492  12.976   6.568 -0.2302  0.1549  0.0906
  911YOPE   C4A13086   1.442  12.908   6.950 -0.2460 -0.2142  0.0358
  911YOPE   C1B13087   0.515  13.107   6.190  0.1379 -0.2535 -0.0253
  911YOPE   C2B13088   0.507  13.235   6.548  0.3004 -0.0314  0.4984
  911YOPE   D3B13089   0.616  12.981   6.989  0.1681 -0.0680  0.1685
  911YOPE   C4B13090   0.480  12.619   7.123 -0.2048 -0.1985  0.0188
  912YOPE   NH313091  10.006   7.012   5.738 -0.1774  0.0073  0.0255
  912YOPE   PO413092   9.851   6.552   5.783  0.0707  0.0106  0.0216
  912YOPE   GL113093   9.661   6.744   6.175  0.1879 -0.2515 -0.0379
  912YOPE   GL213094   9.970   6.750   6.272  0.2670 -0.0841  0.1456
  912YOPE   C1A13095   9.629   6.861   6.610  0.0859  0.3493 -0.1071
  912YOPE   D2A13096   9.753   7.020   7.073 -0.0801 -0.0386  0.1400
  912YOPE   C3A13097   9.613   7.210   7.371 -0.0183 -0.0474 -0.1248
  912YOPE   C4A13098   9.588   7.103   7.912 -0.3025  0.0042  0.0792
  912YOPE   C1B13099  10.092   6.867   6.627 -0.0346 -0.2527 -0.0493
  912YOPE   C2B13100  10.317   6.713   6.931 -0.1321  0.2928  0.0443
  912YOPE   D3B13101  10.547   6.733   7.229 -0.1683 -0.1215  0.1470
  912YOPE   C4B13102  10.961   6.837   7.542  0.0637 -0.1127  0.1134
  913YOPE   NH313103   5.182   1.812   6.004  0.1265 -0.2008  0.3357
  913YOPE   PO413104   5.336   2.256   6.066  0.2457  0.2811  0.5147
  913YOPE   GL113105   5.567   2.303   6.461 -0.0546  0.1190  0.0068
  913YOPE   GL213106   5.825   2.219   6.519 -0.3180  0.0785  0.1236
  913YOPE   C1A13107   5.300   2.509   6.862 -0.0394 -0.3030 -0.3029
  913YOPE   D2A13108   5.005   2.548   7.207 -0.0394 -0.1508 -0.0703
  913YOPE   C3A13109   5.232   2.375   7.580  0.3379  0.0467 -0.1709
  913YOPE   C4A13110   5.340   2.436   7.992 -0.3687  0.1830  0.1181
  913YOPE   C1B13111   6.055   1.965   6.829  0.0761 -0.3510 -0.1361
  913YOPE   C2B13112   6.194   1.871   7.226  0.1015 -0.0158 -0.0291
  913YOPE   D3B13113   6.418   1.743   7.652  0.3143  0.0320  0.1755
  913YOPE   C4B13114   6.750   1.903   7.999  0.2528 -0.1326  0.3380
  914YOPE   NH313115  13.655  18.412   6.007 -0.1372  0.1603  0.0179
  914YOPE   PO413116  13.275  18.142   5.925 -0.0069 -0.3202  0.0903
  914YOPE   GL113117  13.393  17.847   6.172  0.2967  0.0448  0.2556
  914YOPE   GL213118  13.448  18.067   6.422 -0.1514  0.3589 -0.1110
  914YOPE   C1A13119  13.486  17.603   6.601  0.1882  0.1164 -0.0104
  914YOPE   D2A13120  13.276  17.565   7.035 -0.1949 -0.0612  0.2832
  914YOPE   C3A13121  13.328  17.850   7.354 -0.0820  0.1545  0.0122
  914YOPE   C4A13122  13.018  18.093   7.434  0.0488 -0.1862 -0.4999
  914YOPE   C1B13123  13.460  18.066   6.723  0.1839  0.1445 -0.0864
  914YOPE   C2B13124  13.634  18.103   7.044  0.0388 -0.2329 -0.3154
  914YOPE   D3B13125  14.051  18.147   7.088 -0.1764 -0.0864  0.1542
  914YOPE   C4B13126  14.364  17.863   7.001 -0.4025 -0.3604  0.0005
  915YOPE   NH313127   3.019   9.152   5.187 -0.4002 -0.0679  0.2243
  915YOPE   PO413128   2.833   9.221   5.444  0.0478  0.2151  0.0079
  915YOPE   GL113129   3.038   8.909   5.662 -0.0314 -0.0350  0.2373
  915YOPE   GL213130   3.319   9.096   5.637 -0.0395  0.0749  0.0108
  915YOPE   C1A13131   3.200   8.714   6.049  0.3347 -0.1479  0.0480
  915YOPE   D2A13132   3.408   8.865   6.399 -0.2242 -0.1933 -0.1304
  915YOPE   C3A13133   3.369   8.758   6.746  0.0846 -0.3821 -0.0999
  915YOPE   C4A13134   3.456   8.773   7.107 -0.1248 -0.0145  0.0640
  915YOPE   C1B13135   3.570   9.179   6.041  0.1326  0.0009 -0.1042
  915YOPE   C2B13136   3.622   9.322   6.460 -0.0120 -0.0201  0.1574
  915YOPE   D3B13137   3.508   9.676   6.844 -0.0083  0.0027  0.1294
  915YOPE   C4B13138   3.560   9.672   7.263  0.1237  0.1701 -0.1856
  916YOPE   NH313139  10.177  12.559   5.825  0.0966 -0.0978 -0.0631
  916YOPE   PO413140  10.410  12.554   6.192 -0.0015  0.2200 -0.1290
  916YOPE   GL113141  10.289  12.467   6.614 -0.0254 -0.2782  0.1547
  916YOPE   GL213142  10.484  12.551   6.847  0.1231 -0.0765  0.2137
  916YOPE   C1A13143  10.281  12.158   7.061 -0.1132 -0.0029 -0.0290
  916YOPE   D2A13144  10.226  12.202   7.513  0.1548  0.0931 -0.0669
  916YOPE   C3A13145  10.373  12.460   7.796 -0.0742  0.0399  0.1516
  916YOPE   C4A13146  10.289  12.469   8.317 -0.4234  0.3607  0.0976
  916YOPE   C1B13147  10.490  12.513   7.263 -0.0819 -0.2491  0.2726
  916YOPE   C2B13148  10.636  12.861   7.514  0.0626 -0.0142  0.2476
  916YOPE   D3B13149  10.585  12.920   7.982 -0.0178 -0.0814  0.1102
  916YOPE   C4B13150  10.322  12.999   8.340  0.0482 -0.1014  0.1598
  917YOPE   NH313151   9.754   3.061   5.904  0.0609  0.0280 -0.1091
  917YOPE   PO413152   9.925   3.382   5.750  0.0733 -0.0571 -0.0504
  917YOPE   GL113153  10.354   3.298   6.067  0.1994 -0.1405  0.4348
  917YOPE   GL213154  10.539   3.027   6.114  0.3141  0.2258  0.0092
  917YOPE   C1A13155  10.637   3.398   6.513  0.0123 -0.0333  0.0593
  917YOPE   D2A13156  10.754   3.578   6.894 -0.2565  0.2654 -0.2265
  917YOPE   C3A13157  10.497   3.695   7.299  0.1326 -0.1255  0.2562
  917YOPE   C4A13158  10.297   3.866   7.612  0.0153 -0.1036 -0.0166
  917YOPE   C1B13159  10.729   2.787   6.392 -0.1312  0.0317  0.0788
  917YOPE   C2B13160  10.801   2.350   6.368 -0.0695 -0.1830  0.0626
  917YOPE   D3B13161  11.011   2.009   6.061  0.2497 -0.2915  0.0044
  917YOPE   C4B13162  11.234   1.670   6.069  0.0625  0.3053  0.0105
  918YOPE   NH313163   0.326   5.250   5.373 -0.0824  0.0831  0.2527
  918YOPE   PO413164  -0.111   5.404   5.492 -0.1766 -0.0445 -0.0839
  918YOPE   GL113165   0.001   5.174   5.841 -0.0868  0.3023  0.0287
  918YOPE   GL213166   0.329   5.039   5.850  0.0572 -0.0064  0.0598
  918YOPE   C1A13167  -0.051   5.170   6.309 -0.1049 -0.2517  0.0630
  918YOPE   D2A13168   0.149   4.981   6.660 -0.0696  0.1529  0.3811
  918YOPE   C3A13169   0.100   4.672   6.975 -0.1010  0.0499 -0.0966
  918YOPE   C4A13170   0.383   4.493   7.317  0.4883  0.1435  0.0364
  918YOPE   C1B13171   0.545   5.079   6.204 -0.1821  0.0032  0.3983
  918YOPE   C2B13172   0.749   5.010   6.558 -0.0923  0.0341 -0.0464
  918YOPE   D3B13173   0.556   4.908   6.946 -0.0188  0.1545  0.1842
  918YOPE   C4B13174   0.800   5.133   7.327  0.1896 -0.3144 -0.1513
  919YOPE   NH313175   4.670   3.530   6.015 -0.0002  0.1156 -0.1161
  919YOPE   PO413176   4.214   3.270   5.891  0.0095 -0.1167  0.0308
  919YOPE   GL113177   4.285   3.435   6.289  0.1358 -0.2535 -0.0369
  919YOPE   GL213178   4.266   3.773   6.273  0.3517 -0.0635  0.0883
  919YOPE   C1A13179   4.401   3.414   6.661  0.2110 -0.2617 -0.0110
  919YOPE   D2A13180   4.608   3.356   6.951 -0.0381  0.0977 -0.1929
  919YOPE   C3A13181   4.421   3.425   7.375  0.1594  0.2586 -0.2253
  919YOPE   C4A13182   4.272   3.210   7.701  0.0900 -0.0583 -0.0669
  919YOPE   C1B13183   4.408   3.893   6.630  0.2798  0.1440 -0.1762
  919YOPE   C2B13184   4.547   3.852   7.007  0.1242 -0.0585  0.0064
  919YOPE   D3B13185   4.472   3.939   7.366 -0.2040  0.2547 -0.2057
  919YOPE   C4B13186   4.284   4.174   7.694  0.0950  0.0223 -0.2261
  920YOPE   NH313187  11.824  10.242   5.989 -0.0238  0.2770  0.2001
  920YOPE   PO413188  11.487  10.141   5.989 -0.0706  0.2137 -0.3158
  920YOPE   GL113189  11.563   9.953   6.349 -0.1527  0.1084 -0.2716
  920YOPE   GL213190  11.290   9.815   6.412  0.0788  0.0025  0.3746
  920YOPE   C1A13191  11.706   9.772   6.729 -0.2489  0.0296 -0.0395
  920YOPE   D2A13192  11.742   9.705   7.232  0.1989  0.5127 -0.0475
  920YOPE   C3A13193  11.439   9.891   7.509  0.2164  0.0852  0.4418
  920YOPE   C4A13194  11.375  10.200   7.879  0.1349  0.1268 -0.1565
  920YOPE   C1B13195  11.148  10.157   6.575  0.0183 -0.0830  0.0300
  920YOPE   C2B13196  10.998  10.323   6.903 -0.2468  0.3022  0.0299
  920YOPE   D3B13197  10.865  10.641   7.125  0.0714 -0.0291  0.0022
  920YOPE   C4B13198  10.945  10.961   7.464  0.1257 -0.2742 -0.3975
  921YOPE   NH313199  18.342   0.154   5.381  0.0122 -0.0747 -0.0356
  921YOPE   PO413200  18.815   0.077   5.561  0.0848  0.0095 -0.0726
  921YOPE   GL113201  18.786   0.119   6.000 -0.0930 -0.1280 -0.0374
  921YOPE   GL213202  18.521   0.212   6.192 -0.0794  0.2409  0.1585
  921YOPE   C1A13203  19.023   0.087   6.355 -0.0642  0.2265  0.2378
  921YOPE   D2A13204  18.932   0.338   6.717  0.1641  0.1004 -0.4494
  921YOPE   C3A13205  18.985   0.258   7.132  0.0639 -0.0673 -0.1316
  921YOPE   C4A13206  19.331   0.238   7.399 -0.0004 -0.1091  0.0582
  921YOPE   C1B13207  18.501   0.431   6.466 -0.1082  0.2458 -0.0965
  921YOPE   C2B13208  18.475   0.461   6.960 -0.0948  0.1979  0.3544
  921YOPE   D3B13209  18.431   0.444   7.360  0.5428 -0.0605  0.1311
  921YOPE   C4B13210  18.440   0.264   7.781 -0.1547  0.0525  0.0735
  922YOPE   NH313211  11.664   1.699   5.447 -0.2645  0.0111 -0.0247
  922YOPE   PO413212  12.105   1.681   5.545 -0.0144 -0.0931  0.1730
  922YOPE   GL113213  12.253   1.785   5.923  0.0388 -0.1850 -0.3142
  922YOPE   GL213214  12.340   2.102   5.995 -0.0473  0.0133  0.1587
  922YOPE   C1A13215  12.615   1.639   6.193  0.1547 -0.1499  0.2365
  922YOPE   D2A13216  12.950   1.836   6.117  0.4576 -0.2035  0.2540
  922YOPE   C3A13217  13.058   2.073   6.439  0.2246 -0.0166 -0.0232
  922YOPE   C4A13218  13.459   2.385   6.529  0.2464 -0.1919 -0.0502
  922YOPE   C1B13219  12.070   2.104   6.327 -0.2759  0.1863  0.1980
  922YOPE   C2B13220  11.903   1.948   6.792  0.0052 -0.0152  0.1297
  922YOPE   D3B13221  11.885   1.999   7.280  0.0603 -0.0245  0.2203
  922YOPE   C4B13222  11.750   1.770   7.733 -0.0718 -0.1432  0.1885
  923YOPE   NH313223   0.519   3.431   5.153  0.0723  0.2475  0.2294
  923YOPE   PO413224   0.537   2.960   5.209  0.0690 -0.1270  0.0663
  923YOPE   GL113225   0.293   3.187   5.537 -0.3634 -0.2627  0.1028
  923YOPE   GL213226   0.356   3.546   5.612  0.2596  0.0399  0.0463
  923YOPE   C1A13227   0.020   3.184   5.854 -0.0295 -0.2622  0.0840
  923YOPE   D2A13228  -0.377   3.098   6.136 -0.0157 -0.3582 -0.0179
  923YOPE   C3A13229  -0.311   3.021   6.492  0.2151  0.0818  0.1131
  923YOPE   C4A13230  -0.145   2.779   6.860 -0.1094 -0.0331  0.0387
  923YOPE   C1B13231   0.337   3.530   6.030  0.1959  0.2902 -0.2697
  923YOPE   C2B13232   0.593   3.602   6.451 -0.3122  0.0290  0.2435
  923YOPE   D3B13233   0.567   3.259   6.652  0.0946 -0.1362  0.0021
  923YOPE   C4B13234   0.229   3.121   6.927 -0.1318 -0.0462 -0.1411
  924YOPE   NH313235  17.333  12.764   5.613  0.1772 -0.1875  0.0912
  924YOPE   PO413236  16.898  12.625   5.963  0.1868 -0.2391  0.1242
  924YOPE   GL113237  16.895  12.710   6.287 -0.0282  0.0530  0.0821
  924YOPE   GL213238  17.091  12.412   6.384 -0.4640 -0.0827  0.2738
  924YOPE   C1A13239  16.912  13.089   6.588  0.2644 -0.0289 -0.2005
  924YOPE   D2A13240  17.080  13.414   6.945  0.0412  0.2469  0.3776
  924YOPE   C3A13241  16.832  13.582   7.334  0.0455  0.0051 -0.2110
  924YOPE   C4A13242  16.579  13.394   7.614 -0.3229  0.0417 -0.1352
  924YOPE   C1B13243  17.159  12.433   6.778 -0.0354  0.2199  0.0923
  924YOPE   C2B13244  17.517  12.556   7.094 -0.1059 -0.1007 -0.0824
  924YOPE   D3B13245  17.756  12.325   7.409  0.1727 -0.0784 -0.2542
  924YOPE   C4B13246  18.056  12.425   7.632  0.0672  0.1184 -0.1120
  925YOPE   NH313247   1.146  15.472   5.543  0.4303  0.0351 -0.2762
  925YOPE   PO413248   1.425  15.201   5.828 -0.1411  0.0906 -0.0121
  925YOPE   GL113249   1.544  15.338   6.268  0.0008 -0.1879  0.0460
  925YOPE   GL213250   1.778  15.614   6.123  0.2475 -0.0947  0.2088
  925YOPE   C1A13251   1.129  15.348   6.628 -0.1773 -0.2549  0.1805
  925YOPE   D2A13252   1.063  14.999   6.927  0.3168 -0.2380  0.1956
  925YOPE   C3A13253   0.756  15.136   7.141  0.2150 -0.0153 -0.2310
  925YOPE   C4A13254   0.571  15.312   7.440  0.0344 -0.4179  0.0043
  925YOPE   C1B13255   1.857  15.624   6.595  0.1539  0.1497  0.3778
  925YOPE   C2B13256   1.630  15.315   6.840  0.0192 -0.1617  0.1533
  925YOPE   D3B13257   1.377  15.123   7.229 -0.0616  0.2266  0.2673
  925YOPE   C4B13258   1.427  15.172   7.652  0.2262 -0.2632  0.2124
  926YOPE   NH313259   9.146  13.765   6.275 -0.1020  0.2456  0.1897
  926YOPE   PO413260   8.830  13.969   6.083 -0.1822 -0.0178 -0.0699
  926YOPE   GL113261   8.684  13.797   6.377 -0.0367  0.0182 -0.1337
  926YOPE   GL213262   8.569  14.028   6.605 -0.2737 -0.0381  0.2155
  926YOPE   C1A13263   8.713  13.531   6.758 -0.0713 -0.2264 -0.2199
  926YOPE   D2A13264   9.024  13.666   7.047  0.0507  0.1719 -0.1991
  926YOPE   C3A13265   9.141  13.472   7.456 -0.3552  0.1879  0.3295
  926YOPE   C4A13266   9.071  13.260   7.713 -0.0702  0.1610  0.1092
  926YOPE   C1B13267   8.591  13.864   7.084 -0.5051  0.2594 -0.0478
  926YOPE   C2B13268   8.812  13.939   7.486 -0.1875  0.2631  0.0741
  926YOPE   D3B13269   8.984  13.749   7.827 -0.4697 -0.0386 -0.1406
  926YOPE   C4B13270   8.979  13.426   8.211 -0.1521  0.2350 -0.0765
  927YOPE   NH313271  11.749  12.525   5.832 -0.1290 -0.3313 -0.0190
  927YOPE   PO413272  11.352  12.264   6.049 -0.2014 -0.0495  0.0252
  927YOPE   GL113273  11.275  12.310   6.461  0.3436 -0.1631 -0.3238
  927YOPE   GL213274  10.937  12.291   6.602 -0.0699  0.2920  0.0080
  927YOPE   C1A13275  11.207  12.415   6.983 -0.1300 -0.2764 -0.0841
  927YOPE   D2A13276  10.979  12.335   7.382 -0.0683 -0.0204 -0.0854
  927YOPE   C3A13277  10.852  12.466   7.704 -0.2529  0.1571 -0.3951
  927YOPE   C4A13278  10.845  12.296   8.136  0.1063  0.2082 -0.1619
  927YOPE   C1B13279  10.720  12.099   6.914  0.0194  0.1593  0.1406
  927YOPE   C2B13280  10.653  11.900   7.364  0.0404 -0.1432 -0.0423
  927YOPE   D3B13281  10.574  11.907   7.809  0.0734 -0.1635 -0.0614
  927YOPE   C4B13282  10.547  11.910   8.216  0.0783 -0.1549  0.0598
  928YOPE   NH313283   6.523  13.302   5.771 -0.0714 -0.0238  0.0987
  928YOPE   PO413284   6.727  13.711   5.723  0.0018  0.0619  0.1509
  928YOPE   GL113285   6.833  13.538   6.168 -0.3478  0.0312 -0.1805
  928YOPE   GL213286   6.562  13.282   6.261  0.0129 -0.0218  0.0242
  928YOPE   C1A13287   6.786  13.465   6.604  0.2685  0.0545 -0.1565
  928YOPE   D2A13288   6.885  13.471   6.956 -0.0389 -0.0058 -0.3022
  928YOPE   C3A13289   7.148  13.163   7.308 -0.1519  0.1455  0.0251
  928YOPE   C4A13290   7.132  12.884   7.652  0.1236  0.3317 -0.2369
  928YOPE   C1B13291   6.268  13.257   6.657 -0.2617  0.1005  0.3041
  928YOPE   C2B13292   5.991  13.013   6.904  0.0868 -0.1090 -0.3661
  928YOPE   D3B13293   6.243  12.713   7.222 -0.0855 -0.2169 -0.0951
  928YOPE   C4B13294   6.409  12.410   7.490  0.4239 -0.3453  0.1710
  929YOPE   NH313295  11.859  11.972   6.117  0.1302  0.1023 -0.2604
  929YOPE   PO413296  11.787  11.479   6.166  0.1266 -0.1789 -0.0139
  929YOPE   GL113297  11.901  11.267   6.537  0.0992 -0.0129 -0.1257
  929YOPE   GL213298  11.723  11.026   6.641 -0.4018 -0.2579 -0.1355
  929YOPE   C1A13299  12.076  11.262   6.972  0.0702  0.0246 -0.0476
  929YOPE   D2A13300  12.325  11.193   7.324  0.0417  0.1484  0.3597
  929YOPE   C3A13301  12.338  11.241   7.735 -0.0957 -0.0059  0.0150
  929YOPE   C4A13302  12.434  11.592   8.108 -0.1540 -0.1704  0.0747
  929YOPE   C1B13303  11.741  10.889   7.061 -0.0012  0.1655 -0.1185
  929YOPE   C2B13304  11.436  10.923   7.436  0.0588  0.3057  0.4646
  929YOPE   D3B13305  11.208  10.650   7.739 -0.3857  0.3625  0.0532
  929YOPE   C4B13306  11.173  10.690   8.216  0.1505 -0.2153  0.0457
  930YOPE   NH313307  13.045  14.188   5.672  0.3353  0.0096  0.0892
  930YOPE   PO413308  13.226  14.622   5.642 -0.0354  0.4728  0.0304
  930YOPE   GL113309  13.251  14.688   6.052  0.1065  0.2020 -0.0414
  930YOPE   GL213310  13.247  14.313   6.140  0.2258  0.4122 -0.2660
  930YOPE   C1A13311  13.575  14.710   6.290 -0.2299  0.1667  0.0316
  930YOPE   D2A13312  14.025  14.785   6.463 -0.0859 -0.1215  0.2547
  930YOPE   C3A13313  14.068  14.851   6.838  0.1374  0.0333  0.0426
  930YOPE   C4A13314  14.006  14.917   7.203  0.1823 -0.0792 -0.0934
  930YOPE   C1B13315  13.403  14.341   6.601  0.1128 -0.0309 -0.2333
  930YOPE   C2B13316  13.643  14.013   6.842  0.0056 -0.0852 -0.1045
  930YOPE   D3B13317  13.818  13.965   7.235  0.0097 -0.0315 -0.2356
  930YOPE   C4B13318  14.148  14.242   7.611 -0.0850  0.4764  0.0902
  931YOPE   NH313319  11.187  17.919   5.976 -0.0523  0.0390 -0.1810
  931YOPE   PO413320  11.407  18.321   5.996 -0.0034 -0.1191 -0.0919
  931YOPE   GL113321  11.199  18.630   6.232  0.1630  0.3707  0.1066
  931YOPE   GL213322  11.560  18.646   6.395  0.2419  0.2852 -0.0362
  931YOPE   C1A13323  11.131  18.799   6.629  0.0144  0.1048  0.0306
  931YOPE   D2A13324  10.928  18.826   6.950 -0.5745  0.2883 -0.0796
  931YOPE   C3A13325  10.838  19.179   7.289 -0.1622  0.2560  0.1687
  931YOPE   C4A13326  10.806  19.431   7.650  0.1087 -0.1664  0.2085
  931YOPE   C1B13327  11.635  18.600   6.833  0.1263  0.1440 -0.2474
  931YOPE   C2B13328  11.558  18.501   7.313 -0.1554  0.0537 -0.1084
  931YOPE   D3B13329  11.524  18.452   7.661 -0.0268 -0.1117 -0.1540
  931YOPE   C4B13330  11.283  18.359   8.114 -0.2355 -0.0069  0.0828
  932YOPE   NH313331   8.867   1.735   5.766 -0.0793  0.1684 -0.1855
  932YOPE   PO413332   9.008   1.276   5.758 -0.0427 -0.0048  0.1063
  932YOPE   GL113333   9.196   1.079   6.145  0.1948  0.0188 -0.0910
  932YOPE   GL213334   9.395   0.761   6.172 -0.0022 -0.1250 -0.2043
  932YOPE   C1A13335   9.328   0.930   6.650 -0.1336 -0.1782  0.2072
  932YOPE   D2A13336   9.455   0.768   7.034 -0.0113  0.0882 -0.0914
  932YOPE   C3A13337   9.457   0.822   7.470 -0.1324  0.1904  0.3477
  932YOPE   C4A13338   9.488   0.649   7.839  0.1955 -0.0773  0.0643
  932YOPE   C1B13339   9.191   0.474   6.489 -0.0838  0.3135 -0.0327
  932YOPE   C2B13340   9.033   0.574   6.926 -0.3017 -0.3974  0.0661
  932YOPE   D3B13341   9.038   0.641   7.289  0.1886 -0.3801 -0.3293
  932YOPE   C4B13342   8.994   0.642   7.735  0.0761 -0.1514  0.0577
  933YOPE   NH313343  12.446   5.497   5.824  0.0062 -0.3705  0.1634
  933YOPE   PO413344  11.876   5.562   5.794 -0.0973 -0.0009 -0.4921
  933YOPE   GL113345  11.811   5.304   6.141 -0.2683 -0.1556 -0.2088
  933YOPE   GL213346  11.627   5.426   6.283 -0.0475 -0.2847  0.1682
  933YOPE   C1A13347  11.970   5.244   6.632 -0.3217  0.0467  0.1399
  933YOPE   D2A13348  12.068   5.477   6.963  0.1164  0.1548 -0.1474
  933YOPE   C3A13349  11.843   5.496   7.413 -0.2201 -0.0992  0.1794
  933YOPE   C4A13350  11.842   5.676   7.863 -0.1416  0.1160  0.3065
  933YOPE   C1B13351  11.487   5.498   6.792 -0.1702 -0.2518 -0.2173
  933YOPE   C2B13352  11.438   5.471   7.175  0.1417 -0.2004 -0.1110
  933YOPE   D3B13353  11.367   5.528   7.619 -0.0667 -0.1651 -0.2463
  933YOPE   C4B13354  11.450   5.267   7.949  0.0107 -0.3180  0.0328
  934YOPE   NH313355  13.233   0.092   5.608 -0.1830 -0.2698 -0.5544
  934YOPE   PO413356  13.368   0.330   5.893  0.2881  0.0229  0.1211
  934YOPE   GL113357  13.244   0.415   6.356 -0.2391 -0.2559 -0.2862
  934YOPE   GL213358  13.288   0.061   6.358  0.2480  0.3307 -0.1081
  934YOPE   C1A13359  13.118   0.486   6.750 -0.0876  0.0712  0.0313
  934YOPE   D2A13360  12.924   0.396   7.096  0.2248 -0.2182  0.0656
  934YOPE   C3A13361  12.690   0.395   7.454 -0.1965 -0.2595  0.1548
  934YOPE   C4A13362  12.541   0.277   7.858  0.1125 -0.0281  0.0434
  934YOPE   C1B13363  13.429   0.083   6.787 -0.1778 -0.4082 -0.0450
  934YOPE   C2B13364  13.248  -0.055   7.140  0.0516 -0.0461  0.2726
  934YOPE   D3B13365  13.107   0.092   7.520  0.2080  0.4021 -0.1392
  934YOPE   C4B13366  13.086   0.471   7.816 -0.1885  0.0013  0.3003
  935YOPE   NH313367   6.799   8.370   5.347 -0.0899  0.0254 -0.0452
  935YOPE   PO413368   6.689   8.325   5.764 -0.1932  0.0530 -0.0641
  935YOPE   GL113369   6.772   8.193   6.162  0.3843 -0.0039 -0.3471
  935YOPE   GL213370   6.402   8.002   6.174  0.2934 -0.2476  0.1185
  935YOPE   C1A13371   6.759   8.146   6.569  0.2563 -0.1411 -0.1006
  935YOPE   D2A13372   6.508   8.176   6.954  0.2005  0.1492  0.1343
  935YOPE   C3A13373   6.658   8.105   7.317  0.0219  0.0581 -0.3188
  935YOPE   C4A13374   6.655   8.314   7.637  0.2968 -0.1913 -0.3888
  935YOPE   C1B13375   6.261   8.082   6.522  0.0418  0.1315 -0.1413
  935YOPE   C2B13376   6.145   8.405   6.772  0.1381 -0.0595 -0.1360
  935YOPE   D3B13377   6.134   8.434   7.261 -0.0963 -0.0058 -0.1182
  935YOPE   C4B13378   6.200   8.386   7.768 -0.0106  0.1306 -0.0170
  936YOPE   NH313379  10.036   5.826   5.428 -0.0711 -0.0270  0.0630
  936YOPE   PO413380  10.378   5.434   5.305 -0.1587  0.0455  0.0098
  936YOPE   GL113381  10.190   5.502   5.769  0.0695 -0.1759  0.0886
  936YOPE   GL213382   9.869   5.674   5.963  0.0990 -0.1450  0.0158
  936YOPE   C1A13383  10.262   5.617   6.249 -0.0221 -0.0875 -0.1601
  936YOPE   D2A13384  10.307   5.642   6.588  0.3142  0.1346 -0.4469
  936YOPE   C3A13385  10.166   5.412   7.006  0.0598  0.1133  0.0171
  936YOPE   C4A13386   9.838   5.208   7.309 -0.1270 -0.0906  0.3755
  936YOPE   C1B13387   9.814   5.693   6.420  0.3254  0.2161  0.0297
  936YOPE   C2B13388   9.843   5.743   6.787  0.1170  0.0904  0.0990
  936YOPE   D3B13389   9.647   5.841   7.210 -0.1315  0.2789  0.2825
  936YOPE   C4B13390   9.394   5.652   7.602  0.2893  0.0972  0.2657
  937YOPE   NH313391  10.606  11.616   6.123 -0.0746  0.2502  0.2643
  937YOPE   PO413392  10.229  11.598   6.283 -0.0449  0.1684 -0.0386
  937YOPE   GL113393   9.846  11.467   6.594  0.0361 -0.2120  0.1481
  937YOPE   GL213394   9.616  11.149   6.602  0.1030  0.1305 -0.1583
  937YOPE   C1A13395   9.703  11.437   7.031 -0.1748  0.1637  0.0825
  937YOPE   D2A13396   9.522  11.401   7.480 -0.1420  0.1646  0.0150
  937YOPE   C3A13397   9.781  11.308   7.798  0.0875  0.6428  0.0067
  937YOPE   C4A13398   9.739  11.287   8.223 -0.2406 -0.1055 -0.1587
  937YOPE   C1B13399   9.396  10.985   6.921  0.0691  0.1562  0.0246
  937YOPE   C2B13400   9.364  10.835   7.433  0.0426  0.2526 -0.0865
  937YOPE   D3B13401   9.358  10.936   7.837  0.2022  0.0584  0.2317
  937YOPE   C4B13402   9.229  11.038   8.035 -0.3604 -0.0850 -0.1513
  938YOPE   NH313403  15.925   9.006   5.725 -0.0050 -0.1678 -0.0293
  938YOPE   PO413404  15.761   8.579   5.691 -0.0914  0.1422  0.0417
  938YOPE   GL113405  15.644   8.630   6.058  0.3936 -0.3282  0.3350
  938YOPE   GL213406  15.816   8.552   6.158  0.1229 -0.3601  0.2415
  938YOPE   C1A13407  15.455   8.719   6.566 -0.0969 -0.0130 -0.0558
  938YOPE   D2A13408  15.235   8.802   6.905 -0.0186 -0.1476  0.3406
  938YOPE   C3A13409  15.303   8.587   7.366 -0.1989  0.0517  0.1907
  938YOPE   C4A13410  14.990   8.502   7.711 -0.3200 -0.4263 -0.0718
  938YOPE   C1B13411  16.053   8.485   6.524  0.3134  0.1059 -0.0242
  938YOPE   C2B13412  16.048   8.499   6.882  0.1735  0.2227  0.0834
  938YOPE   D3B13413  16.200   8.871   7.146  0.0303  0.2210 -0.1409
  938YOPE   C4B13414  16.264   8.913   7.549  0.0244 -0.0149 -0.0349
  939YOPE   NH313415   9.389   0.873   5.656 -0.2537  0.0138 -0.3170
  939YOPE   PO413416   9.789   0.774   5.780  0.0344  0.0319  0.2314
  939YOPE   GL113417   9.895   0.889   6.144  0.0612 -0.3099  0.1867
  939YOPE   GL213418   9.717   1.112   6.325 -0.2185  0.0946 -0.0362
  939YOPE   C1A13419  10.158   0.718   6.383  0.0755  0.3475  0.1835
  939YOPE   D2A13420  10.312   0.755   6.831 -0.2906 -0.1909 -0.1025
  939YOPE   C3A13421  10.358   0.583   7.251  0.2669 -0.0127  0.0013
  939YOPE   C4A13422  10.378   0.693   7.611  0.0842  0.1776 -0.3177
  939YOPE   C1B13423   9.868   1.040   6.692  0.0475  0.0521  0.1231
  939YOPE   C2B13424   9.871   1.014   7.124  0.0534 -0.3826  0.1199
  939YOPE   D3B13425   9.973   0.948   7.558 -0.3525 -0.0833 -0.1512
  939YOPE   C4B13426   9.817   1.025   7.913  0.1907 -0.2193 -0.0719
  940YOPE   NH313427   7.681   7.750   5.878 -0.0797 -0.0181 -0.1284
  940YOPE   PO413428   7.235   7.539   5.840 -0.2489 -0.1858 -0.1421
  940YOPE   GL113429   7.282   7.594   6.260 -0.1442  0.3814 -0.0893
  940YOPE   GL213430   7.210   7.881   6.445 -0.4200 -0.0930 -0.2484
  940YOPE   C1A13431   7.515   7.558   6.664  0.0898  0.0795  0.0198
  940YOPE   D2A13432   7.524   7.560   7.192  0.4137  0.2810  0.0672
  940YOPE   C3A13433   7.420   7.435   7.597 -0.1831 -0.1957  0.0614
  940YOPE   C4A13434   7.296   7.471   8.004  0.1769 -0.3356  0.1520
  940YOPE   C1B13435   7.176   7.875   6.793 -0.2759  0.1762 -0.2313
  940YOPE   C2B13436   7.053   7.851   7.250  0.0385  0.2237  0.3327
  940YOPE   D3B13437   7.009   7.802   7.641 -0.0481  0.1280  0.0028
  940YOPE   C4B13438   6.982   7.921   8.035  0.0759 -0.1633 -0.1629
  941POPC   NC313439   4.897   1.155   6.061  0.0870  0.2003  0.0169
  941POPC   PO413440   4.742   1.572   5.995  0.1482  0.0948 -0.0600
  941POPC   GL113441   4.751   1.574   6.320 -0.0478  0.0492 -0.1529
  941POPC   GL213442   5.018   1.470   6.474 -0.3164 -0.0967 -0.1245
  941POPC   C1A13443   4.675   1.829   6.694 -0.0345  0.0637 -0.2199
  941POPC   D2A13444   4.802   2.173   6.906  0.0091 -0.0352 -0.1192
  941POPC   C3A13445   4.858   2.051   7.269  0.1500 -0.0973  0.0779
  941POPC   C4A13446   4.977   1.727   7.538 -0.2876  0.0002 -0.3782
  941POPC   C1B13447   5.169   1.567   6.852  0.1831 -0.3222 -0.3377
  941POPC   C2B13448   5.365   1.402   7.331 -0.2097  0.1706  0.0905
  941POPC   C3B13449   5.626   1.338   7.750 -0.1963 -0.0131 -0.2221
  941POPC   C4B13450   5.621   1.409   8.147 -0.1396  0.2316  0.1020
  942POPC   NC313451   9.444   3.779   5.616  0.1845  0.2950  0.1260
  942POPC   PO413452   9.247   3.405   5.669  0.0433 -0.1913 -0.0534
  942POPC   GL113453   9.440   3.588   6.092  0.4701 -0.0129  0.0798
  942POPC   GL213454   9.412   3.289   6.300 -0.0673 -0.0951  0.3738
  942POPC   C1A13455   9.521   3.702   6.453  0.0656 -0.2910 -0.1788
  942POPC   D2A13456   9.591   3.755   6.970  0.2141  0.1135  0.0120
  942POPC   C3A13457   9.379   3.459   7.227 -0.0736  0.4253  0.3392
  942POPC   C4A13458   9.124   3.105   7.118  0.1028 -0.1505 -0.0125
  942POPC   C1B13459   9.584   3.284   6.698 -0.0689  0.0261 -0.1746
  942POPC   C2B13460   9.720   3.154   7.093 -0.0338  0.1722  0.2372
  942POPC   C3B13461   9.507   2.987   7.429  0.1285  0.0733 -0.1097
  942POPC   C4B13462   9.459   3.135   7.818  0.3006  0.2014  0.0418
  943POPC   NC313463  18.148  12.097   5.830 -0.0748 -0.0875  0.0902
  943POPC   PO413464  18.434  12.154   5.476  0.0089 -0.0382  0.0273
  943POPC   GL113465  18.725  12.042   5.836 -0.0103  0.0325 -0.0414
  943POPC   GL213466  19.090  11.948   5.929 -0.1116  0.1295  0.1879
  943POPC   C1A13467  18.569  12.247   6.342 -0.1117  0.0147 -0.0942
  943POPC   D2A13468  18.585  12.377   6.808  0.1484 -0.0512 -0.2497
  943POPC   C3A13469  18.653  12.031   7.085  0.0303  0.1312  0.3046
  943POPC   C4A13470  18.254  11.746   7.271 -0.2310 -0.1533  0.1088
  943POPC   C1B13471  19.004  11.981   6.320  0.3305  0.2041 -0.0305
  943POPC   C2B13472  19.015  12.200   6.773 -0.3697 -0.0725 -0.1955
  943POPC   C3B13473  19.151  12.112   7.200 -0.1048 -0.2804  0.2002
  943POPC   C4B13474  19.342  12.121   7.578 -0.1020  0.1522  0.1897
  944POPC   NC313475  13.992   5.891   5.744 -0.0615 -0.0520  0.2033
  944POPC   PO413476  13.908   5.499   5.863 -0.0562  0.1216  0.0648
  944POPC   GL113477  14.045   5.499   6.184 -0.1658  0.2513 -0.1618
  944POPC   GL213478  13.834   5.351   6.340 -0.2386 -0.1146 -0.0770
  944POPC   C1A13479  14.162   5.695   6.654  0.5102  0.0735 -0.3320
  944POPC   D2A13480  14.500   5.900   6.902  0.0591 -0.1380  0.0524
  944POPC   C3A13481  14.218   5.960   7.222  0.0579 -0.3383 -0.2701
  944POPC   C4A13482  14.035   5.777   7.587 -0.1154  0.1072 -0.2268
  944POPC   C1B13483  13.764   5.465   6.755  0.0653  0.1326 -0.0144
  944POPC   C2B13484  13.802   5.612   7.202 -0.0788 -0.3204 -0.0081
  944POPC   C3B13485  13.819   5.310   7.613  0.1790  0.0055 -0.0085
  944POPC   C4B13486  14.090   5.113   7.984  0.0027  0.1372 -0.1887
  945POPC   NC313487  16.203   7.623   5.625  0.1480  0.2650  0.0807
  945POPC   PO413488  15.771   7.598   5.860  0.0948 -0.1147  0.4583
  945POPC   GL113489  15.654   7.517   6.244  0.1723 -0.2765  0.2434
  945POPC   GL213490  15.662   7.176   6.198 -0.1839  0.0499 -0.0529
  945POPC   C1A13491  15.617   7.647   6.658 -0.0634 -0.2802 -0.0017
  945POPC   D2A13492  15.492   7.717   7.099 -0.3535  0.0590  0.0265
  945POPC   C3A13493  15.823   7.866   7.355  0.0915 -0.2356 -0.0156
  945POPC   C4A13494  15.869   8.033   7.618 -0.1975  0.0620 -0.1580
  945POPC   C1B13495  15.741   7.135   6.591  0.0982  0.0848 -0.0651
  945POPC   C2B13496  15.739   7.205   7.003  0.1591 -0.4160  0.1088
  945POPC   C3B13497  15.810   7.105   7.429 -0.0381 -0.1238  0.3327
  945POPC   C4B13498  16.037   6.673   7.573  0.0741  0.2934  0.1516
  946POPC   NC313499  13.130   5.257   5.594  0.0386  0.0179 -0.0106
  946POPC   PO413500  12.985   5.336   5.875  0.0398  0.1792  0.1140
  946POPC   GL113501  13.319   5.347   6.257  0.0661 -0.1306  0.1560
  946POPC   GL213502  13.343   5.627   6.497 -0.0299 -0.0368 -0.0095
  946POPC   C1A13503  13.472   5.062   6.496  0.2907  0.0636  0.0340
  946POPC   D2A13504  13.511   5.094   6.940 -0.0334 -0.0881 -0.2558
  946POPC   C3A13505  13.445   5.058   7.358 -0.0355 -0.1430  0.1659
  946POPC   C4A13506  13.553   4.913   7.662 -0.0369 -0.0494  0.3751
  946POPC   C1B13507  13.326   5.678   6.964  0.2730 -0.0425 -0.2172
  946POPC   C2B13508  13.310   5.558   7.384  0.1459  0.1157  0.1059
  946POPC   C3B13509  13.563   5.771   7.697  0.1140 -0.3044  0.1854
  946POPC   C4B13510  13.906   5.581   8.008 -0.1305  0.0223 -0.2553
  947POPC   NC313511   4.006   6.871   5.298  0.0175  0.2466 -0.3947
  947POPC   PO413512   3.781   6.595   5.424  0.1655 -0.0660 -0.0959
  947POPC   GL113513   3.853   6.635   5.850 -0.0196  0.0320 -0.1169
  947POPC   GL213514   4.064   6.875   6.032  0.2223 -0.1889 -0.1798
  947POPC   C1A13515   3.800   6.501   6.239  0.4235 -0.0732 -0.1373
  947POPC   D2A13516   3.626   6.356   6.684 -0.2230 -0.0045 -0.2741
  947POPC   C3A13517   3.725   6.454   7.179 -0.2162  0.2686 -0.3092
  947POPC   C4A13518   3.722   6.614   7.624 -0.0014 -0.0905 -0.1097
  947POPC   C1B13519   4.030   6.786   6.511 -0.1559 -0.1253 -0.2180
  947POPC   C2B13520   4.026   6.780   6.967 -0.0724 -0.0725  0.2160
  947POPC   C3B13521   4.128   6.685   7.412 -0.2162  0.0299  0.4427
  947POPC   C4B13522   4.468   6.417   7.601  0.2779 -0.0793 -0.1188
  948POPC   NC313523   5.961  16.585   6.229  0.1996 -0.1558  0.1012
  948POPC   PO413524   5.480  16.622   6.337 -0.1939  0.1109 -0.1339
  948POPC   GL113525   5.335  16.561   6.695 -0.1696  0.1466  0.0113
  948POPC   GL213526   5.097  16.692   6.691  0.4322 -0.3337  0.2267
  948POPC   C1A13527   5.297  16.694   7.208  0.1685 -0.1988 -0.0824
  948POPC   D2A13528   5.091  16.892   7.457  0.1872  0.1042  0.0567
  948POPC   C3A13529   5.179  16.907   7.913  0.0351  0.0147 -0.2503
  948POPC   C4A13530   5.321  16.687   8.369 -0.1081  0.1759  0.0862
  948POPC   C1B13531   4.840  16.807   6.969 -0.4031  0.3211 -0.1443
  948POPC   C2B13532   4.587  16.947   7.262 -0.0851  0.0076  0.1944
  948POPC   C3B13533   4.507  17.333   7.370 -0.0718 -0.0601 -0.0273
  948POPC   C4B13534   4.304  17.571   7.639  0.5221  0.0605  0.1863
  949POPC   NC313535   7.152  12.363   5.149 -0.3699  0.0523 -0.0911
  949POPC   PO413536   7.083  12.424   5.575 -0.0457  0.1763 -0.1358
  949POPC   GL113537   7.130  12.495   6.017  0.1791  0.0377 -0.2131
  949POPC   GL213538   6.798  12.460   6.140 -0.0691 -0.2128 -0.3705
  949POPC   C1A13539   7.325  12.576   6.381  0.0463 -0.1989 -0.0868
  949POPC   D2A13540   7.698  12.754   6.484 -0.0753  0.4003 -0.1455
  949POPC   C3A13541   7.812  12.812   6.917 -0.0353  0.2257  0.0554
  949POPC   C4A13542   8.024  12.946   7.332 -0.0153 -0.0593 -0.4882
  949POPC   C1B13543   6.853  12.637   6.505 -0.0295 -0.0432  0.0696
  949POPC   C2B13544   6.700  12.988   6.725  0.2975  0.1634  0.1067
  949POPC   C3B13545   6.533  13.169   7.058  0.0161 -0.1609  0.1538
  949POPC   C4B13546   6.119  13.451   7.109  0.2699 -0.2692 -0.1926
  950POPC   NC313547  15.620  17.312   5.939  0.2761  0.1185  0.0307
  950POPC   PO413548  15.619  17.646   6.086 -0.0356 -0.4556 -0.3708
  950POPC   GL113549  15.379  17.771   6.340  0.3189  0.1199 -0.2841
  950POPC   GL213550  15.147  17.593   6.389  0.2568  0.0368 -0.1455
  950POPC   C1A13551  15.271  17.973   6.852  0.2000  0.0101 -0.0492
  950POPC   D2A13552  15.165  18.054   7.239  0.3364 -0.0031  0.1288
  950POPC   C3A13553  15.085  18.116   7.634 -0.0220  0.1062  0.0272
  950POPC   C4A13554  15.276  18.192   8.032  0.0014 -0.0453 -0.1816
  950POPC   C1B13555  14.904  17.687   6.684  0.0295  0.0608 -0.0698
  950POPC   C2B13556  14.806  17.619   7.174  0.0866 -0.3046  0.0154
  950POPC   C3B13557  14.731  17.747   7.576  0.0143  0.1973 -0.1535
  950POPC   C4B13558  15.032  17.711   7.905 -0.0350 -0.0700 -0.2140
  951POPC   NC313559   4.317  15.722   6.001  0.1164  0.2538  0.1957
  951POPC   PO413560   4.098  15.338   6.024 -0.0496  0.1899  0.2133
  951POPC   GL113561   3.993  15.278   6.420  0.0167  0.1524  0.0763
  951POPC   GL213562   3.972  15.652   6.424 -0.0193  0.0396 -0.1724
  951POPC   C1A13563   3.848  15.205   6.840 -0.1017 -0.1404 -0.0697
  951POPC   D2A13564   3.664  15.129   7.246 -0.2307  0.3414 -0.0562
  951POPC   C3A13565   3.332  15.273   7.483  0.1040  0.2005 -0.1376
  951POPC   C4A13566   3.147  15.722   7.558  0.1162  0.0116 -0.1536
  951POPC   C1B13567   3.708  15.743   6.725 -0.2192 -0.1254  0.2585
  951POPC   C2B13568   3.451  16.082   6.828  0.2102  0.0604  0.2208
  951POPC   C3B13569   3.021  16.283   7.009 -0.2675 -0.3692  0.1637
  951POPC   C4B13570   2.668  16.460   7.124  0.0434  0.1991 -0.3298
  952POPC   NC313571   5.346   2.781   6.212 -0.0829 -0.1508 -0.0226
  952POPC   PO413572   5.614   3.102   6.107  0.0338  0.0305  0.0291
  952POPC   GL113573   5.560   3.190   6.553  0.0398 -0.1792  0.0984
  952POPC   GL213574   5.337   3.045   6.648 -0.0855  0.0097 -0.1824
  952POPC   C1A13575   5.821   3.202   6.834  0.1624  0.2484 -0.2037
  952POPC   D2A13576   5.771   3.456   7.183  0.1187  0.1870 -0.1628
  952POPC   C3A13577   5.764   3.297   7.627  0.2328 -0.1538  0.2120
  952POPC   C4A13578   5.675   3.393   8.026 -0.3529 -0.3043 -0.0238
  952POPC   C1B13579   5.387   2.998   7.139 -0.4315  0.3826 -0.0833
  952POPC   C2B13580   5.267   2.943   7.609 -0.0317 -0.0899  0.0186
  952POPC   C3B13581   4.991   2.753   7.809  0.1755 -0.3573  0.0399
  952POPC   C4B13582   4.912   2.629   8.304  0.1964 -0.1639  0.0417
  953POPC   NC313583   1.028  11.446   5.479 -0.0670  0.4516  0.0855
  953POPC   PO413584   1.267  11.095   5.173  0.3084  0.0096 -0.2796
  953POPC   GL113585   1.326  10.964   5.583  0.0651  0.2060 -0.0611
  953POPC   GL213586   1.215  11.106   5.833 -0.3546  0.1867  0.0507
  953POPC   C1A13587   1.342  10.731   6.059  0.0323  0.0535 -0.0771
  953POPC   D2A13588   1.432  10.432   6.430 -0.0128 -0.2244  0.1203
  953POPC   C3A13589   1.231  10.056   6.577  0.3012 -0.2375 -0.1091
  953POPC   C4A13590   1.214   9.586   6.573 -0.1530  0.1122  0.3362
  953POPC   C1B13591   0.981  11.142   6.274 -0.1593  0.1129  0.2138
  953POPC   C2B13592   0.871  11.207   6.596 -0.0808  0.2805  0.0635
  953POPC   C3B13593   0.498  11.092   6.686  0.0411  0.0721 -0.0235
  953POPC   C4B13594   0.064  11.071   6.833 -0.1389 -0.1432  0.3235
  954POPC   NC313595   1.596   2.649   5.725  0.0398 -0.1360  0.0364
  954POPC   PO413596   1.335   2.777   5.390 -0.0331 -0.2795 -0.0576
  954POPC   GL113597   1.354   3.138   5.722  0.1138 -0.0125  0.1041
  954POPC   GL213598   1.675   3.097   5.901 -0.0378  0.3818 -0.1935
  954POPC   C1A13599   1.187   3.179   6.125 -0.1495  0.1047 -0.1133
  954POPC   D2A13600   1.055   2.948   6.512  0.0888 -0.0482  0.0595
  954POPC   C3A13601   1.133   3.055   6.860  0.2211  0.1353 -0.0892
  954POPC   C4A13602   1.136   3.250   7.265 -0.0986 -0.0642  0.1733
  954POPC   C1B13603   1.729   3.221   6.240 -0.2145 -0.0279 -0.2117
  954POPC   C2B13604   1.727   3.532   6.545  0.4613  0.0450 -0.0157
  954POPC   C3B13605   1.648   4.009   6.690  0.2681 -0.4092 -0.0999
  954POPC   C4B13606   1.413   4.409   6.764 -0.3081 -0.2871  0.0264
  955POPC   NC313607   1.673  10.115   5.262  0.4168  0.2231  0.0957
  955POPC   PO413608   1.962  10.338   5.339  0.1909 -0.0271  0.0147
  955POPC   GL113609   2.026  10.114   5.721 -0.0828  0.1201  0.3106
  955POPC   GL213610   2.367  10.194   5.822 -0.0929 -0.2300 -0.1584
  955POPC   C1A13611   1.886   9.809   6.034 -0.0000  0.2085 -0.0624
  955POPC   D2A13612   1.761   9.937   6.485 -0.1780  0.1231  0.0983
  955POPC   C3A13613   1.840   9.943   6.891  0.1376  0.0927 -0.1653
  955POPC   C4A13614   1.808  10.217   7.299  0.0529 -0.4744 -0.1714
  955POPC   C1B13615   2.268  10.002   6.244  0.3469  0.0015  0.0875
  955POPC   C2B13616   2.297   9.929   6.575 -0.4798 -0.0336 -0.2378
  955POPC   C3B13617   2.339  10.014   7.049 -0.0970  0.3230  0.2833
  955POPC   C4B13618   2.272  10.137   7.393  0.2960  0.1151  0.0680
  956POPC   NC313619   1.259  14.174   5.467  0.1392 -0.2681 -0.2318
  956POPC   PO413620   1.642  14.361   5.357  0.2402 -0.3638 -0.2539
  956POPC   GL113621   1.627  14.382   5.877 -0.2791  0.0436  0.2304
  956POPC   GL213622   1.457  14.123   5.949  0.0373  0.1333 -0.0610
  956POPC   C1A13623   1.821  14.313   6.272  0.0066  0.0254 -0.0291
  956POPC   D2A13624   2.043  14.329   6.673  0.2543  0.3001  0.3246
  956POPC   C3A13625   2.112  14.076   6.965 -0.1040  0.0943  0.0059
  956POPC   C4A13626   2.113  13.758   7.290 -0.0758 -0.3445 -0.1412
  956POPC   C1B13627   1.783  13.838   6.171 -0.3529 -0.0514  0.1825
  956POPC   C2B13628   1.827  13.819   6.635  0.1897  0.0765 -0.0729
  956POPC   C3B13629   1.672  13.792   7.093 -0.1607 -0.1481 -0.0522
  956POPC   C4B13630   1.351  13.879   7.436 -0.3229 -0.0960 -0.3216
  957POPC   NC313631  13.873  12.102   5.747 -0.0167  0.2175  0.0441
  957POPC   PO413632  14.194  12.101   5.822 -0.2465 -0.1433 -0.0960
  957POPC   GL113633  14.326  12.201   6.214  0.0858 -0.1637 -0.0508
  957POPC   GL213634  14.664  12.237   6.442  0.0854 -0.0355  0.0297
  957POPC   C1A13635  14.241  12.271   6.739  0.0368 -0.3884 -0.0538
  957POPC   D2A13636  13.950  12.359   6.972 -0.0917  0.0862 -0.3002
  957POPC   C3A13637  14.041  12.392   7.380 -0.1525  0.0484  0.2779
  957POPC   C4A13638  14.435  12.524   7.741 -0.3076 -0.0193  0.2059
  957POPC   C1B13639  14.848  12.350   6.772 -0.0722 -0.0888  0.0480
  957POPC   C2B13640  15.016  12.427   7.175  0.0515  0.1478  0.0654
  957POPC   C3B13641  15.115  12.207   7.533 -0.3516  0.1937  0.0617
  957POPC   C4B13642  15.109  12.121   7.980  0.1783 -0.2635 -0.0743
  958POPC   NC313643  15.473   9.530   5.293  0.1739  0.0209  0.1937
  958POPC   PO413644  15.580   9.398   5.708 -0.0254 -0.0100  0.1503
  958POPC   GL113645  15.548   9.213   6.164  0.0943 -0.1150 -0.0101
  958POPC   GL213646  15.812   9.121   6.233  0.0200  0.0128  0.2020
  958POPC   C1A13647  15.428   9.194   6.583 -0.0853  0.1819 -0.0965
  958POPC   D2A13648  14.974   9.236   6.750  0.0686  0.4028 -0.0586
  958POPC   C3A13649  14.794   9.012   7.123  0.1506  0.0066 -0.1709
  958POPC   C4A13650  14.854   8.948   7.524 -0.0722 -0.0979 -0.0176
  958POPC   C1B13651  15.960   8.927   6.645  0.2706  0.0738  0.0657
  958POPC   C2B13652  15.719   8.900   7.064  0.1277 -0.0298  0.1216
  958POPC   C3B13653  15.803   8.922   7.455 -0.0663 -0.0268  0.1594
  958POPC   C4B13654  15.671   8.697   7.756 -0.1192 -0.1631  0.1246
  959POPC   NC313655  14.293   0.616   5.514  0.1109 -0.0299  0.0972
  959POPC   PO413656  14.675   0.558   5.725 -0.0033  0.1827  0.1968
  959POPC   GL113657  14.774   0.742   6.092  0.1794  0.1247 -0.0100
  959POPC   GL213658  15.087   0.753   6.253  0.3803  0.0112  0.0458
  959POPC   C1A13659  14.575   0.823   6.424  0.1847 -0.0425  0.1560
  959POPC   D2A13660  14.546   0.784   6.813  0.0443 -0.1757 -0.1138
  959POPC   C3A13661  14.370   0.769   7.083 -0.0693  0.0393 -0.0624
  959POPC   C4A13662  14.016   0.707   7.259  0.0662 -0.0014  0.0057
  959POPC   C1B13663  15.052   0.878   6.635 -0.0974  0.3332 -0.3336
  959POPC   C2B13664  15.311   0.946   7.009  0.1537 -0.1187  0.1065
  959POPC   C3B13665  15.281   0.883   7.429 -0.3081 -0.2621  0.1755
  959POPC   C4B13666  15.141   0.888   7.898 -0.0906  0.2666  0.1025
  960POPC   NC313667  12.754   0.026   4.971  0.1727  0.0858  0.3358
  960POPC   PO413668  12.891   0.275   5.276 -0.1561  0.2026  0.2769
  960POPC   GL113669  12.783   0.358   5.689 -0.1344 -0.1664 -0.1713
  960POPC   GL213670  12.867   0.399   6.008 -0.1183 -0.0064 -0.1509
  960POPC   C1A13671  12.416   0.143   6.001 -0.2014 -0.2839 -0.1652
  960POPC   D2A13672  12.389  -0.204   6.378  0.0150  0.1122  0.1572
  960POPC   C3A13673  12.222  -0.013   6.654 -0.0871  0.1329  0.1181
  960POPC   C4A13674  12.026  -0.242   6.998 -0.0612 -0.0849  0.0138
  960POPC   C1B13675  12.765   0.226   6.348 -0.2090 -0.0001  0.2092
  960POPC   C2B13676  12.940  -0.011   6.710 -0.1210 -0.0622 -0.2468
  960POPC   C3B13677  12.635  -0.102   7.071 -0.3403  0.4200 -0.2329
  960POPC   C4B13678  12.620  -0.077   7.537  0.0299  0.2836 -0.1252
  961POPC   NC313679  12.462  15.665   5.849  0.1441 -0.1155 -0.1239
  961POPC   PO413680  12.468  15.262   5.985  0.1254 -0.0245  0.2249
  961POPC   GL113681  12.620  15.203   6.372 -0.1115  0.2469 -0.3294
  961POPC   GL213682  12.852  14.985   6.199  0.1348  0.0275  0.1043
  961POPC   C1A13683  12.705  15.021   6.741  0.1613  0.0974  0.0770
  961POPC   D2A13684  12.835  14.919   7.196  0.1614  0.0842  0.0163
  961POPC   C3A13685  12.997  15.187   7.473 -0.2395  0.0324 -0.2413
  961POPC   C4A13686  13.100  15.136   7.890  0.1255 -0.0350 -0.1210
  961POPC   C1B13687  13.079  14.723   6.535 -0.0958 -0.2728 -0.2573
  961POPC   C2B13688  13.146  14.571   6.985  0.1609  0.1326  0.0658
  961POPC   C3B13689  12.857  14.397   7.353  0.3469  0.1568 -0.1602
  961POPC   C4B13690  12.567  14.382   7.684 -0.1548 -0.1254 -0.0685
  962POPC   NC313691  16.310   8.440   5.654  0.2157  0.2148  0.0543
  962POPC   PO413692  16.002   8.111   5.516 -0.1197  0.0716 -0.0866
  962POPC   GL113693  16.015   8.083   5.996 -0.2961  0.0009 -0.1024
  962POPC   GL213694  16.187   7.937   5.996  0.0874 -0.1351  0.1387
  962POPC   C1A13695  15.892   8.067   6.435 -0.1798  0.0616 -0.0764
  962POPC   D2A13696  16.021   7.951   6.829 -0.1104 -0.1487  0.2413
  962POPC   C3A13697  16.496   7.792   6.869 -0.1102  0.0124  0.1475
  962POPC   C4A13698  16.867   7.712   6.769 -0.2066 -0.1500  0.1876
  962POPC   C1B13699  16.361   8.119   6.428  0.1357  0.0528  0.1106
  962POPC   C2B13700  16.494   8.292   6.795  0.2304  0.1736  0.0503
  962POPC   C3B13701  16.553   8.494   7.141 -0.0600 -0.0713  0.1348
  962POPC   C4B13702  16.691   8.438   7.500  0.1156 -0.2126 -0.2405
  963POPC   NC313703  10.133  15.150   6.039 -0.1652  0.2505  0.2169
  963POPC   PO413704   9.685  14.994   5.995 -0.1678  0.2129  0.2087
  963POPC   GL113705   9.773  15.363   6.287  0.2121  0.0013 -0.1950
  963POPC   GL213706   9.495  15.607   6.356 -0.1214 -0.3014  0.1445
  963POPC   C1A13707   9.951  15.507   6.660  0.2728 -0.1044 -0.1753
  963POPC   D2A13708   9.907  15.531   7.133  0.3330 -0.0098  0.1361
  963POPC   C3A13709  10.165  15.436   7.415 -0.0283  0.1020 -0.1110
  963POPC   C4A13710  10.018  15.415   7.908 -0.0288  0.3342 -0.1067
  963POPC   C1B13711   9.478  15.476   6.755  0.0114  0.1717  0.1853
  963POPC   C2B13712   9.427  15.540   7.155 -0.1971 -0.0531  0.1000
  963POPC   C3B13713   9.247  15.406   7.424 -0.0784 -0.0205  0.0898
  963POPC   C4B13714   9.277  15.128   7.536  0.0793 -0.3726  0.1510
  964POPC   NC313715   1.667  13.877   5.519 -0.0216  0.0487  0.1325
  964POPC   PO413716   2.049  13.606   5.393 -0.1447 -0.2122  0.1617
  964POPC   GL113717   2.167  13.872   5.658 -0.1756  0.1081 -0.1470
  964POPC   GL213718   2.523  13.987   5.684 -0.0660 -0.0393 -0.1205
  964POPC   C1A13719   2.280  14.209   6.056  0.0643 -0.1384  0.0835
  964POPC   D2A13720   2.569  14.292   6.472  0.1423  0.0552  0.0474
  964POPC   C3A13721   2.921  14.225   6.523  0.3585  0.2107 -0.4753
  964POPC   C4A13722   3.128  13.987   6.815  0.1691 -0.0387 -0.1335
  964POPC   C1B13723   2.766  14.063   6.086  0.1371  0.1266  0.0972
  964POPC   C2B13724   2.845  13.741   6.391  0.1094 -0.0505  0.0833
  964POPC   C3B13725   2.623  13.438   6.573 -0.0375 -0.1077  0.0596
  964POPC   C4B13726   2.343  13.444   6.911  0.0777 -0.1172 -0.0427
  965POPC   NC313727  15.917   4.239   5.784  0.0796  0.1961 -0.4117
  965POPC   PO413728  15.555   4.145   5.873 -0.0036  0.0397 -0.1664
  965POPC   GL113729  15.685   4.081   6.231  0.1011 -0.1739  0.0212
  965POPC   GL213730  15.970   4.014   6.260  0.1345  0.2056  0.1384
  965POPC   C1A13731  15.741   3.679   6.598  0.2994  0.0103  0.0922
  965POPC   D2A13732  15.929   3.444   6.910  0.0433  0.1458 -0.0380
  965POPC   C3A13733  16.118   3.481   7.292  0.0793  0.1602  0.1302
  965POPC   C4A13734  16.006   3.708   7.692  0.0252  0.2668 -0.0275
  965POPC   C1B13735  16.043   4.053   6.716  0.3055 -0.0116  0.0869
  965POPC   C2B13736  16.211   3.919   7.015 -0.2356 -0.0243  0.0992
  965POPC   C3B13737  16.434   3.924   7.394  0.2346  0.2060 -0.1467
  965POPC   C4B13738  16.454   3.910   7.818 -0.2452 -0.4089 -0.1348
  966POPC   NC313739  15.528   5.658   5.157 -0.2006 -0.1774 -0.1976
  966POPC   PO413740  15.727   5.786   5.586 -0.2412 -0.0985  0.2835
  966POPC   GL113741  16.056   5.571   5.906  0.1240 -0.4256 -0.1686
  966POPC   GL213742  15.873   5.386   6.018  0.0495 -0.2289 -0.2692
  966POPC   C1A13743  16.197   5.763   6.241 -0.1680 -0.1512  0.3402
  966POPC   D2A13744  16.463   5.840   6.621  0.1748 -0.1382 -0.1149
  966POPC   C3A13745  16.478   6.247   6.772  0.0869 -0.1581 -0.1041
  966POPC   C4A13746  16.762   6.536   6.698  0.1721  0.0018  0.0890
  966POPC   C1B13747  15.998   5.120   6.347  0.1971  0.1694 -0.1644
  966POPC   C2B13748  15.975   4.754   6.633  0.2407 -0.0098  0.0059
  966POPC   C3B13749  15.968   4.650   7.053  0.3002 -0.0311 -0.1352
  966POPC   C4B13750  15.936   4.741   7.458 -0.0408  0.2418 -0.0169
  967POPC   NC313751   2.153   4.938   4.932  0.0770 -0.1848 -0.4050
  967POPC   PO413752   1.917   5.128   5.297 -0.0387 -0.1667 -0.0540
  967POPC   GL113753   1.918   5.088   5.812  0.1756  0.1861  0.0556
  967POPC   GL213754   2.211   4.965   5.956 -0.0257 -0.2329 -0.0852
  967POPC   C1A13755   1.736   5.187   6.194 -0.0785  0.0483 -0.0977
  967POPC   D2A13756   1.554   5.375   6.586  0.0326 -0.0981  0.0074
  967POPC   C3A13757   1.879   5.309   6.950  0.0861  0.0541  0.1871
  967POPC   C4A13758   2.271   5.192   7.154  0.3760 -0.0983  0.1927
  967POPC   C1B13759   2.104   4.832   6.304 -0.1576  0.1618 -0.3267
  967POPC   C2B13760   2.088   4.832   6.803 -0.2446 -0.0485 -0.2012
  967POPC   C3B13761   2.271   4.623   7.235  0.0690  0.2815 -0.0113
  967POPC   C4B13762   2.613   4.524   7.181 -0.2732 -0.3155  0.1464
  968POPC   NC313763  16.755  17.939   5.683  0.0861  0.1704  0.0114
  968POPC   PO413764  16.597  17.642   6.036 -0.3736 -0.0941 -0.1449
  968POPC   GL113765  16.334  17.769   6.459  0.0650 -0.0212  0.0051
  968POPC   GL213766  15.991  17.788   6.394  0.4267 -0.0580  0.0402
  968POPC   C1A13767  16.240  17.756   6.913 -0.0722  0.0136  0.0755
  968POPC   D2A13768  16.238  17.724   7.325  0.0540 -0.3214 -0.2373
  968POPC   C3A13769  15.846  17.714   7.559  0.0102 -0.0131  0.0109
  968POPC   C4A13770  15.486  17.842   7.771  0.0616  0.1081 -0.1662
  968POPC   C1B13771  15.749  17.976   6.700 -0.2344  0.0753 -0.0712
  968POPC   C2B13772  15.794  17.923   7.107 -0.0908 -0.0407  0.1236
  968POPC   C3B13773  15.671  18.153   7.383 -0.0848 -0.1639  0.0815
  968POPC   C4B13774  15.723  18.522   7.750  0.2128  0.1937  0.0445
  969POPC   NC313775   6.999   9.264   5.174  0.0991  0.0302 -0.1681
  969POPC   PO413776   6.902   9.327   5.675  0.0602 -0.2814  0.2710
  969POPC   GL113777   7.006   9.153   6.079  0.1879 -0.1425 -0.1889
  969POPC   GL213778   6.888   9.327   6.333  0.0027  0.0796  0.2965
  969POPC   C1A13779   7.018   8.843   6.442 -0.2639 -0.0008 -0.1745
  969POPC   D2A13780   7.300   8.742   6.807 -0.0212  0.0290  0.1273
  969POPC   C3A13781   7.199   8.803   7.102  0.0450 -0.2886 -0.3795
  969POPC   C4A13782   7.157   8.867   7.551  0.1554 -0.0086  0.1555
  969POPC   C1B13783   6.549   9.153   6.480  0.0539  0.0122  0.1431
  969POPC   C2B13784   6.590   9.234   6.920 -0.0873 -0.0490  0.0230
  969POPC   C3B13785   6.348   9.202   7.291  0.0260 -0.1628 -0.1336
  969POPC   C4B13786   6.247   9.334   7.698 -0.0004  0.0482 -0.3376
  970POPC   NC313787  17.879   8.657   5.643 -0.0675  0.1010  0.0284
  970POPC   PO413788  18.380   8.765   5.589  0.1771 -0.0333  0.1015
  970POPC   GL113789  18.543   8.883   5.964 -0.1820  0.3427  0.0574
  970POPC   GL213790  18.621   9.128   6.004 -0.1224 -0.0462 -0.2454
  970POPC   C1A13791  18.553   8.747   6.382  0.4016  0.2402 -0.0895
  970POPC   D2A13792  18.567   8.557   6.766 -0.1598 -0.1257  0.0098
  970POPC   C3A13793  18.652   8.792   7.091  0.2950  0.0184  0.0061
  970POPC   C4A13794  18.774   8.945   7.444 -0.1947  0.3335 -0.0669
  970POPC   C1B13795  18.667   9.397   6.273 -0.1789 -0.0665  0.0177
  970POPC   C2B13796  19.019   9.637   6.555  0.0691 -0.0229  0.2174
  970POPC   C3B13797  19.344   9.627   6.909 -0.0892  0.0548  0.1187
  970POPC   C4B13798  19.437   9.662   7.333 -0.0061  0.1827  0.2792
  971POPC   NC313799   1.153   7.784   5.404  0.4343  0.0362  0.1083
  971POPC   PO413800   1.225   8.275   5.617 -0.0389 -0.0413 -0.1413
  971POPC   GL113801   1.211   8.501   6.045  0.2649 -0.1264 -0.3273
  971POPC   GL213802   1.043   8.819   6.017  0.2124  0.3042  0.0170
  971POPC   C1A13803   0.848   8.341   6.231 -0.1714 -0.2001  0.1955
  971POPC   D2A13804   0.422   8.375   6.352  0.1627 -0.0339  0.0646
  971POPC   C3A13805   0.168   8.099   6.534  0.2030  0.0256  0.0184
  971POPC   C4A13806  -0.064   8.037   6.880  0.0922 -0.3062 -0.1881
  971POPC   C1B13807   0.539   8.894   6.209  0.1905  0.0003 -0.0529
  971POPC   C2B13808   0.488   9.002   6.679 -0.0351  0.3145  0.0335
  971POPC   C3B13809   0.412   9.311   6.935  0.1030  0.3625 -0.0038
  971POPC   C4B13810   0.140   9.664   7.149 -0.1475  0.2943  0.2413
  972POPC   NC313811   5.618  15.500   5.948 -0.0056 -0.2963 -0.1152
  972POPC   PO413812   5.779  15.814   6.191  0.2009 -0.2703 -0.1075
  972POPC   GL113813   6.065  15.643   6.413  0.3000  0.0965 -0.4168
  972POPC   GL213814   5.989  15.378   6.412  0.1667 -0.0521 -0.2250
  972POPC   C1A13815   6.086  15.789   6.869 -0.2342  0.1808 -0.1237
  972POPC   D2A13816   6.012  15.739   7.305  0.0417 -0.0338 -0.3585
  972POPC   C3A13817   6.075  15.915   7.660 -0.3396 -0.2338  0.0448
  972POPC   C4A13818   5.791  15.982   7.885  0.0238 -0.1617  0.0660
  972POPC   C1B13819   6.126  15.281   6.742 -0.0478 -0.0087 -0.1930
  972POPC   C2B13820   5.915  15.298   7.116 -0.0380 -0.1205  0.1443
  972POPC   C3B13821   5.625  15.160   7.516 -0.0634 -0.0530  0.2883
  972POPC   C4B13822   5.309  15.009   7.634  0.2110 -0.2187 -0.3126
  973POPC   NC313823  13.139   7.433   5.429 -0.2593  0.0313  0.1960
  973POPC   PO413824  12.714   7.406   5.645  0.1118  0.1361 -0.1683
  973POPC   GL113825  12.845   7.336   6.011 -0.1080 -0.3480 -0.2326
  973POPC   GL213826  12.968   7.154   6.188 -0.3265 -0.1060 -0.0014
  973POPC   C1A13827  13.083   7.577   6.290  0.0452 -0.1064  0.1237
  973POPC   D2A13828  13.288   7.787   6.646 -0.0334 -0.2634 -0.4029
  973POPC   C3A13829  13.656   7.688   6.735 -0.3416 -0.1859  0.2096
  973POPC   C4A13830  14.162   7.750   6.865  0.0650  0.3035 -0.0869
  973POPC   C1B13831  12.876   7.191   6.512 -0.0205 -0.2265 -0.1146
  973POPC   C2B13832  12.774   7.094   6.932 -0.3971  0.2059 -0.0109
  973POPC   C3B13833  12.734   7.219   7.332 -0.1379  0.1297 -0.3782
  973POPC   C4B13834  12.548   7.519   7.626 -0.2098 -0.0282  0.1652
  974POPC   NC313835   9.991   3.827   5.494 -0.2316  0.0627 -0.0410
  974POPC   PO413836   9.609   4.189   5.391  0.0156  0.3126 -0.1183
  974POPC   GL113837   9.612   4.207   5.797  0.0291  0.1014  0.4289
  974POPC   GL213838   9.788   3.946   5.903 -0.0151 -0.1829  0.0823
  974POPC   C1A13839   9.934   4.445   6.003 -0.0488  0.0598  0.3362
  974POPC   D2A13840  10.312   4.360   6.269  0.0614  0.0360 -0.0328
  974POPC   C3A13841  10.178   4.466   6.718  0.2610  0.1345 -0.0816
  974POPC   C4A13842   9.853   4.615   7.001 -0.1345 -0.0009 -0.2579
  974POPC   C1B13843   9.899   3.993   6.341  0.2765  0.1051 -0.2360
  974POPC   C2B13844   9.845   4.138   6.791  0.0892 -0.1921 -0.3299
  974POPC   C3B13845   9.822   4.184   7.290  0.1279 -0.0077  0.1763
  974POPC   C4B13846   9.538   4.267   7.571  0.0206 -0.0802 -0.0334
  975POPC   NC313847  11.473  14.961   5.554 -0.3527  0.2347  0.2023
  975POPC   PO413848  11.640  15.317   5.442 -0.0214 -0.1020 -0.2447
  975POPC   GL113849  11.484  15.326   5.869 -0.0376  0.3038 -0.2042
  975POPC   GL213850  11.381  15.626   6.113  0.2198 -0.0254 -0.1011
  975POPC   C1A13851  11.561  15.020   6.214  0.4360 -0.1439 -0.0558
  975POPC   D2A13852  11.455  14.648   6.432 -0.1088  0.0463  0.2004
  975POPC   C3A13853  11.252  14.544   6.877 -0.0695 -0.2358  0.1705
  975POPC   C4A13854  11.155  14.041   6.950 -0.2062  0.2270 -0.2389
  975POPC   C1B13855  11.656  15.440   6.434 -0.0912  0.0361 -0.1661
  975POPC   C2B13856  11.783  15.061   6.673  0.2079 -0.0506  0.1101
  975POPC   C3B13857  11.800  14.746   6.934  0.0792  0.0066  0.0518
  975POPC   C4B13858  11.828  14.703   7.406 -0.0241  0.2367  0.0228
  976POPC   NC313859   0.615  14.692   5.670  0.1224 -0.1712 -0.0774
  976POPC   PO413860   0.527  14.275   5.562  0.0479  0.1584 -0.0449
  976POPC   GL113861   0.529  14.301   5.993  0.0547 -0.1277 -0.2149
  976POPC   GL213862   0.799  14.352   6.269 -0.1016 -0.0529 -0.0381
  976POPC   C1A13863   0.360  14.163   6.352  0.1356  0.3017  0.2437
  976POPC   D2A13864   0.469  14.222   6.664  0.1719 -0.0381 -0.2865
  976POPC   C3A13865   0.758  14.296   6.922  0.1759 -0.2625 -0.1079
  976POPC   C4A13866   1.044  14.215   7.302 -0.0046 -0.0467 -0.2517
  976POPC   C1B13867   1.122  14.400   6.515  0.1502  0.0051 -0.1760
  976POPC   C2B13868   1.201  14.562   6.965  0.1068 -0.0204  0.2484
  976POPC   C3B13869   1.232  14.681   7.366  0.2047  0.2901 -0.1015
  976POPC   C4B13870   1.636  14.736   7.442 -0.1023 -0.0450  0.1952
  977POPC   NC313871  14.527   9.032   5.836 -0.2104 -0.0937  0.1023
  977POPC   PO413872  14.793   8.760   5.890 -0.1051  0.0002 -0.0723
  977POPC   GL113873  14.735   8.532   6.159  0.3461 -0.1166  0.1120
  977POPC   GL213874  15.053   8.548   6.305  0.0637  0.1883 -0.1302
  977POPC   C1A13875  14.427   8.421   6.436 -0.3336  0.2068 -0.2367
  977POPC   D2A13876  14.096   8.436   6.810 -0.0455  0.1035 -0.1769
  977POPC   C3A13877  14.143   8.148   7.116 -0.1597  0.0108  0.0263
  977POPC   C4A13878  14.101   7.783   7.389 -0.0321  0.1029 -0.0342
  977POPC   C1B13879  14.992   8.400   6.699 -0.0024 -0.0263 -0.0665
  977POPC   C2B13880  15.000   8.286   7.176  0.3096  0.1653  0.1777
  977POPC   C3B13881  15.371   8.025   7.475 -0.0129  0.1750  0.0650
  977POPC   C4B13882  15.362   7.996   7.948 -0.0735  0.2541  0.0472
  978POPC   NC313883  15.519  11.873   5.820 -0.3198 -0.1487  0.1124
  978POPC   PO413884  15.474  11.327   5.780  0.1041  0.0683 -0.0312
  978POPC   GL113885  15.410  11.510   6.183 -0.2235  0.0885 -0.4011
  978POPC   GL213886  15.654  11.831   6.300  0.2336 -0.0612  0.0698
  978POPC   C1A13887  15.111  11.423   6.461 -0.0717  0.0456  0.3868
  978POPC   D2A13888  14.721  11.428   6.617 -0.0132  0.0248  0.1708
  978POPC   C3A13889  14.675  11.433   7.025 -0.1127  0.1499 -0.1940
  978POPC   C4A13890  14.439  11.465   7.392 -0.1188 -0.0535  0.1602
  978POPC   C1B13891  15.652  11.699   6.789 -0.0923 -0.1863  0.1011
  978POPC   C2B13892  15.316  11.511   6.965  0.0788 -0.2222  0.1803
  978POPC   C3B13893  15.297  11.655   7.360  0.4197  0.0401  0.1555
  978POPC   C4B13894  15.399  11.780   7.734 -0.0450 -0.2282 -0.1983
  979POPC   NC313895  12.170  10.404   5.629  0.0636  0.0700 -0.3798
  979POPC   PO413896  12.309  10.043   5.844  0.1809  0.0403  0.0722
  979POPC   GL113897  12.607  10.090   6.166  0.2803  0.0410 -0.4776
  979POPC   GL213898  12.809   9.822   6.162 -0.1961  0.1552 -0.1563
  979POPC   C1A13899  12.601  10.242   6.573  0.0606  0.1302  0.1274
  979POPC   D2A13900  12.616  10.284   7.070 -0.2064 -0.1092 -0.3340
  979POPC   C3A13901  13.092  10.137   7.294  0.1805 -0.1370  0.1024
  979POPC   C4A13902  13.309   9.944   7.489  0.0397 -0.0098  0.1893
  979POPC   C1B13903  12.676   9.648   6.468  0.0303 -0.0880 -0.5604
  979POPC   C2B13904  12.488   9.849   6.888  0.0098  0.0990 -0.1211
  979POPC   C3B13905  12.605   9.769   7.380  0.0950  0.0536  0.0720
  979POPC   C4B13906  12.501  10.032   7.673  0.2840 -0.0648 -0.0527
  980POPC   NC313907   5.842  11.703   5.583 -0.0119 -0.1334 -0.3466
  980POPC   PO413908   5.413  11.606   5.779 -0.1763  0.1552 -0.0007
  980POPC   GL113909   5.207  11.638   6.184 -0.0593  0.0387 -0.0947
  980POPC   GL213910   4.918  11.677   6.242  0.0726 -0.1281 -0.0648
  980POPC   C1A13911   5.375  11.514   6.632  0.1508  0.0751 -0.0563
  980POPC   D2A13912   5.555  11.457   6.992 -0.0656  0.0606 -0.2037
  980POPC   C3A13913   5.804  11.570   7.260  0.3114 -0.0510  0.1031
  980POPC   C4A13914   6.063  11.826   7.542  0.0106  0.1499  0.0458
  980POPC   C1B13915   4.851  11.508   6.634  0.1171  0.2091  0.0403
  980POPC   C2B13916   5.047  11.538   6.989 -0.0553 -0.1586  0.3206
  980POPC   C3B13917   5.104  11.420   7.444 -0.4554 -0.0299 -0.4899
  980POPC   C4B13918   5.500  11.435   7.622 -0.0632 -0.1060  0.0205
  981YOPC   NC313919   4.597  15.016   5.543  0.0638 -0.0661  0.3225
  981YOPC   PO413920   4.570  14.726   5.776 -0.0678  0.2346 -0.1603
  981YOPC   GL113921   4.562  14.419   6.095  0.1169  0.3106  0.2136
  981YOPC   GL213922   4.647  14.499   6.459 -0.3436  0.3310  0.0469
  981YOPC   C1A13923   4.601  14.026   6.397 -0.1486  0.2638  0.1387
  981YOPC   D2A13924   4.592  13.675   6.699 -0.0342 -0.3177  0.0538
  981YOPC   C3A13925   4.083  13.586   6.906  0.0125  0.1031  0.2089
  981YOPC   C4A13926   4.100  13.330   7.274  0.0947 -0.0931 -0.1092
  981YOPC   C1B13927   4.582  14.628   6.968  0.0371 -0.1403  0.1205
  981YOPC   C2B13928   4.326  14.442   7.290  0.0053  0.1474  0.0861
  981YOPC   D3B13929   4.395  14.123   7.574 -0.3847  0.2588  0.0450
  981YOPC   C4B13930   4.205  13.657   7.724  0.0122  0.0465 -0.0075
  982YOPC   NC313931  15.991   2.092   5.713 -0.3592  0.0910 -0.0102
  982YOPC   PO413932  15.844   2.486   5.454  0.0231 -0.0111  0.0308
  982YOPC   GL113933  15.865   2.564   5.814  0.2240 -0.2018  0.0787
  982YOPC   GL213934  15.738   2.801   5.927  0.4127  0.0767  0.2206
  982YOPC   C1A13935  15.707   2.319   6.298 -0.0478  0.0897  0.3295
  982YOPC   D2A13936  15.798   2.094   6.608  0.1072  0.0479 -0.1317
  982YOPC   C3A13937  16.068   2.146   6.964  0.1276 -0.0678  0.1088
  982YOPC   C4A13938  16.132   2.499   7.295 -0.0730 -0.0542  0.2807
  982YOPC   C1B13939  15.505   2.814   6.267  0.1990  0.0533  0.0760
  982YOPC   C2B13940  15.129   3.040   6.436  0.0192 -0.2251 -0.3078
  982YOPC   D3B13941  14.836   2.835   6.374  0.3338  0.1244 -0.1454
  982YOPC   C4B13942  14.529   2.605   6.418  0.1726  0.2077 -0.0482
  983YOPC   NC313943   6.196  16.049   5.573 -0.0273 -0.1445  0.0755
  983YOPC   PO413944   6.097  16.195   5.962  0.1145 -0.2303  0.0559
  983YOPC   GL113945   6.204  16.229   6.407 -0.2665  0.2213  0.3603
  983YOPC   GL213946   6.521  16.407   6.415  0.0621 -0.4691  0.1391
  983YOPC   C1A13947   6.288  16.299   6.834  0.2072  0.0602 -0.0566
  983YOPC   D2A13948   6.212  16.177   7.302 -0.0185  0.0052 -0.2441
  983YOPC   C3A13949   6.209  16.399   7.569  0.0275  0.2867 -0.1015
  983YOPC   C4A13950   5.871  16.452   7.910  0.0669  0.1503  0.1576
  983YOPC   C1B13951   6.785  16.272   6.801 -0.1506 -0.0309 -0.3177
  983YOPC   C2B13952   6.712  16.401   7.176 -0.1403  0.1161  0.0001
  983YOPC   D3B13953   6.707  16.143   7.591  0.1951  0.0782  0.0615
  983YOPC   C4B13954   6.788  16.047   8.040 -0.2035  0.2129  0.1000
  984YOPC   NC313955  17.518   6.026   5.203  0.0084 -0.3730 -0.0039
  984YOPC   PO413956  17.269   6.486   5.056 -0.0355  0.1189  0.0335
  984YOPC   GL113957  17.017   6.487   5.487  0.2802 -0.0197  0.3881
  984YOPC   GL213958  17.162   6.244   5.633 -0.0206 -0.0194 -0.0367
  984YOPC   C1A13959  16.870   6.667   5.811 -0.2683  0.2712  0.2061
  984YOPC   D2A13960  16.711   6.565   6.196  0.1601  0.1527 -0.0543
  984YOPC   C3A13961  16.334   6.410   6.325  0.1909 -0.2135  0.0419
  984YOPC   C4A13962  16.057   6.158   6.528 -0.1617  0.0286  0.1634
  984YOPC   C1B13963  17.131   6.268   6.055 -0.1539 -0.0235  0.0120
  984YOPC   C2B13964  17.122   6.254   6.419  0.2969  0.2879 -0.1692
  984YOPC   D3B13965  17.362   6.498   6.652 -0.2584  0.0259 -0.1022
  984YOPC   C4B13966  17.668   6.584   7.001 -0.0666  0.0095  0.0385
  985YOPC   NC313967   3.066   0.497   5.263 -0.0413  0.2759 -0.0004
  985YOPC   PO413968   3.036   0.556   5.760 -0.2447 -0.1754 -0.0599
  985YOPC   GL113969   3.247   0.401   6.036 -0.3690  0.2120 -0.1625
  985YOPC   GL213970   3.414   0.103   6.060  0.1963  0.1203 -0.0751
  985YOPC   C1A13971   3.118   0.261   6.420 -0.1971 -0.0557 -0.3118
  985YOPC   D2A13972   3.125   0.221   6.872  0.0775 -0.1085 -0.0434
  985YOPC   C3A13973   2.763  -0.028   6.986  0.2639  0.0487  0.3563
  985YOPC   C4A13974   2.514  -0.340   7.137 -0.0747 -0.0796  0.0271
  985YOPC   C1B13975   3.579  -0.268   6.281 -0.1244 -0.3602  0.3231
  985YOPC   C2B13976   3.889  -0.468   6.545 -0.0132  0.0293  0.0723
  985YOPC   D3B13977   4.239  -0.545   6.645 -0.1425 -0.0635 -0.1857
  985YOPC   C4B13978   4.681  -0.492   6.521 -0.1973 -0.0574 -0.0202
  986YOPC   NC313979   0.313   7.528   5.535 -0.0717  0.0170  0.0257
  986YOPC   PO413980  -0.115   7.435   5.763  0.2765  0.0581  0.1126
  986YOPC   GL113981   0.176   7.307   6.101 -0.0462  0.1090 -0.0666
  986YOPC   GL213982   0.210   6.868   6.128  0.2601 -0.0411 -0.2360
  986YOPC   C1A13983   0.202   7.149   6.589  0.0385  0.0100  0.0006
  986YOPC   D2A13984   0.168   7.269   7.049 -0.0131  0.2190  0.5241
  986YOPC   C3A13985   0.422   7.396   7.275  0.1075 -0.1392 -0.1403
  986YOPC   C4A13986   0.640   7.492   7.628 -0.1353  0.1870 -0.0485
  986YOPC   C1B13987   0.572   6.839   6.423  0.2180  0.1372  0.0700
  986YOPC   C2B13988   0.993   6.864   6.385  0.2339 -0.2393 -0.1931
  986YOPC   D3B13989   1.297   6.633   6.702  0.0626 -0.0204  0.1260
  986YOPC   C4B13990   1.350   6.553   7.140 -0.1428 -0.1336  0.0948
  987YOPC   NC313991   1.974   0.991   5.828 -0.0620  0.0445  0.0440
  987YOPC   PO413992   2.065   1.346   5.780  0.0431 -0.0934 -0.2660
  987YOPC   GL113993   2.224   1.333   6.119 -0.1650 -0.0257 -0.0953
  987YOPC   GL213994   2.563   1.264   6.178  0.3462  0.0205 -0.1788
  987YOPC   C1A13995   2.258   1.562   6.475 -0.2102  0.0775  0.0752
  987YOPC   D2A13996   2.063   1.709   6.842  0.0198 -0.3039 -0.1383
  987YOPC   C3A13997   2.134   1.462   7.309 -0.0602  0.1513 -0.0301
  987YOPC   C4A13998   2.248   1.382   7.755  0.4451  0.1260 -0.2784
  987YOPC   C1B13999   2.500   1.146   6.639  0.0472 -0.1937 -0.0095
  987YOPC   C2B14000   2.469   1.022   7.117  0.2331 -0.4080  0.0389
  987YOPC   D3B14001   2.342   1.042   7.443  0.0647 -0.0155  0.0085
  987YOPC   C4B14002   2.212   0.844   7.761 -0.2712  0.0796 -0.1852
  988YOPC   NC314003   2.145   3.158   5.105  0.0382  0.0529 -0.2473
  988YOPC   PO414004   1.921   3.302   5.513  0.1963 -0.1138 -0.1106
  988YOPC   GL114005   1.755   3.571   5.841  0.1591  0.2126  0.1673
  988YOPC   GL214006   2.025   3.564   6.055 -0.0274 -0.3069 -0.3160
  988YOPC   C1A14007   1.450   3.665   6.185  0.2686 -0.0316  0.1259
  988YOPC   D2A14008   1.250   3.440   6.622  0.1644 -0.0261 -0.0465
  988YOPC   C3A14009   1.329   3.630   6.951 -0.4204 -0.0797  0.0215
  988YOPC   C4A14010   1.483   4.016   7.167  0.1492 -0.0772  0.0756
  988YOPC   C1B14011   2.088   3.760   6.368  0.3550 -0.0877  0.0579
  988YOPC   C2B14012   2.095   3.778   6.797 -0.2400 -0.0114  0.0059
  988YOPC   D3B14013   1.820   3.718   7.089  0.2066 -0.0796  0.0463
  988YOPC   C4B14014   1.578   3.532   7.459  0.0043  0.1174 -0.2252
  989YOPC   NC314015  14.492   3.879   5.609  0.0552  0.3515 -0.0930
  989YOPC   PO414016  14.882   3.551   5.810 -0.2041  0.1207  0.1379
  989YOPC   GL114017  15.009   3.663   6.260 -0.2578  0.2096 -0.1129
  989YOPC   GL214018  15.350   3.674   6.273  0.0530 -0.0128  0.4236
  989YOPC   C1A14019  15.082   3.491   6.590  0.0988  0.1579 -0.0479
  989YOPC   D2A14020  15.370   3.503   6.920 -0.0877 -0.1345 -0.2649
  989YOPC   C3A14021  15.206   3.321   7.263  0.1938  0.1259 -0.0090
  989YOPC   C4A14022  14.836   3.236   7.397 -0.0061 -0.0768 -0.2559
  989YOPC   C1B14023  15.330   3.936   6.702 -0.0456  0.2049 -0.0454
  989YOPC   C2B14024  15.559   4.018   7.041 -0.4527  0.0373  0.0204
  989YOPC   D3B14025  15.639   3.645   7.357 -0.0778  0.3503  0.0331
  989YOPC   C4B14026  15.685   3.213   7.318  0.0954 -0.0063 -0.0535
  990YOPC   NC314027   7.070   3.616   5.910 -0.1531 -0.0036 -0.2022
  990YOPC   PO414028   6.878   3.885   5.774 -0.0747  0.1469 -0.1974
  990YOPC   GL114029   6.996   4.076   6.170 -0.0172 -0.0444 -0.3096
  990YOPC   GL214030   6.757   4.287   6.208 -0.0983 -0.0605 -0.1419
  990YOPC   C1A14031   7.101   3.899   6.684  0.0059 -0.0590  0.1329
  990YOPC   D2A14032   7.153   3.567   7.022 -0.0285  0.1154  0.0190
  990YOPC   C3A14033   7.348   3.696   7.343  0.0791  0.2295  0.0735
  990YOPC   C4A14034   7.296   3.447   7.611  0.0019  0.2138  0.1398
  990YOPC   C1B14035   6.493   4.321   6.605 -0.0642  0.2544 -0.1351
  990YOPC   C2B14036   6.164   4.444   6.941  0.2079  0.1669  0.3573
  990YOPC   D3B14037   5.768   4.405   7.129 -0.5105  0.2512  0.0807
  990YOPC   C4B14038   5.324   4.459   7.290  0.0551  0.0470 -0.2473
  991YOPC   NC314039  14.421  10.797   5.988 -0.2806  0.3656 -0.2083
  991YOPC   PO414040  14.720  10.920   5.748  0.0535  0.0251  0.2400
  991YOPC   GL114041  14.877  10.612   6.102  0.0398 -0.0333 -0.0355
  991YOPC   GL214042  14.767  10.949   6.368 -0.0835 -0.1392  0.2525
  991YOPC   C1A14043  14.802  10.503   6.500 -0.0510 -0.2148 -0.5260
  991YOPC   D2A14044  14.613  10.480   6.875 -0.1821 -0.1298  0.0690
  991YOPC   C3A14045  14.765  10.520   7.329 -0.1074 -0.1095  0.0710
  991YOPC   C4A14046  14.934  10.384   7.814 -0.0538  0.0694  0.0472
  991YOPC   C1B14047  14.874  11.046   6.746  0.1227 -0.0173  0.1310
  991YOPC   C2B14048  14.896  11.003   7.179  0.0669 -0.0547  0.0255
  991YOPC   D3B14049  14.921  11.292   7.446  0.0900  0.1476 -0.1431
  991YOPC   C4B14050  15.205  11.351   7.770  0.2126 -0.1478 -0.2371
  992YOPC   NC314051   2.761   1.235   5.720  0.0249 -0.1632 -0.3145
  992YOPC   PO414052   2.453   0.911   5.867  0.3910 -0.5025 -0.0053
  992YOPC   GL114053   2.488   0.688   6.255 -0.0387  0.0271 -0.0685
  992YOPC   GL214054   2.712   0.467   6.256  0.0651  0.1206  0.1721
  992YOPC   C1A14055   2.445   0.671   6.673  0.0820  0.3916  0.1450
  992YOPC   D2A14056   2.596   0.543   7.034 -0.1633 -0.2519  0.4758
  992YOPC   C3A14057   2.293   0.515   7.359 -0.4357 -0.0524 -0.1869
  992YOPC   C4A14058   1.875   0.318   7.490 -0.2003 -0.0691  0.1396
  992YOPC   C1B14059   2.589   0.221   6.605 -0.1391  0.0949 -0.1284
  992YOPC   C2B14060   2.281   0.067   6.967  0.4202  0.0862  0.1374
  992YOPC   D3B14061   2.066  -0.266   6.836  0.1436  0.0811  0.2167
  992YOPC   C4B14062   1.846  -0.694   6.708  0.0184 -0.0736  0.2255
  993YOPC   NC314063   7.594   2.802   5.720 -0.0371  0.2292 -0.1254
  993YOPC   PO414064   7.949   2.911   5.890  0.2291 -0.0969 -0.2079
  993YOPC   GL114065   8.119   2.956   6.280 -0.2758  0.3992  0.4158
  993YOPC   GL214066   8.021   3.332   6.429  0.0965 -0.0608  0.3166
  993YOPC   C1A14067   7.779   2.955   6.690 -0.1451  0.0031 -0.2986
  993YOPC   D2A14068   7.625   2.868   7.070 -0.1552  0.1018  0.0529
  993YOPC   C3A14069   7.665   2.408   7.229 -0.1449  0.0445  0.3375
  993YOPC   C4A14070   7.420   2.269   7.510  0.1196  0.3735 -0.2557
  993YOPC   C1B14071   8.016   3.434   6.772  0.0736  0.1532 -0.3376
  993YOPC   C2B14072   8.196   3.105   6.966 -0.0280  0.2447  0.1562
  993YOPC   D3B14073   8.068   2.959   7.271 -0.0372  0.1651 -0.3104
  993YOPC   C4B14074   8.241   2.806   7.769 -0.2751 -0.0099  0.0793
  994YOPC   NC314075   5.474  11.103   5.570 -0.4458  0.0810  0.1134
  994YOPC   PO414076   5.362  10.667   5.642 -0.3254  0.1570  0.1041
  994YOPC   GL114077   5.279  10.637   6.067  0.1240 -0.2989 -0.2651
  994YOPC   GL214078   5.567  10.528   6.169  0.0865 -0.1685 -0.0152
  994YOPC   C1A14079   5.059  10.515   6.424 -0.0780  0.1992 -0.2231
  994YOPC   D2A14080   4.742  10.422   6.750 -0.0424 -0.0389  0.0384
  994YOPC   C3A14081   4.669  10.263   7.132  0.4507 -0.3066  0.2153
  994YOPC   C4A14082   4.399  10.072   7.349 -0.1401  0.0227 -0.0323
  994YOPC   C1B14083   5.517  10.524   6.618  0.1279  0.0442  0.3321
  994YOPC   C2B14084   5.270  10.408   6.920 -0.0336  0.2287 -0.0886
  994YOPC   D3B14085   4.940  10.668   7.137  0.0602  0.0873 -0.1253
  994YOPC   C4B14086   4.937  10.879   7.578 -0.4450 -0.0838  0.0946
  995YOPC   NC314087  13.668   6.646   5.714 -0.2961 -0.0028 -0.0882
  995YOPC   PO414088  14.015   6.439   5.613 -0.2175  0.1100 -0.1796
  995YOPC   GL114089  14.302   6.424   5.957 -0.1159  0.1702  0.2333
  995YOPC   GL214090  14.611   6.325   6.060 -0.1004  0.3367 -0.2349
  995YOPC   C1A14091  14.251   6.702   6.355  0.2837 -0.0399  0.0771
  995YOPC   D2A14092  13.922   6.864   6.674  0.2374  0.0850 -0.0038
  995YOPC   C3A14093  13.886   6.845   7.028  0.0768 -0.0806  0.0543
  995YOPC   C4A14094  14.013   6.605   7.349 -0.3537  0.1413  0.2288
  995YOPC   C1B14095  14.833   6.164   6.434 -0.1473 -0.2426  0.1046
  995YOPC   C2B14096  14.841   6.293   6.888  0.0737  0.1999 -0.2776
  995YOPC   D3B14097  14.700   6.212   7.264 -0.0627  0.1837 -0.1378
  995YOPC   C4B14098  14.566   5.882   7.551  0.3398 -0.0061 -0.1785
  996YOPC   NC314099   9.457  11.717   6.124  0.0649 -0.2598 -0.0285
  996YOPC   PO414100   9.767  11.925   6.338  0.0051 -0.0019  0.2027
  996YOPC   GL114101   9.480  11.813   6.680  0.2131 -0.1006  0.4173
  996YOPC   GL214102   9.134  11.984   6.577 -0.1568  0.1033  0.0332
  996YOPC   C1A14103   9.434  11.917   7.064  0.1404  0.2594  0.1112
  996YOPC   D2A14104   9.385  11.863   7.585 -0.3918 -0.0185  0.0365
  996YOPC   C3A14105   9.680  11.887   7.869  0.1996 -0.0718  0.1150
  996YOPC   C4A14106  10.074  12.118   7.974  0.0270  0.0435  0.0270
  996YOPC   C1B14107   8.906  11.958   6.990 -0.0537  0.6254  0.1966
  996YOPC   C2B14108   8.920  11.856   7.388  0.3182  0.2299 -0.0262
  996YOPC   D3B14109   8.946  12.164   7.462  0.0337 -0.0223 -0.1280
  996YOPC   C4B14110   8.850  12.347   7.817 -0.0360  0.0523 -0.0854
  997YOPC   NC314111   7.330  18.404   5.443 -0.0668  0.0787  0.1120
  997YOPC   PO414112   7.329  18.670   5.394  0.1414 -0.3818 -0.0324
  997YOPC   GL114113   7.523  18.815   5.711 -0.0043  0.1043  0.3207
  997YOPC   GL214114   7.684  19.121   5.869  0.3402  0.0404 -0.0459
  997YOPC   C1A14115   7.544  18.663   6.069  0.0993 -0.1003 -0.1805
  997YOPC   D2A14116   7.319  18.876   6.433  0.0561 -0.1042 -0.0087
  997YOPC   C3A14117   7.018  18.768   6.762 -0.1648 -0.1438 -0.1404
  997YOPC   C4A14118   7.114  18.609   7.102 -0.1219 -0.0730 -0.3873
  997YOPC   C1B14119   7.881  19.079   6.250  0.1571 -0.1186  0.3685
  997YOPC   C2B14120   7.868  18.731   6.553  0.2984 -0.0860 -0.0459
  997YOPC   D3B14121   8.045  18.893   6.894  0.0410 -0.1154 -0.1711
  997YOPC   C4B14122   8.118  18.796   7.308 -0.1186 -0.1829  0.0638
  998YOPC   NC314123   2.426  10.488   5.321  0.0341 -0.1605  0.2053
  998YOPC   PO414124   2.787  10.261   5.480  0.2830  0.1897  0.0440
  998YOPC   GL114125   2.719   9.841   5.743 -0.1494  0.0693  0.0359
  998YOPC   GL214126   2.439   9.640   5.779 -0.1684 -0.0483  0.0169
  998YOPC   C1A14127   2.693   9.750   6.194 -0.0377  0.2542  0.2116
  998YOPC   D2A14128   2.592   9.483   6.507 -0.1163  0.0905 -0.4486
  998YOPC   C3A14129   2.660   9.662   6.856  0.3763  0.3566  0.1617
  998YOPC   C4A14130   2.477   9.608   7.302 -0.3509  0.1807  0.1811
  998YOPC   C1B14131   2.532   9.284   6.050  0.4060 -0.0559  0.0590
  998YOPC   C2B14132   2.751   8.908   6.061  0.4234  0.0759 -0.1512
  998YOPC   D3B14133   2.779   8.797   6.386  0.2061 -0.1658 -0.1999
  998YOPC   C4B14134   2.835   8.833   6.768 -0.0958  0.1756 -0.1207
  999YOPC   NC314135   9.416  14.555   6.027 -0.0164  0.2076 -0.0699
  999YOPC   PO414136   9.298  14.233   6.323 -0.1902  0.0187  0.0166
  999YOPC   GL114137   9.681  14.104   6.521 -0.0898  0.1788 -0.0289
  999YOPC   GL214138   9.995  13.975   6.402  0.0231  0.0767 -0.1420
  999YOPC   C1A14139   9.950  14.302   6.771  0.1086 -0.2883 -0.0264
  999YOPC   D2A14140  10.025  14.728   6.815  0.0260 -0.2080 -0.1917
  999YOPC   C3A14141   9.684  15.061   7.027  0.1006  0.0184 -0.3528
  999YOPC   C4A14142   9.782  15.092   7.455 -0.0572  0.2373  0.2332
  999YOPC   C1B14143  10.075  13.834   6.802 -0.0572  0.2545 -0.0559
  999YOPC   C2B14144  10.359  13.922   7.151 -0.0441  0.0758 -0.0672
  999YOPC   D3B14145  10.333  14.336   7.181 -0.0607 -0.3332  0.2634
  999YOPC   C4B14146  10.253  14.808   7.270 -0.2055  0.3075  0.0042
 1000YOPC   NC314147   0.365  11.322   5.488 -0.1294  0.0570  0.1739
 1000YOPC   PO414148   0.565  11.650   5.530 -0.0578  0.1434  0.0261
 1000YOPC   GL114149   0.374  11.484   5.912  0.1051  0.0512 -0.2009
 1000YOPC   GL214150   0.691  11.295   5.881 -0.0299  0.0487 -0.0898
 1000YOPC   C1A14151   0.481  11.452   6.347  0.0241  0.1915  0.0473
 1000YOPC   D2A14152   0.549  11.679   6.685 -0.1051 -0.0171 -0.0370
 1000YOPC   C3A14153   0.760  11.451   7.025 -0.1301  0.3489  0.0079
 1000YOPC   C4A14154   0.945  11.668   7.343 -0.1212 -0.1185  0.0520
 1000YOPC   C1B14155   0.528  10.942   6.102  0.3182 -0.0407 -0.1922
 1000YOPC   C2B14156   0.218  10.869   6.313 -0.0191 -0.0511  0.2090
 1000YOPC   D3B14157  -0.024  11.162   6.324 -0.1446 -0.1223 -0.0100
 1000YOPC   C4B14158   0.033  11.693   6.224  0.0309 -0.2428  0.1354
 1001YOPC   NC314159   0.339   6.316   5.350 -0.1486  0.0933 -0.3120
 1001YOPC   PO414160   0.583   6.635   5.280 -0.0961 -0.0308 -0.0820
 1001YOPC   GL114161   0.454   6.618   5.791  0.0355 -0.1341 -0.3617
 1001YOPC   GL214162   0.143   6.441   5.829  0.0489  0.0347 -0.4280
 1001YOPC   C1A14163   0.506   6.318   6.215  0.0535  0.2030 -0.1684
 1001YOPC   D2A14164   0.581   5.962   6.422 -0.0778  0.2628 -0.3977
 1001YOPC   C3A14165   0.440   5.933   6.788 -0.0442 -0.0853 -0.0759
 1001YOPC   C4A14166   0.075   5.781   7.014  0.1190 -0.1672 -0.1084
 1001YOPC   C1B14167   0.152   6.034   6.040 -0.2873 -0.1456  0.0614
 1001YOPC   C2B14168  -0.165   5.648   5.979 -0.0560 -0.0500 -0.0157
 1001YOPC   D3B14169  -0.409   5.545   6.281  0.1569 -0.2549  0.3063
 1001YOPC   C4B14170  -0.590   5.597   6.636 -0.0826 -0.1763 -0.1791
 1002YOPC   NC314171   9.197  16.430   5.711  0.1586 -0.2179  0.0757
 1002YOPC   PO414172   9.174  16.155   5.965  0.0837 -0.0623 -0.0201
 1002YOPC   GL114173   8.868  16.126   6.319 -0.2596 -0.1226 -0.1819
 1002YOPC   GL214174   8.797  16.325   6.443 -0.0897  0.1087  0.1571
 1002YOPC   C1A14175   8.878  15.922   6.708 -0.2173  0.1519 -0.0760
 1002YOPC   D2A14176   9.078  16.115   7.049  0.0264  0.1620 -0.0076
 1002YOPC   C3A14177   8.819  16.246   7.389  0.1336 -0.2946  0.1392
 1002YOPC   C4A14178   8.728  16.290   7.810  0.0445 -0.3049 -0.2911
 1002YOPC   C1B14179   8.788  16.568   6.846  0.1332  0.1009 -0.0162
 1002YOPC   C2B14180   8.498  16.685   7.166  0.1951 -0.0697 -0.1290
 1002YOPC   D3B14181   8.784  16.959   7.245  0.3036 -0.0537 -0.0024
 1002YOPC   C4B14182   9.126  16.813   7.486  0.2147 -0.2326 -0.0872
 1003YOPC   NC314183   9.623  17.233   5.195  0.1730 -0.0452  0.0772
 1003YOPC   PO414184   9.779  17.196   5.723 -0.3406  0.0326 -0.0686
 1003YOPC   GL114185   9.732  17.490   6.135  0.0518  0.4073  0.4327
 1003YOPC   GL214186   9.475  17.671   6.040  0.0558  0.0239 -0.2427
 1003YOPC   C1A14187  10.053  17.734   6.353  0.0379  0.0130 -0.0492
 1003YOPC   D2A14188  10.428  18.047   6.555 -0.0951  0.1295  0.2503
 1003YOPC   C3A14189  10.603  18.063   6.944  0.2388  0.2177  0.0820
 1003YOPC   C4A14190  10.664  17.981   7.369 -0.1407  0.1329 -0.1380
 1003YOPC   C1B14191   9.567  17.977   6.396  0.1105 -0.0565  0.2371
 1003YOPC   C2B14192   9.919  18.122   6.667 -0.0560 -0.1462  0.0775
 1003YOPC   D3B14193   9.808  18.463   6.951  0.2669  0.0745  0.2331
 1003YOPC   C4B14194   9.445  18.755   7.001  0.0211 -0.4819  0.0751
 1004YOPC   NC314195  15.932  13.791   5.631  0.0882 -0.0662 -0.1749
 1004YOPC   PO414196  16.277  13.573   5.438  0.0761 -0.0841 -0.1970
 1004YOPC   GL114197  16.324  13.462   5.878  0.3861  0.0096 -0.0514
 1004YOPC   GL214198  16.091  13.647   6.070  0.1946 -0.0373  0.0153
 1004YOPC   C1A14199  16.503  13.300   6.270  0.0550  0.2029  0.1059
 1004YOPC   D2A14200  16.459  12.866   6.434 -0.2972  0.2242 -0.0858
 1004YOPC   C3A14201  16.753  12.661   6.796  0.1048 -0.2213 -0.3239
 1004YOPC   C4A14202  16.984  12.567   7.226  0.3099  0.0637  0.0654
 1004YOPC   C1B14203  15.814  13.606   6.335  0.2843 -0.3286  0.0126
 1004YOPC   C2B14204  15.670  13.615   6.700  0.0605 -0.2311  0.2500
 1004YOPC   D3B14205  15.903  13.562   7.059  0.1536 -0.0316  0.2385
 1004YOPC   C4B14206  16.111  13.310   7.357 -0.0174 -0.1411  0.0511
 1005YOPC   NC314207  13.247   4.533   5.904  0.1153  0.1347  0.2047
 1005YOPC   PO414208  13.045   4.802   5.953  0.2086 -0.5360  0.2277
 1005YOPC   GL114209  12.780   4.755   6.306 -0.1640  0.2473 -0.2877
 1005YOPC   GL214210  12.455   4.750   6.266 -0.0933 -0.0330  0.2691
 1005YOPC   C1A14211  12.756   4.765   6.770  0.2107  0.1277 -0.5261
 1005YOPC   D2A14212  13.097   4.749   7.124 -0.2130  0.2254  0.0238
 1005YOPC   C3A14213  13.161   4.525   7.517 -0.1676 -0.1402  0.0363
 1005YOPC   C4A14214  13.303   4.365   7.899  0.0663 -0.2389  0.1332
 1005YOPC   C1B14215  12.272   4.851   6.592  0.1567  0.0136 -0.0400
 1005YOPC   C2B14216  12.234   4.967   6.988 -0.2418 -0.0557 -0.2085
 1005YOPC   D3B14217  11.866   5.000   7.088  0.1938  0.0459 -0.0176
 1005YOPC   C4B14218  11.634   5.068   7.453  0.0922  0.1262 -0.2223
 1006YOPC   NC314219   1.042   9.901   4.924  0.2316 -0.3990 -0.2119
 1006YOPC   PO414220   1.167   9.964   5.364  0.2171 -0.1650  0.1680
 1006YOPC   GL114221   1.414  10.103   5.697 -0.0935 -0.0522  0.0793
 1006YOPC   GL214222   1.562  10.422   5.635  0.3748 -0.0744 -0.0676
 1006YOPC   C1A14223   1.402   9.909   6.089  0.0103 -0.4845  0.2572
 1006YOPC   D2A14224   1.575   9.500   6.270  0.0282  0.0104  0.1786
 1006YOPC   C3A14225   1.698   9.490   6.648 -0.1331 -0.1203 -0.2573
 1006YOPC   C4A14226   1.444   9.599   7.068 -0.1374  0.1902 -0.2199
 1006YOPC   C1B14227   1.762  10.366   6.040  0.0080  0.1614  0.0277
 1006YOPC   C2B14228   2.043  10.413   6.440 -0.0432  0.0931 -0.0228
 1006YOPC   D3B14229   1.969  10.401   6.834 -0.1069 -0.0963  0.0608
 1006YOPC   C4B14230   1.961  10.643   7.198 -0.1770 -0.1994  0.1672
 1007YOPC   NC314231  13.100   2.009   5.580 -0.3604  0.2032  0.1612
 1007YOPC   PO414232  13.344   1.685   5.769 -0.1796  0.0373 -0.1453
 1007YOPC   GL114233  13.483   1.907   6.093 -0.1463  0.2891  0.0428
 1007YOPC   GL214234  13.451   2.274   5.979 -0.1716  0.0256  0.1437
 1007YOPC   C1A14235  13.461   1.848   6.604 -0.2849  0.1386 -0.5162
 1007YOPC   D2A14236  13.295   1.893   6.956  0.0934  0.0980  0.1041
 1007YOPC   C3A14237  12.942   1.842   7.262  0.1677  0.1434  0.1416
 1007YOPC   C4A14238  12.799   1.798   7.695  0.1896 -0.1687 -0.1314
 1007YOPC   C1B14239  13.841   2.242   6.317 -0.0327 -0.1382 -0.0557
 1007YOPC   C2B14240  14.162   2.136   6.553  0.0353 -0.0744 -0.1065
 1007YOPC   D3B14241  14.196   2.118   7.000 -0.1646  0.1640 -0.3178
 1007YOPC   C4B14242  14.461   2.098   7.301  0.1243 -0.1351 -0.0476
 1008YOPC   NC314243   4.924  16.260   5.866  0.0738 -0.0293 -0.1721
 1008YOPC   PO414244   4.739  15.955   6.197  0.0236 -0.3175 -0.1883
 1008YOPC   GL114245   4.799  16.070   6.635 -0.0254 -0.0304 -0.2646
 1008YOPC   GL214246   4.711  16.373   6.671  0.0246  0.1540  0.1276
 1008YOPC   C1A14247   4.546  15.986   6.930 -0.1380 -0.1061 -0.1122
 1008YOPC   D2A14248   4.401  16.005   7.352 -0.1080 -0.2029  0.0271
 1008YOPC   C3A14249   4.009  16.256   7.618  0.1018  0.0939  0.1335
 1008YOPC   C4A14250   3.914  16.235   8.108 -0.0319 -0.0578 -0.0543
 1008YOPC   C1B14251   4.437  16.459   7.100 -0.0760 -0.0946  0.2177
 1008YOPC   C2B14252   4.181  16.705   7.430  0.0181  0.1117  0.0136
 1008YOPC   D3B14253   3.722  16.708   7.584  0.0269  0.1577 -0.0086
 1008YOPC   C4B14254   3.374  16.829   7.887  0.1800  0.2599  0.3251
 1009YOPC   NC314255   8.733  17.706   5.409 -0.0947 -0.1793 -0.3489
 1009YOPC   PO414256   8.446  17.851   5.662 -0.0137  0.0131  0.0984
 1009YOPC   GL114257   8.217  17.935   6.102 -0.0927  0.0519  0.0091
 1009YOPC   GL214258   8.261  17.674   6.178 -0.0568  0.0806  0.0984
 1009YOPC   C1A14259   7.864  18.183   6.416 -0.0552  0.0847 -0.0868
 1009YOPC   D2A14260   8.002  18.317   6.856 -0.0554 -0.1609  0.2429
 1009YOPC   C3A14261   7.790  18.350   7.172 -0.0269 -0.2713 -0.5035
 1009YOPC   C4A14262   7.413  18.450   7.460  0.0360 -0.1015  0.1527
 1009YOPC   C1B14263   8.198  17.712   6.596 -0.0966  0.0019  0.0704
 1009YOPC   C2B14264   8.272  17.697   7.025 -0.0529 -0.2121 -0.2786
 1009YOPC   D3B14265   8.140  18.043   7.333  0.3249  0.2959 -0.0481
 1009YOPC   C4B14266   8.025  18.416   7.620 -0.0967 -0.0100  0.0228
 1010YOPC   NC314267   1.269  14.787   5.662  0.0420 -0.0369 -0.0041
 1010YOPC   PO414268   1.088  14.456   5.838 -0.0284  0.1728  0.0966
 1010YOPC   GL114269   0.878  14.851   6.086 -0.4403  0.0664 -0.0657
 1010YOPC   GL214270   1.004  15.204   6.104  0.1649  0.1672 -0.3257
 1010YOPC   C1A14271   0.855  14.852   6.466  0.1937  0.0863 -0.1896
 1010YOPC   D2A14272   0.603  14.762   6.825 -0.1124 -0.1083 -0.0879
 1010YOPC   C3A14273   0.745  14.655   7.232  0.0063  0.0768  0.1580
 1010YOPC   C4A14274   0.814  14.516   7.705  0.3208  0.1576 -0.0620
 1010YOPC   C1B14275   0.832  15.540   6.260 -0.0352  0.0895  0.3257
 1010YOPC   C2B14276   0.882  15.869   6.565  0.2464 -0.0167 -0.0031
 1010YOPC   D3B14277   0.674  16.064   6.771 -0.0167 -0.1670  0.1466
 1010YOPC   C4B14278   0.562  16.139   7.166 -0.1972 -0.2219  0.1907
 1011YOPC   NC314279  14.484   1.921   5.022  0.0049  0.0952 -0.2530
 1011YOPC   PO414280  14.642   1.937   5.351  0.2600 -0.1016  0.3877
 1011YOPC   GL114281  14.572   2.042   5.816 -0.2893  0.1422  0.0217
 1011YOPC   GL214282  14.549   1.797   6.023 -0.1772 -0.0052  0.1057
 1011YOPC   C1A14283  14.681   2.166   6.290  0.1001 -0.0891  0.0560
 1011YOPC   D2A14284  14.640   2.270   6.741  0.0125 -0.0813  0.0315
 1011YOPC   C3A14285  14.719   2.542   7.000 -0.1425  0.0920  0.1863
 1011YOPC   C4A14286  14.771   2.646   7.484  0.2192  0.1243  0.2523
 1011YOPC   C1B14287  14.481   1.653   6.395  0.0883  0.0658 -0.0646
 1011YOPC   C2B14288  14.586   1.711   6.844  0.4685 -0.1362  0.2355
 1011YOPC   D3B14289  14.518   1.524   7.315 -0.2262 -0.3777 -0.2568
 1011YOPC   C4B14290  14.864   1.727   7.617 -0.2087 -0.0620  0.0007
 1012YOPC   NC314291   4.598  14.199   5.599 -0.3705 -0.1536  0.1468
 1012YOPC   PO414292   4.416  13.786   5.661 -0.1967  0.0140  0.1619
 1012YOPC   GL114293   4.246  13.860   6.084  0.1395 -0.1544 -0.0476
 1012YOPC   GL214294   4.117  14.155   6.097  0.1019 -0.0288  0.0375
 1012YOPC   C1A14295   4.112  13.537   6.365 -0.1364 -0.3201 -0.0974
 1012YOPC   D2A14296   4.376  13.242   6.569  0.2078  0.1473  0.2131
 1012YOPC   C3A14297   4.519  13.247   6.985 -0.3543  0.3006  0.1730
 1012YOPC   C4A14298   4.585  12.912   7.310 -0.3622  0.1254 -0.2160
 1012YOPC   C1B14299   4.063  14.059   6.584  0.0233  0.2390  0.1281
 1012YOPC   C2B14300   4.380  14.125   6.880  0.0149 -0.2896  0.0069
 1012YOPC   D3B14301   4.476  13.790   7.158  0.1038  0.3083  0.0286
 1012YOPC   C4B14302   4.706  13.477   7.437  0.0224  0.1140  0.2049
 1013YOPC   NC314303   6.436   3.732   5.543  0.1120  0.3603 -0.0345
 1013YOPC   PO414304   6.067   3.877   5.728  0.1906 -0.1783  0.0877
 1013YOPC   GL114305   5.952   3.902   6.140 -0.3694 -0.0049 -0.0782
 1013YOPC   GL214306   5.697   4.241   6.188 -0.1419  0.0769 -0.0052
 1013YOPC   C1A14307   5.973   4.138   6.585  0.1339 -0.1948 -0.1501
 1013YOPC   D2A14308   6.065   3.969   7.024  0.0417  0.0776  0.1839
 1013YOPC   C3A14309   6.160   4.237   7.414 -0.0200 -0.0032  0.1648
 1013YOPC   C4A14310   6.183   4.655   7.440  0.1582 -0.0118  0.0805
 1013YOPC   C1B14311   5.568   4.490   6.617  0.0293 -0.0341 -0.2459
 1013YOPC   C2B14312   5.547   4.835   6.877 -0.3702 -0.1749  0.1011
 1013YOPC   D3B14313   5.784   4.981   7.299 -0.2345  0.0857  0.0349
 1013YOPC   C4B14314   6.086   5.289   7.547  0.2490 -0.0813 -0.2892
 1014YOPC   NC314315  11.395  11.765   5.931  0.1087 -0.3329 -0.2953
 1014YOPC   PO414316  11.106  11.427   6.162 -0.1744  0.0157 -0.0057
 1014YOPC   GL114317  11.394  11.515   6.470 -0.0049  0.1444 -0.2086
 1014YOPC   GL214318  11.479  11.841   6.466  0.1196 -0.0042 -0.1335
 1014YOPC   C1A14319  11.605  11.561   6.848  0.0635 -0.2640 -0.0640
 1014YOPC   D2A14320  11.623  11.421   7.211  0.3432  0.0711  0.1151
 1014YOPC   C3A14321  11.827  11.321   7.544 -0.0626  0.0977  0.0657
 1014YOPC   C4A14322  11.944  11.397   8.084 -0.0124 -0.2556  0.0624
 1014YOPC   C1B14323  11.598  12.046   6.916 -0.3331  0.1095  0.0260
 1014YOPC   C2B14324  11.705  11.926   7.237  0.1968 -0.0807 -0.1374
 1014YOPC   D3B14325  11.447  12.229   7.475 -0.0333 -0.2932  0.1013
 1014YOPC   C4B14326  11.344  12.503   7.797  0.2343 -0.2143  0.0268
 1015YOPC   NC314327  12.607   4.322   5.134  0.4053  0.0562  0.1705
 1015YOPC   PO414328  12.758   4.459   5.521 -0.0722 -0.0166 -0.1851
 1015YOPC   GL114329  12.611   4.331   5.948 -0.0571  0.0102  0.0178
 1015YOPC   GL214330  12.421   4.154   6.027 -0.1939  0.0585 -0.1599
 1015YOPC   C1A14331  12.707   4.294   6.430 -0.1578  0.0887 -0.1583
 1015YOPC   D2A14332  12.906   4.188   6.784  0.2253  0.2173  0.2986
 1015YOPC   C3A14333  13.125   4.221   7.145 -0.2804 -0.1065  0.1729
 1015YOPC   C4A14334  13.051   3.865   7.506  0.0993 -0.1371 -0.1407
 1015YOPC   C1B14335  12.182   4.354   6.468 -0.1263  0.1425 -0.2614
 1015YOPC   C2B14336  12.338   4.498   6.892 -0.1188 -0.0091  0.2317
 1015YOPC   D3B14337  12.217   4.576   7.279  0.1124  0.0357  0.0358
 1015YOPC   C4B14338  11.951   4.609   7.643  0.2851 -0.1927  0.0269
 1016YOPC   NC314339  17.079  10.907   5.588 -0.0033  0.3499 -0.0038
 1016YOPC   PO414340  17.092  10.476   5.533  0.4582  0.0902  0.1457
 1016YOPC   GL114341  17.140  10.475   5.922  0.0906 -0.0567 -0.0996
 1016YOPC   GL214342  17.155  10.732   6.147 -0.0331 -0.1109 -0.0911
 1016YOPC   C1A14343  17.107  10.312   6.402  0.4446  0.1846 -0.0102
 1016YOPC   D2A14344  17.253   9.951   6.634  0.0074  0.0399 -0.1303
 1016YOPC   C3A14345  17.322   9.558   6.437 -0.1735  0.0246 -0.0269
 1016YOPC   C4A14346  17.337   9.437   6.005  0.2108 -0.0587  0.0293
 1016YOPC   C1B14347  17.233  10.816   6.538  0.2246 -0.0147  0.0997
 1016YOPC   C2B14348  16.987  10.881   6.996 -0.1467  0.0340  0.2262
 1016YOPC   D3B14349  17.083  11.199   7.308  0.0195  0.1996  0.2860
 1016YOPC   C4B14350  17.248  11.560   7.491  0.4137  0.0641 -0.1096
 1017YOPC   NC314351   3.923   9.734   5.590 -0.2467  0.1230 -0.1762
 1017YOPC   PO414352   4.068   9.259   5.544 -0.0899 -0.4000  0.0006
 1017YOPC   GL114353   4.031   9.145   5.865 -0.4421 -0.0361 -0.0567
 1017YOPC   GL214354   4.024   9.495   6.040  0.0297  0.0283 -0.1400
 1017YOPC   C1A14355   4.019   9.108   6.352 -0.0666 -0.1778  0.0061
 1017YOPC   D2A14356   3.875   8.958   6.735 -0.0642  0.0780 -0.1200
 1017YOPC   C3A14357   4.030   9.015   7.132  0.1580 -0.2062 -0.1801
 1017YOPC   C4A14358   4.185   9.151   7.478 -0.1751 -0.2811  0.0390
 1017YOPC   C1B14359   4.423   9.318   6.277  0.0500 -0.0239 -0.1670
 1017YOPC   C2B14360   4.736   8.971   6.341  0.3045  0.1453 -0.0528
 1017YOPC   D3B14361   4.707   8.910   6.776  0.0197  0.0023  0.0509
 1017YOPC   C4B14362   4.820   8.761   7.160 -0.1052 -0.1515  0.1534
 1018YOPC   NC314363  14.210  17.125   5.427 -0.0459 -0.0476  0.0146
 1018YOPC   PO414364  13.994  16.856   5.667 -0.0338  0.2469 -0.0267
 1018YOPC   GL114365  13.799  17.038   6.121 -0.0077 -0.1498  0.1792
 1018YOPC   GL214366  13.819  17.327   6.334  0.0801  0.2359 -0.0973
 1018YOPC   C1A14367  13.757  16.829   6.508  0.0367  0.1492 -0.1448
 1018YOPC   D2A14368  13.476  16.779   6.828 -0.0165 -0.1052 -0.0165
 1018YOPC   C3A14369  13.558  16.729   7.258  0.3894  0.2318  0.0057
 1018YOPC   C4A14370  13.533  16.901   7.633 -0.1215 -0.1923  0.0588
 1018YOPC   C1B14371  13.695  17.219   6.811  0.0353  0.0324 -0.1012
 1018YOPC   C2B14372  13.545  17.193   7.226 -0.0778 -0.1663 -0.0282
 1018YOPC   D3B14373  13.409  17.375   7.522 -0.2046  0.0790 -0.0235
 1018YOPC   C4B14374  13.482  17.748   7.934 -0.0345  0.0812 -0.0730
 1019YOPC   NC314375  15.263   8.982   5.835 -0.0226  0.0851 -0.3773
 1019YOPC   PO414376  15.081   9.438   5.797  0.1146 -0.2016  0.1404
 1019YOPC   GL114377  15.083   9.357   6.247  0.2086 -0.0443  0.1050
 1019YOPC   GL214378  14.959   9.066   6.289  0.0869 -0.3548  0.0488
 1019YOPC   C1A14379  14.954   9.655   6.575  0.1630  0.1696  0.2273
 1019YOPC   D2A14380  14.810   9.667   7.023 -0.1817  0.0233  0.1018
 1019YOPC   C3A14381  14.875   9.421   7.361 -0.2925  0.0080 -0.0307
 1019YOPC   C4A14382  14.971   9.383   7.801  0.0459 -0.1305 -0.1944
 1019YOPC   C1B14383  14.720   8.784   6.609  0.0329  0.0076  0.2000
 1019YOPC   C2B14384  14.598   8.593   7.010 -0.1444  0.1627  0.4797
 1019YOPC   D3B14385  14.602   8.471   7.387  0.1730 -0.0161 -0.1576
 1019YOPC   C4B14386  14.536   8.714   7.760  0.0164  0.2286 -0.1222
 1020YOPC   NC314387   3.771   8.418   5.311 -0.0027  0.0469 -0.2969
 1020YOPC   PO414388   3.986   8.132   5.152  0.1528 -0.1346 -0.3732
 1020YOPC   GL114389   4.138   8.287   5.633 -0.2229 -0.1788 -0.2770
 1020YOPC   GL214390   3.969   8.234   5.812 -0.0572 -0.1029  0.0296
 1020YOPC   C1A14391   4.504   8.353   5.775 -0.0752  0.1355  0.1246
 1020YOPC   D2A14392   4.828   8.596   5.973  0.3617  0.1132  0.1253
 1020YOPC   C3A14393   4.877   8.421   6.381 -0.2350 -0.1492  0.2550
 1020YOPC   C4A14394   4.892   8.399   6.781  0.1191  0.2183  0.2447
 1020YOPC   C1B14395   3.752   7.914   6.010  0.1075  0.0770 -0.0892
 1020YOPC   C2B14396   3.670   7.497   6.144  0.1113 -0.1008 -0.0383
 1020YOPC   D3B14397   3.663   7.608   6.628 -0.0255 -0.3137 -0.0051
 1020YOPC   C4B14398   3.665   7.852   7.009 -0.2466 -0.0629 -0.0248
 1021YOPC   NC314399   5.212   0.360   5.958 -0.2465  0.0245  0.2980
 1021YOPC   PO414400   5.624   0.309   6.169 -0.2870  0.1494  0.3426
 1021YOPC   GL114401   5.555   0.547   6.545  0.0550  0.1268 -0.0423
 1021YOPC   GL214402   5.867   0.679   6.707 -0.1624 -0.0088 -0.1701
 1021YOPC   C1A14403   5.256   0.566   6.955 -0.2702  0.0622  0.2513
 1021YOPC   D2A14404   5.144   0.896   7.348  0.3858  0.0665  0.0591
 1021YOPC   C3A14405   5.321   0.826   7.757  0.1314  0.6010  0.2481
 1021YOPC   C4A14406   5.511   0.442   7.723  0.1114 -0.1373 -0.0727
 1021YOPC   C1B14407   5.741   0.498   7.031 -0.1621 -0.0755 -0.5281
 1021YOPC   C2B14408   5.509   0.224   7.190  0.1420 -0.0599  0.1977
 1021YOPC   D3B14409   5.162   0.300   7.398  0.0164  0.0892  0.0103
 1021YOPC   C4B14410   4.949   0.521   7.597  0.2345 -0.1550  0.1951
 1022YOPC   NC314411  17.269   2.833   5.293  0.3069 -0.2780  0.2513
 1022YOPC   PO414412  16.938   2.848   5.676  0.1885  0.0674 -0.2682
 1022YOPC   GL114413  17.039   2.994   6.134  0.0609  0.1673  0.1688
 1022YOPC   GL214414  17.219   2.715   6.190 -0.0312  0.0914  0.1846
 1022YOPC   C1A14415  17.178   3.201   6.519 -0.0337 -0.1225 -0.3811
 1022YOPC   D2A14416  17.239   3.240   6.999 -0.0277  0.2170  0.3038
 1022YOPC   C3A14417  17.503   3.452   7.179 -0.0373 -0.0104 -0.2496
 1022YOPC   C4A14418  17.747   3.655   7.321  0.0336  0.1641 -0.1140
 1022YOPC   C1B14419  17.238   2.724   6.631  0.4069  0.0143 -0.0041
 1022YOPC   C2B14420  17.395   2.817   7.054 -0.1840  0.2759 -0.3100
 1022YOPC   D3B14421  17.341   2.978   7.469  0.1455  0.0620 -0.0806
 1022YOPC   C4B14422  17.472   2.983   7.933 -0.0101 -0.0426 -0.1850
 1023YOPC   NC314423   5.133   5.645   5.353  0.0976 -0.1367  0.0887
 1023YOPC   PO414424   5.379   5.346   5.038 -0.0647  0.3352  0.1811
 1023YOPC   GL114425   5.663   5.410   5.418  0.3296 -0.1445  0.0703
 1023YOPC   GL214426   5.440   5.270   5.583  0.1297 -0.0140  0.0784
 1023YOPC   C1A14427   5.757   5.514   5.823 -0.0014 -0.0296  0.1451
 1023YOPC   D2A14428   5.792   5.398   6.219  0.0807 -0.1064 -0.0368
 1023YOPC   C3A14429   5.952   5.471   6.583  0.3112 -0.0385  0.0632
 1023YOPC   C4A14430   5.907   5.360   6.949  0.3893  0.1550  0.0320
 1023YOPC   C1B14431   5.333   5.257   6.068 -0.2129 -0.2579 -0.0352
 1023YOPC   C2B14432   4.956   5.279   6.333  0.0400  0.1103  0.1035
 1023YOPC   D3B14433   4.962   5.203   6.683 -0.0297  0.1785 -0.2563
 1023YOPC   C4B14434   4.963   5.143   7.031  0.1174 -0.1402  0.2075
 1024YOPC   NC314435   8.638   8.333   5.888  0.3198  0.1148 -0.3186
 1024YOPC   PO414436   8.498   8.714   5.789 -0.0154 -0.1934 -0.0454
 1024YOPC   GL114437   8.627   8.784   6.169 -0.2306  0.0619 -0.0589
 1024YOPC   GL214438   8.859   8.856   6.232  0.2289 -0.1052  0.2285
 1024YOPC   C1A14439   8.636   8.516   6.592  0.2658 -0.1315  0.3296
 1024YOPC   D2A14440   8.634   8.404   7.054  0.1077 -0.2532  0.1982
 1024YOPC   C3A14441   8.714   8.727   7.260  0.0015 -0.3607 -0.2573
 1024YOPC   C4A14442   8.834   9.093   7.256 -0.0120 -0.1677 -0.0381
 1024YOPC   C1B14443   8.885   8.929   6.756  0.1174  0.1470  0.1566
 1024YOPC   C2B14444   9.145   8.713   7.014  0.0416 -0.1325 -0.0014
 1024YOPC   D3B14445   9.208   8.716   7.524  0.0859 -0.1796  0.2193
 1024YOPC   C4B14446   9.289   8.865   7.917 -0.0014  0.5226 -0.1614
 1025YOPC   NC314447  10.832   7.697   6.021  0.1319  0.0002  0.0355
 1025YOPC   PO414448  10.341   7.959   5.825  0.0094 -0.2432 -0.0585
 1025YOPC   GL114449  10.144   8.076   6.207 -0.1667 -0.0373  0.0800
 1025YOPC   GL214450   9.946   7.813   6.304  0.2592  0.1607  0.0752
 1025YOPC   C1A14451  10.180   8.241   6.595 -0.0693  0.2241  0.1938
 1025YOPC   D2A14452  10.506   8.241   6.940 -0.0655 -0.0652 -0.2798
 1025YOPC   C3A14453  10.385   8.268   7.318  0.0021 -0.0245  0.2205
 1025YOPC   C4A14454  10.135   8.438   7.719  0.1156  0.2758 -0.2123
 1025YOPC   C1B14455  10.089   7.735   6.658  0.0179 -0.2766 -0.1054
 1025YOPC   C2B14456  10.254   7.819   7.107 -0.0049  0.2471  0.0785
 1025YOPC   D3B14457  10.203   7.555   7.430  0.0603  0.0747  0.2913
 1025YOPC   C4B14458   9.974   7.295   7.718 -0.0304 -0.0491  0.1715
 1026YOPC   NC314459   9.332   7.743   5.634 -0.0175  0.2606  0.1462
 1026YOPC   PO414460   8.948   8.030   5.637  0.3589 -0.1065  0.0285
 1026YOPC   GL114461   8.885   7.889   6.064  0.2637  0.1926  0.0037
 1026YOPC   GL214462   8.619   7.986   6.248 -0.0254 -0.1526 -0.0851
 1026YOPC   C1A14463   8.974   7.671   6.440 -0.3805  0.1291  0.0804
 1026YOPC   D2A14464   8.890   7.591   6.853 -0.0738 -0.2181 -0.1148
 1026YOPC   C3A14465   9.078   7.704   7.293  0.0140 -0.2291  0.0785
 1026YOPC   C4A14466   9.280   7.461   7.659  0.1479  0.1864  0.0453
 1026YOPC   C1B14467   8.598   8.039   6.732 -0.0373 -0.1089 -0.1388
 1026YOPC   C2B14468   8.465   7.913   7.043 -0.1503  0.0714  0.2351
 1026YOPC   D3B14469   8.533   8.036   7.369  0.0022 -0.0649 -0.0513
 1026YOPC   C4B14470   8.511   8.358   7.546  0.2432 -0.0425  0.1300
 1027YOPC   NC314471  11.796  15.777   5.493  0.0213 -0.1975  0.1853
 1027YOPC   PO414472  11.967  16.157   5.570 -0.0071 -0.3685 -0.1281
 1027YOPC   GL114473  12.015  16.050   6.033  0.1557 -0.2148 -0.0665
 1027YOPC   GL214474  12.225  16.113   6.181 -0.0446  0.0873 -0.0027
 1027YOPC   C1A14475  11.935  15.885   6.449 -0.4873 -0.0616 -0.1176
 1027YOPC   D2A14476  12.043  15.827   6.821 -0.1114 -0.0753 -0.0203
 1027YOPC   C3A14477  11.765  15.508   6.964 -0.0031  0.1784  0.0688
 1027YOPC   C4A14478  11.632  15.341   7.266 -0.2877 -0.0003  0.0707
 1027YOPC   C1B14479  12.316  16.184   6.492 -0.1545 -0.2846  0.0820
 1027YOPC   C2B14480  12.120  16.428   6.804 -0.1244  0.3530  0.1607
 1027YOPC   D3B14481  12.079  16.190   7.189 -0.0637  0.0551  0.2476
 1027YOPC   C4B14482  12.148  15.740   7.256 -0.1841  0.1825  0.0654
 1028YOPC   NC314483   6.652  10.186   5.838 -0.1197  0.2394  0.1699
 1028YOPC   PO414484   7.070  10.073   5.907 -0.2284  0.3911 -0.0062
 1028YOPC   GL114485   6.983   9.906   6.302 -0.0461  0.1100 -0.0399
 1028YOPC   GL214486   6.678   9.809   6.220 -0.1197  0.0593  0.3023
 1028YOPC   C1A14487   7.081   9.752   6.647  0.1630 -0.0206 -0.0762
 1028YOPC   D2A14488   6.977   9.736   6.990  0.4524  0.2198 -0.3096
 1028YOPC   C3A14489   7.025   9.807   7.453 -0.1786 -0.2068 -0.2086
 1028YOPC   C4A14490   7.203   9.828   7.763 -0.0984 -0.2528  0.1246
 1028YOPC   C1B14491   6.560   9.637   6.630 -0.4469 -0.2650 -0.0460
 1028YOPC   C2B14492   6.486   9.761   7.096  0.2539  0.2939 -0.0586
 1028YOPC   D3B14493   6.655   9.548   7.359 -0.0524  0.1187 -0.2666
 1028YOPC   C4B14494   6.770   9.149   7.572 -0.0762 -0.0273 -0.0065
 1029YOPC   NC314495  12.276   5.769   5.494  0.3290  0.0692 -0.1986
 1029YOPC   PO414496  12.562   6.007   5.788 -0.1644 -0.1972 -0.0740
 1029YOPC   GL114497  12.396   5.853   6.217 -0.2063 -0.2233 -0.2360
 1029YOPC   GL214498  12.088   5.709   6.266 -0.0292  0.0737  0.0067
 1029YOPC   C1A14499  12.478   5.840   6.700 -0.0949 -0.3552 -0.2697
 1029YOPC   D2A14500  12.844   5.668   6.919 -0.0333  0.1885 -0.3141
 1029YOPC   C3A14501  12.855   5.733   7.320  0.0246  0.0376  0.0017
 1029YOPC   C4A14502  12.947   5.673   7.752 -0.2180 -0.4272  0.0302
 1029YOPC   C1B14503  11.887   5.765   6.615 -0.1883 -0.2383 -0.0758
 1029YOPC   C2B14504  11.609   5.925   6.974 -0.0491 -0.0802  0.0446
 1029YOPC   D3B14505  11.688   5.954   7.437 -0.0185 -0.5540 -0.0093
 1029YOPC   C4B14506  11.487   6.015   7.835 -0.0375 -0.1255  0.1460
 1030YOPC   NC314507  11.948   8.676   5.173  0.1825  0.0087 -0.1057
 1030YOPC   PO414508  11.863   8.966   5.492  0.0676 -0.0522 -0.3255
 1030YOPC   GL114509  11.822   9.067   5.888 -0.0938  0.2618 -0.2803
 1030YOPC   GL214510  12.079   9.289   5.888  0.1543 -0.2907  0.0653
 1030YOPC   C1A14511  11.798   8.832   6.307 -0.1911  0.2518  0.0150
 1030YOPC   D2A14512  11.941   8.666   6.703 -0.2040  0.0486  0.0078
 1030YOPC   C3A14513  11.930   8.225   6.807  0.0216 -0.0129 -0.0712
 1030YOPC   C4A14514  11.939   7.867   7.073 -0.2642  0.0780  0.1245
 1030YOPC   C1B14515  12.227   9.354   6.264  0.2805  0.3352 -0.0225
 1030YOPC   C2B14516  12.166   9.636   6.556 -0.1389 -0.3361  0.1513
 1030YOPC   D3B14517  12.178   9.502   7.002  0.2988  0.2845  0.0184
 1030YOPC   C4B14518  12.256   9.454   7.435 -0.0620  0.2363  0.0206
 1031YOPC   NC314519  12.973  17.345   5.571 -0.1551 -0.0605  0.0041
 1031YOPC   PO414520  12.976  16.944   5.797 -0.3020 -0.4823  0.0722
 1031YOPC   GL114521  12.929  16.936   6.164  0.2785  0.0652 -0.2739
 1031YOPC   GL214522  12.791  17.055   6.405 -0.0071 -0.0320 -0.5327
 1031YOPC   C1A14523  13.117  16.656   6.502  0.0144 -0.2920 -0.1130
 1031YOPC   D2A14524  13.399  16.315   6.735  0.0616  0.1419 -0.1809
 1031YOPC   C3A14525  13.419  16.298   7.142  0.0385 -0.1061 -0.2773
 1031YOPC   C4A14526  13.264  16.384   7.423 -0.0674  0.2900  0.2394
 1031YOPC   C1B14527  12.536  17.013   6.784  0.0520 -0.1237  0.3020
 1031YOPC   C2B14528  12.553  17.099   7.285  0.1849 -0.0071 -0.0589
 1031YOPC   D3B14529  12.145  17.227   7.362  0.1394 -0.3017 -0.0777
 1031YOPC   C4B14530  11.898  17.289   7.086 -0.3419  0.3010 -0.3751
 1032YOPC   NC314531   4.371  13.292   5.466  0.2880 -0.0406 -0.3296
 1032YOPC   PO414532   4.447  12.960   5.763 -0.1090  0.0048 -0.1926
 1032YOPC   GL114533   4.387  12.875   6.223  0.0626  0.0691  0.1565
 1032YOPC   GL214534   3.989  12.799   6.292 -0.2430  0.0898 -0.1111
 1032YOPC   C1A14535   4.301  12.606   6.568  0.1397  0.3426 -0.0443
 1032YOPC   D2A14536   4.240  12.799   6.960  0.0634  0.2944  0.1829
 1032YOPC   C3A14537   3.799  12.922   7.061 -0.2561  0.0618 -0.1269
 1032YOPC   C4A14538   3.567  13.075   7.328  0.1706  0.1827 -0.0665
 1032YOPC   C1B14539   3.881  13.114   6.478 -0.1577 -0.0616  0.2383
 1032YOPC   C2B14540   3.647  13.315   6.817  0.0175  0.1895 -0.3228
 1032YOPC   D3B14541   3.672  13.597   7.161  0.2409 -0.0203  0.1793
 1032YOPC   C4B14542   3.703  13.729   7.548 -0.0686  0.3776  0.0477
 1033YOPC   NC314543  16.120   0.037   6.026  0.1418  0.2663  0.0965
 1033YOPC   PO414544  15.844   0.359   5.957  0.0122  0.1192  0.0142
 1033YOPC   GL114545  15.983   0.511   6.262  0.0014 -0.0805 -0.0335
 1033YOPC   GL214546  16.308   0.306   6.417 -0.0644  0.1524  0.1106
 1033YOPC   C1A14547  15.988   0.632   6.726 -0.1999  0.0002 -0.0764
 1033YOPC   D2A14548  16.018   0.803   7.099  0.4497  0.0882 -0.2234
 1033YOPC   C3A14549  15.733   1.073   7.337  0.0086 -0.0139 -0.0436
 1033YOPC   C4A14550  15.432   1.380   7.297  0.2530  0.0161 -0.3217
 1033YOPC   C1B14551  16.435   0.341   6.754  0.1280  0.0305  0.0243
 1033YOPC   C2B14552  16.373   0.453   7.144 -0.2339 -0.1233  0.1162
 1033YOPC   D3B14553  16.585   0.857   7.372 -0.2381  0.2010  0.2759
 1033YOPC   C4B14554  16.593   1.048   7.748  0.0157 -0.2276 -0.1310
 1034YOPC   NC314555  12.789   8.544   5.252 -0.3116 -0.0725 -0.0862
 1034YOPC   PO414556  12.873   8.239   5.466  0.1695  0.0495  0.2155
 1034YOPC   GL114557  12.842   8.259   5.868  0.0307 -0.0593  0.1039
 1034YOPC   GL214558  12.567   8.350   6.018 -0.2677  0.0846  0.1390
 1034YOPC   C1A14559  12.881   8.157   6.378 -0.1597 -0.0228 -0.0770
 1034YOPC   D2A14560  12.932   8.238   6.792 -0.4347  0.1948 -0.2273
 1034YOPC   C3A14561  13.166   7.992   7.105 -0.1748 -0.0272  0.0353
 1034YOPC   C4A14562  13.534   7.685   7.253 -0.0429 -0.2212  0.1047
 1034YOPC   C1B14563  12.457   7.974   6.143 -0.0345 -0.1453  0.1067
 1034YOPC   C2B14564  12.465   7.638   6.139 -0.6029  0.1140  0.1243
 1034YOPC   D3B14565  12.709   7.671   6.570 -0.0542 -0.0899 -0.5114
 1034YOPC   C4B14566  12.931   7.512   6.939  0.0681  0.0168  0.2177
 1035YOPC   NC314567  11.713   6.612   5.608 -0.0425  0.2834 -0.0003
 1035YOPC   PO414568  12.015   6.681   5.752  0.0864  0.2475  0.0584
 1035YOPC   GL114569  12.219   6.585   6.070 -0.1827 -0.0683  0.1856
 1035YOPC   GL214570  12.396   6.366   6.115 -0.3248 -0.4530 -0.0550
 1035YOPC   C1A14571  12.071   6.850   6.518 -0.0136  0.1037  0.1108
 1035YOPC   D2A14572  11.806   7.059   6.696  0.1215  0.1606 -0.2784
 1035YOPC   C3A14573  11.747   6.807   7.083  0.0381  0.1984  0.0305
 1035YOPC   C4A14574  12.043   6.504   7.250 -0.0133  0.0096  0.0016
 1035YOPC   C1B14575  12.145   6.199   6.451 -0.1124 -0.1952  0.2507
 1035YOPC   C2B14576  12.027   6.283   6.814  0.0190  0.0037  0.0121
 1035YOPC   D3B14577  12.153   5.964   7.049 -0.2042  0.2271 -0.0565
 1035YOPC   C4B14578  12.320   5.713   7.347 -0.4893 -0.1443 -0.0608
 1036YOPC   NC314579   4.912  16.655   6.203  0.0730  0.0005 -0.3805
 1036YOPC   PO414580   4.679  16.984   6.150 -0.1250  0.1274  0.0919
 1036YOPC   GL114581   4.853  17.126   6.503 -0.0177 -0.1064 -0.1039
 1036YOPC   GL214582   4.887  17.366   6.720  0.1551 -0.1471  0.3724
 1036YOPC   C1A14583   4.453  17.239   6.854  0.1697  0.1052 -0.1820
 1036YOPC   D2A14584   4.108  17.498   7.064 -0.0488  0.2494 -0.3797
 1036YOPC   C3A14585   3.689  17.333   7.111 -0.0275 -0.2371  0.3882
 1036YOPC   C4A14586   3.481  17.029   6.891 -0.1051  0.0995  0.2817
 1036YOPC   C1B14587   4.973  17.264   7.171  0.0667  0.0332 -0.2421
 1036YOPC   C2B14588   5.036  17.396   7.577  0.1117 -0.2703 -0.0135
 1036YOPC   D3B14589   4.798  17.538   7.789  0.0036  0.0308  0.0280
 1036YOPC   C4B14590   4.412  17.954   7.966 -0.0215  0.2194 -0.1830
 1037YOPC   NC314591  11.033   9.903   5.938 -0.1523  0.1192  0.1652
 1037YOPC   PO414592  10.638   9.828   5.906  0.1772 -0.0879 -0.1451
 1037YOPC   GL114593  10.660   9.707   6.311 -0.3902  0.0257  0.0224
 1037YOPC   GL214594  10.458   9.621   6.575 -0.0580 -0.1410  0.3819
 1037YOPC   C1A14595  10.857   9.754   6.764  0.0210 -0.0007 -0.2589
 1037YOPC   D2A14596  11.041   9.825   7.130  0.1526 -0.0387 -0.1813
 1037YOPC   C3A14597  11.438  10.051   6.990 -0.1022  0.1777 -0.0783
 1037YOPC   C4A14598  11.622  10.275   6.757 -0.2131 -0.1552 -0.1594
 1037YOPC   C1B14599  10.434   9.628   7.020  0.0437 -0.1003 -0.0882
 1037YOPC   C2B14600  10.650   9.630   7.321  0.0811  0.1758 -0.3058
 1037YOPC   D3B14601  10.508   9.497   7.775  0.1079 -0.0996 -0.1756
 1037YOPC   C4B14602  10.192   9.593   7.984  0.1514  0.0600  0.0863
 1038YOPC   NC314603   0.213   7.964   5.253  0.2673  0.2887 -0.1074
 1038YOPC   PO414604   0.635   7.907   5.514  0.0399 -0.0767 -0.1393
 1038YOPC   GL114605   0.960   7.964   5.840 -0.2396 -0.1044 -0.1150
 1038YOPC   GL214606   1.111   7.615   5.901 -0.2025 -0.1268 -0.2180
 1038YOPC   C1A14607   0.851   7.854   6.281  0.2142  0.0826 -0.0434
 1038YOPC   D2A14608   0.654   8.014   6.659 -0.0769 -0.1575  0.0733
 1038YOPC   C3A14609   0.847   8.139   6.983 -0.1058 -0.1147 -0.3939
 1038YOPC   C4A14610   0.840   8.348   7.339  0.2542  0.0908 -0.1564
 1038YOPC   C1B14611   1.049   7.369   6.270  0.2190  0.5486  0.3456
 1038YOPC   C2B14612   1.348   7.082   6.593 -0.0707 -0.0898  0.0840
 1038YOPC   D3B14613   1.213   7.092   6.985 -0.1545  0.2190 -0.2460
 1038YOPC   C4B14614   0.869   7.142   7.274 -0.4144 -0.2077  0.1114
 1039YOPC   NC314615  14.530   5.683   5.014 -0.0368  0.0560  0.0748
 1039YOPC   PO414616  14.736   5.738   5.431 -0.0838 -0.0291 -0.0493
 1039YOPC   GL114617  14.871   5.485   5.852 -0.1044 -0.1130 -0.1554
 1039YOPC   GL214618  14.901   5.182   5.940 -0.1232  0.1488  0.0536
 1039YOPC   C1A14619  14.603   5.545   6.270 -0.0064  0.0030 -0.1607
 1039YOPC   D2A14620  14.294   5.909   6.286  0.0864  0.1009  0.1022
 1039YOPC   C3A14621  14.261   6.230   6.530 -0.1351  0.1891  0.0323
 1039YOPC   C4A14622  14.317   6.360   6.951 -0.0991  0.0334 -0.1253
 1039YOPC   C1B14623  14.924   5.171   6.283 -0.0172  0.0918 -0.5149
 1039YOPC   C2B14624  15.041   5.236   6.701  0.0730  0.2128 -0.1370
 1039YOPC   D3B14625  15.452   5.391   6.842 -0.1547 -0.0032 -0.1527
 1039YOPC   C4B14626  15.571   5.676   7.268  0.0413  0.1761  0.0041
 1040YOPC   NC314627   4.204  17.328   5.307  0.3401  0.2810 -0.0526
 1040YOPC   PO414628   4.055  17.570   5.743  0.0607 -0.0093  0.1172
 1040YOPC   GL114629   4.003  17.401   6.228  0.1186 -0.2377  0.2617
 1040YOPC   GL214630   4.199  17.093   6.302  0.2180 -0.2531  0.3387
 1040YOPC   C1A14631   3.866  17.550   6.690 -0.2237 -0.0886  0.0297
 1040YOPC   D2A14632   3.844  17.889   7.021 -0.1525  0.0057 -0.1396
 1040YOPC   C3A14633   3.830  17.778   7.455  0.1719 -0.0127 -0.1654
 1040YOPC   C4A14634   3.541  17.528   7.647 -0.0755  0.1874 -0.0566
 1040YOPC   C1B14635   4.004  17.043   6.709 -0.1470  0.2327  0.0559
 1040YOPC   C2B14636   3.832  16.861   7.132 -0.1778  0.0963 -0.3058
 1040YOPC   D3B14637   3.365  17.019   7.406 -0.1313  0.1535 -0.0753
 1040YOPC   C4B14638   3.062  17.345   7.519 -0.0743 -0.0225 -0.1364
 1041YOPC   NC314639  15.975  15.971   5.612 -0.2381 -0.2464  0.0490
 1041YOPC   PO414640  15.640  16.023   5.704  0.1973  0.1316  0.1449
 1041YOPC   GL114641  15.307  16.139   5.982 -0.0767 -0.2331 -0.0512
 1041YOPC   GL214642  15.194  16.344   5.941  0.0496  0.3488  0.0944
 1041YOPC   C1A14643  15.132  16.143   6.410 -0.3294 -0.0547 -0.0232
 1041YOPC   D2A14644  14.947  16.280   6.670 -0.2872  0.2645  0.0658
 1041YOPC   C3A14645  14.656  15.916   6.842  0.0020 -0.2707 -0.0164
 1041YOPC   C4A14646  14.366  15.897   7.082  0.0599 -0.1049  0.1825
 1041YOPC   C1B14647  15.006  16.577   6.268  0.5787  0.1026 -0.1302
 1041YOPC   C2B14648  14.905  16.869   6.621  0.0861  0.1109  0.2072
 1041YOPC   D3B14649  14.934  16.699   7.069 -0.3563 -0.1436  0.2891
 1041YOPC   C4B14650  15.037  16.344   7.292 -0.1054 -0.3592  0.0310
 1042YOPC   NC314651  12.063  14.066   5.876 -0.1630  0.4207 -0.0943
 1042YOPC   PO414652  11.933  13.555   5.737  0.1708 -0.2313  0.1295
 1042YOPC   GL114653  11.831  13.397   6.166 -0.0028  0.2460  0.1666
 1042YOPC   GL214654  11.472  13.322   6.284 -0.2692 -0.5009 -0.2004
 1042YOPC   C1A14655  11.915  13.255   6.534 -0.2481  0.1086  0.0222
 1042YOPC   D2A14656  12.006  13.122   6.886 -0.0854 -0.0552 -0.0220
 1042YOPC   C3A14657  11.945  13.336   7.253  0.1680 -0.2042 -0.2946
 1042YOPC   C4A14658  11.890  13.257   7.647 -0.2290 -0.5303  0.1269
 1042YOPC   C1B14659  11.482  13.164   6.758  0.0500 -0.1837 -0.1656
 1042YOPC   C2B14660  11.542  12.831   7.131 -0.1248 -0.2184  0.2159
 1042YOPC   D3B14661  11.634  12.914   7.483 -0.1752  0.1025  0.2517
 1042YOPC   C4B14662  11.879  12.667   7.859 -0.0252 -0.5062 -0.0236
 1043YOPC   NC314663  11.502   8.659   5.679  0.3426  0.1265  0.0951
 1043YOPC   PO414664  11.781   8.435   5.564 -0.3906  0.0010  0.2463
 1043YOPC   GL114665  11.755   8.398   6.125  0.0967 -0.0867  0.0816
 1043YOPC   GL214666  11.534   8.262   6.343 -0.0983 -0.2518  0.1506
 1043YOPC   C1A14667  12.075   8.333   6.358  0.2744 -0.1467  0.1222
 1043YOPC   D2A14668  12.437   8.394   6.634  0.0355 -0.0707  0.0767
 1043YOPC   C3A14669  12.315   8.425   7.056 -0.2165  0.2999  0.0168
 1043YOPC   C4A14670  12.301   8.467   7.488  0.2408 -0.0332  0.2114
 1043YOPC   C1B14671  11.517   7.955   6.666 -0.0498 -0.0620  0.0736
 1043YOPC   C2B14672  11.434   7.900   7.145  0.1377 -0.0993  0.1837
 1043YOPC   D3B14673  11.544   7.617   7.509 -0.1164 -0.2867  0.0942
 1043YOPC   C4B14674  11.718   7.318   7.782  0.0233  0.2786  0.0532
 1044YOPC   NC314675   0.036  14.131   5.616 -0.0302 -0.1565 -0.1760
 1044YOPC   PO414676  -0.365  14.197   5.640  0.1248 -0.3236  0.1469
 1044YOPC   GL114677  -0.454  14.044   6.033  0.2287 -0.2258 -0.4991
 1044YOPC   GL214678  -0.631  14.354   6.187 -0.0593  0.0142 -0.1480
 1044YOPC   C1A14679  -0.109  13.867   6.262 -0.2485 -0.1223 -0.0232
 1044YOPC   D2A14680   0.185  13.694   6.520 -0.2504  0.0597 -0.2142
 1044YOPC   C3A14681   0.261  13.843   6.984  0.1230  0.2299  0.0489
 1044YOPC   C4A14682   0.354  13.709   7.405  0.0104 -0.2673 -0.0856
 1044YOPC   C1B14683  -0.514  14.059   6.551 -0.0599 -0.0990  0.0744
 1044YOPC   C2B14684  -0.613  13.897   6.909 -0.3454  0.0717 -0.0893
 1044YOPC   D3B14685  -0.750  14.093   7.193  0.3413  0.0809  0.0938
 1044YOPC   C4B14686  -0.622  14.491   7.156  0.1848 -0.1004 -0.2824
 1045YOPC   NC314687  11.703   4.348   5.565  0.3162 -0.0198  0.1598
 1045YOPC   PO414688  11.481   4.725   5.792 -0.2200 -0.0435  0.1492
 1045YOPC   GL114689  11.502   4.817   6.247 -0.0780 -0.0595  0.0658
 1045YOPC   GL214690  11.806   4.866   6.328 -0.0486  0.0367 -0.1396
 1045YOPC   C1A14691  11.386   4.971   6.587  0.1974 -0.2874  0.0743
 1045YOPC   D2A14692  11.395   5.048   6.945 -0.0092  0.2746 -0.0076
 1045YOPC   C3A14693  11.120   5.044   7.259  0.0144 -0.1316  0.1309
 1045YOPC   C4A14694  11.012   5.155   7.638 -0.1960  0.0928 -0.3632
 1045YOPC   C1B14695  11.773   4.634   6.637  0.2289 -0.0205 -0.0942
 1045YOPC   C2B14696  11.839   4.479   6.935 -0.1144  0.0913  0.1386
 1045YOPC   D3B14697  11.570   4.540   7.329  0.0636 -0.1601  0.2159
 1045YOPC   C4B14698  11.299   4.719   7.566  0.3187  0.0944 -0.2131
 1046YOPC   NC314699  12.617   6.478   5.497 -0.1772  0.2862 -0.2289
 1046YOPC   PO414700  12.690   6.804   5.887  0.4884 -0.2211  0.0772
 1046YOPC   GL114701  12.734   6.749   6.316  0.0992 -0.1750 -0.0245
 1046YOPC   GL214702  13.043   6.718   6.445  0.2055  0.1694 -0.0271
 1046YOPC   C1A14703  12.522   6.718   6.634 -0.2267  0.3491  0.3066
 1046YOPC   D2A14704  12.328   6.757   6.922 -0.3051 -0.1630  0.0024
 1046YOPC   C3A14705  12.362   6.880   7.348 -0.1214  0.0134 -0.0870
 1046YOPC   C4A14706  12.237   7.146   7.751  0.0030  0.1412  0.0672
 1046YOPC   C1B14707  12.981   6.668   6.971  0.3441 -0.0815  0.0678
 1046YOPC   C2B14708  13.029   6.746   7.402 -0.1851  0.0169  0.0273
 1046YOPC   D3B14709  12.708   6.720   7.658 -0.2124  0.1956 -0.0648
 1046YOPC   C4B14710  12.506   6.852   8.026  0.0121 -0.1422 -0.0778
 1047YOPC   NC314711   0.501   1.789   5.189 -0.1227  0.0984 -0.1099
 1047YOPC   PO414712   0.696   2.179   5.416 -0.3018 -0.1052 -0.2846
 1047YOPC   GL114713   0.730   2.365   5.825  0.0289 -0.1869  0.0926
 1047YOPC   GL214714   0.833   2.228   6.033  0.1678 -0.0975 -0.0633
 1047YOPC   C1A14715   1.025   2.718   5.973  0.2201 -0.1171 -0.6001
 1047YOPC   D2A14716   1.388   2.776   6.255 -0.0044 -0.1892 -0.1371
 1047YOPC   C3A14717   1.548   3.014   6.616  0.0194 -0.2321 -0.1345
 1047YOPC   C4A14718   1.721   3.255   6.954 -0.0892  0.3975  0.0305
 1047YOPC   C1B14719   0.959   2.399   6.459  0.2361 -0.0055 -0.3238
 1047YOPC   C2B14720   0.813   2.300   6.803  0.2367 -0.0347 -0.0817
 1047YOPC   D3B14721   0.739   2.362   7.168  0.1312 -0.0844 -0.2522
 1047YOPC   C4B14722   0.968   2.328   7.557  0.1346  0.0332 -0.0434
 1048YOPC   NC314723   6.993  15.288   5.392 -0.0312 -0.0622  0.3669
 1048YOPC   PO414724   7.226  14.856   5.480  0.2549  0.2005 -0.0470
 1048YOPC   GL114725   7.252  14.816   6.082  0.1218 -0.1411  0.1787
 1048YOPC   GL214726   7.032  14.537   6.306 -0.0961  0.0878 -0.1283
 1048YOPC   C1A14727   7.089  15.027   6.406  0.0375 -0.2153 -0.1942
 1048YOPC   D2A14728   7.078  15.150   6.797  0.0561  0.0787  0.0769
 1048YOPC   C3A14729   6.837  15.183   7.180  0.3239 -0.0692 -0.1244
 1048YOPC   C4A14730   6.748  15.157   7.604 -0.0442  0.0531  0.1030
 1048YOPC   C1B14731   7.076  14.683   6.800 -0.0809  0.1419  0.0552
 1048YOPC   C2B14732   7.157  14.776   7.123  0.1545  0.2405 -0.1254
 1048YOPC   D3B14733   6.855  14.677   7.389  0.1510 -0.2319  0.1456
 1048YOPC   C4B14734   6.486  14.700   7.674 -0.2199 -0.1143 -0.0893
 1049YOPC   NC314735   3.884  13.668   5.595 -0.3308 -0.0773 -0.0299
 1049YOPC   PO414736   3.872  13.236   5.494 -0.1273 -0.1645  0.0235
 1049YOPC   GL114737   3.506  13.466   5.849 -0.1787 -0.0732  0.0898
 1049YOPC   GL214738   3.579  13.294   6.114  0.3033  0.1425 -0.0019
 1049YOPC   C1A14739   3.178  13.668   5.955  0.0383  0.1535  0.0085
 1049YOPC   D2A14740   3.282  14.042   6.263  0.1498  0.0677 -0.1887
 1049YOPC   C3A14741   3.125  14.427   6.142  0.3204  0.1495  0.0981
 1049YOPC   C4A14742   2.689  14.538   6.013 -0.1844  0.1472 -0.2043
 1049YOPC   C1B14743   3.278  13.437   6.457  0.1451  0.0162 -0.0016
 1049YOPC   C2B14744   3.188  13.454   6.903 -0.3730  0.1013 -0.1775
 1049YOPC   D3B14745   2.858  13.593   6.998  0.1157  0.0497 -0.1210
 1049YOPC   C4B14746   2.597  13.729   7.323 -0.1557  0.0677  0.0547
 1050YOPC   NC314747   1.835  16.453   5.439 -0.1215  0.3407  0.0519
 1050YOPC   PO414748   1.940  16.009   5.405  0.3139  0.0429  0.2718
 1050YOPC   GL114749   2.113  15.885   5.768  0.1016  0.0710 -0.0367
 1050YOPC   GL214750   2.186  15.565   5.893  0.0006  0.2427  0.1328
 1050YOPC   C1A14751   2.099  16.039   6.234 -0.5261  0.2275 -0.0095
 1050YOPC   D2A14752   1.991  16.115   6.708 -0.1521  0.3745 -0.0294
 1050YOPC   C3A14753   1.940  15.838   7.007 -0.1612 -0.2090 -0.2650
 1050YOPC   C4A14754   1.967  15.855   7.501 -0.2073  0.0346 -0.0229
 1050YOPC   C1B14755   2.269  15.560   6.309 -0.3437  0.0630  0.1638
 1050YOPC   C2B14756   2.322  15.592   6.758 -0.2394 -0.2994 -0.3110
 1050YOPC   D3B14757   2.319  15.553   7.207 -0.0353 -0.0631  0.0836
 1050YOPC   C4B14758   2.374  15.514   7.610  0.1406 -0.3076  0.3040
 1051YOPC   NC314759   6.632   2.451   5.758 -0.1653 -0.1546  0.0046
 1051YOPC   PO414760   6.237   2.216   5.908 -0.0445  0.0239  0.0932
 1051YOPC   GL114761   6.393   2.430   6.170  0.0425 -0.1491 -0.1783
 1051YOPC   GL214762   6.269   2.472   6.366 -0.3155  0.0798 -0.1259
 1051YOPC   C1A14763   6.764   2.375   6.423  0.0499 -0.3663  0.0999
 1051YOPC   D2A14764   7.022   2.261   6.815  0.1327  0.1434  0.2425
 1051YOPC   C3A14765   7.110   2.458   7.134 -0.0018 -0.1207 -0.1629
 1051YOPC   C4A14766   7.163   2.717   7.586  0.2593  0.0274  0.0861
 1051YOPC   C1B14767   6.252   2.461   6.757 -0.1172 -0.1842 -0.2954
 1051YOPC   C2B14768   6.024   2.337   7.191  0.1572 -0.1967 -0.0690
 1051YOPC   D3B14769   5.650   2.220   7.099  0.0071 -0.0282 -0.0871
 1051YOPC   C4B14770   5.360   1.966   7.292 -0.0966  0.0410 -0.3058
 1052YOPC   NC314771  14.268   7.828   5.455  0.1124 -0.2129 -0.1110
 1052YOPC   PO414772  14.515   7.722   5.691  0.0964 -0.2802  0.0982
 1052YOPC   GL114773  14.199   7.814   5.984 -0.4268 -0.0353 -0.3701
 1052YOPC   GL214774  14.446   8.062   6.060 -0.1625  0.0046 -0.0653
 1052YOPC   C1A14775  13.828   8.134   5.957  0.0497  0.2082 -0.2539
 1052YOPC   D2A14776  13.467   8.033   6.193  0.0335 -0.2617  0.1650
 1052YOPC   C3A14777  13.400   8.285   6.549 -0.0217  0.1110  0.0087
 1052YOPC   C4A14778  13.653   8.218   6.927 -0.0822 -0.0944  0.0049
 1052YOPC   C1B14779  14.460   7.763   6.433  0.1445 -0.3646  0.0944
 1052YOPC   C2B14780  14.670   7.471   6.632 -0.1807  0.0623 -0.2727
 1052YOPC   D3B14781  14.654   7.562   6.972  0.0355 -0.1150  0.0246
 1052YOPC   C4B14782  14.792   7.280   7.368  0.2646  0.0697 -0.1625
 1053YOPC   NC314783  17.106  14.461   5.655  0.4347 -0.2609  0.1799
 1053YOPC   PO414784  16.853  14.050   5.697 -0.0650  0.0388 -0.1459
 1053YOPC   GL114785  16.977  14.122   6.154  0.0406 -0.1664  0.4164
 1053YOPC   GL214786  17.047  14.471   6.128 -0.2088 -0.0142  0.0952
 1053YOPC   C1A14787  16.842  14.271   6.556  0.0194  0.0478  0.1279
 1053YOPC   D2A14788  16.772  14.312   7.086 -0.0746  0.0860  0.3670
 1053YOPC   C3A14789  16.914  14.756   7.252  0.0828  0.1886  0.5349
 1053YOPC   C4A14790  17.100  15.183   6.967 -0.1040  0.1095  0.0256
 1053YOPC   C1B14791  17.313  14.438   6.404  0.1555  0.2698  0.0140
 1053YOPC   C2B14792  17.618  14.367   6.684 -0.3604  0.0436 -0.1412
 1053YOPC   D3B14793  18.038  14.592   6.679 -0.1239  0.1149  0.2446
 1053YOPC   C4B14794  18.225  14.804   7.010 -0.0077  0.0904  0.2471
 1054YOPC   NC314795   2.198   2.314   5.570  0.1941 -0.1711 -0.0798
 1054YOPC   PO414796   1.820   2.225   5.836  0.1141  0.1913 -0.2902
 1054YOPC   GL114797   1.605   2.183   6.172  0.0015  0.1102 -0.1297
 1054YOPC   GL214798   1.394   2.097   6.097  0.3949  0.0986  0.3473
 1054YOPC   C1A14799   1.519   2.413   6.572 -0.1968  0.0479  0.1762
 1054YOPC   D2A14800   1.343   2.570   6.779  0.2410  0.1590 -0.0885
 1054YOPC   C3A14801   1.546   2.757   7.105 -0.2270 -0.0369 -0.1742
 1054YOPC   C4A14802   1.485   2.934   7.558 -0.1113  0.0184 -0.0433
 1054YOPC   C1B14803   1.198   1.912   6.422  0.2588 -0.0496  0.3004
 1054YOPC   C2B14804   1.091   1.921   6.812 -0.1044  0.1126  0.0510
 1054YOPC   D3B14805   1.386   1.677   7.242  0.1931  0.3275  0.1628
 1054YOPC   C4B14806   1.338   1.915   7.608  0.0204 -0.1090 -0.1826
 1055YOPC   NC314807  18.264  17.414   5.696 -0.1740  0.2950  0.0544
 1055YOPC   PO414808  18.241  17.887   5.764  0.0797  0.2967 -0.1042
 1055YOPC   GL114809  18.443  17.705   6.069 -0.0972 -0.1701 -0.0095
 1055YOPC   GL214810  18.699  17.608   6.083  0.2794 -0.0617 -0.0738
 1055YOPC   C1A14811  18.379  17.602   6.521  0.1148 -0.0861  0.0871
 1055YOPC   D2A14812  18.462  17.605   6.978  0.3259  0.3686  0.1156
 1055YOPC   C3A14813  18.378  17.469   7.487  0.1720  0.2526 -0.0929
 1055YOPC   C4A14814  18.360  17.309   7.927  0.2295 -0.3433  0.3276
 1055YOPC   C1B14815  18.901  17.398   6.432  0.1530 -0.1406  0.3538
 1055YOPC   C2B14816  18.899  17.375   6.845 -0.0898  0.3452  0.0307
 1055YOPC   D3B14817  18.955  17.030   7.151 -0.2154 -0.2472 -0.1309
 1055YOPC   C4B14818  18.717  16.597   7.243 -0.2241  0.2196  0.4326
 1056YOPC   NC314819  10.806  10.789   5.658  0.1014  0.2387 -0.2844
 1056YOPC   PO414820  10.445  10.785   5.948  0.1008 -0.0168  0.0499
 1056YOPC   GL114821  10.628  10.647   6.295  0.0532  0.0841  0.2660
 1056YOPC   GL214822  10.387  10.744   6.595  0.0842 -0.0172 -0.0000
 1056YOPC   C1A14823  10.852  10.587   6.539  0.1142  0.1093 -0.0342
 1056YOPC   D2A14824  11.296  10.679   6.783 -0.1308 -0.2271  0.0344
 1056YOPC   C3A14825  11.375  10.484   7.189 -0.1157  0.1665 -0.2340
 1056YOPC   C4A14826  11.646  10.412   7.563  0.1196 -0.0838  0.0623
 1056YOPC   C1B14827  10.452  10.795   7.016 -0.4028 -0.2354  0.0670
 1056YOPC   C2B14828  10.485  10.842   7.464 -0.0399 -0.1132 -0.0183
 1056YOPC   D3B14829  10.774  10.469   7.598  0.3302  0.1629  0.0360
 1056YOPC   C4B14830  11.034  10.207   7.503 -0.0836  0.0471  0.2614
 1057YOPC   NC314831   8.445   4.730   5.615 -0.0121  0.0943  0.1939
 1057YOPC   PO414832   8.941   4.763   5.503 -0.0961 -0.1914 -0.3034
 1057YOPC   GL114833   8.812   4.724   5.990  0.0507 -0.0005  0.1054
 1057YOPC   GL214834   8.962   4.978   6.010 -0.3944  0.1345 -0.2165
 1057YOPC   C1A14835   8.839   4.456   6.254  0.1672 -0.2896 -0.4049
 1057YOPC   D2A14836   9.272   4.232   6.244 -0.1130  0.1793 -0.1901
 1057YOPC   C3A14837   9.378   4.136   6.608  0.1971 -0.0657  0.0850
 1057YOPC   C4A14838   9.408   4.327   6.986 -0.1758  0.1100 -0.0303
 1057YOPC   C1B14839   8.871   5.113   6.342  0.4025 -0.1254 -0.4419
 1057YOPC   C2B14840   8.820   5.248   6.835 -0.0023 -0.1752 -0.0184
 1057YOPC   D3B14841   9.143   5.316   7.049 -0.2056 -0.1653  0.1673
 1057YOPC   C4B14842   9.403   5.419   7.189  0.1155  0.3553 -0.1140
 1058YOPC   NC314843  15.369  15.202   5.121 -0.2007 -0.0593  0.0713
 1058YOPC   PO414844  15.275  15.043   5.486 -0.2836  0.0643  0.1818
 1058YOPC   GL114845  15.301  15.311   5.835 -0.1130  0.0359  0.1377
 1058YOPC   GL214846  15.490  15.627   5.924  0.2330 -0.0898  0.1398
 1058YOPC   C1A14847  15.220  15.370   6.263 -0.1694 -0.2324  0.2354
 1058YOPC   D2A14848  15.198  15.641   6.650  0.2113 -0.1163 -0.2739
 1058YOPC   C3A14849  15.153  15.881   7.001  0.4779  0.0821  0.0463
 1058YOPC   C4A14850  15.209  15.877   7.379  0.2412  0.0750  0.3097
 1058YOPC   C1B14851  15.528  15.752   6.331  0.2103 -0.3155  0.0578
 1058YOPC   C2B14852  15.588  16.070   6.739  0.4513  0.2428  0.1907
 1058YOPC   D3B14853  15.641  15.957   7.205 -0.0676  0.1019  0.2819
 1058YOPC   C4B14854  15.706  15.547   7.464  0.0543  0.0904 -0.0410
 1059YOPC   NC314855  16.182  14.781   5.502  0.2006  0.0550 -0.0520
 1059YOPC   PO414856  16.357  14.977   5.869  0.0503  0.2985  0.0874
 1059YOPC   GL114857  16.126  14.903   6.240  0.0262 -0.1615  0.0442
 1059YOPC   GL214858  15.926  14.676   6.119 -0.1081  0.1719  0.0617
 1059YOPC   C1A14859  16.025  14.871   6.667 -0.0405  0.1231  0.2796
 1059YOPC   D2A14860  15.891  14.600   6.912 -0.3765 -0.1419 -0.1535
 1059YOPC   C3A14861  15.952  14.655   7.348  0.1265  0.1438 -0.0058
 1059YOPC   C4A14862  16.099  14.654   7.713  0.0861 -0.1111  0.2265
 1059YOPC   C1B14863  15.593  14.442   6.448 -0.3111  0.1345  0.0062
 1059YOPC   C2B14864  15.247  14.402   6.793 -0.0935 -0.0651 -0.1121
 1059YOPC   D3B14865  15.197  14.212   7.214 -0.2196 -0.1652  0.4697
 1059YOPC   C4B14866  15.332  14.329   7.654  0.2451  0.0126 -0.1246
 1060YOPC   NC314867   1.451   0.544   5.383  0.0061 -0.0300  0.0780
 1060YOPC   PO414868   1.529   0.673   5.817 -0.1913  0.1812 -0.2632
 1060YOPC   GL114869   1.764   0.781   6.257 -0.0444 -0.0011  0.1350
 1060YOPC   GL214870   2.021   0.959   6.413 -0.2835 -0.0853  0.0407
 1060YOPC   C1A14871   1.568   0.937   6.610  0.0980 -0.2508 -0.0296
 1060YOPC   D2A14872   1.415   0.961   6.995 -0.1501 -0.2511 -0.0164
 1060YOPC   C3A14873   1.190   1.195   7.253  0.1064  0.0645  0.2904
 1060YOPC   C4A14874   1.211   1.055   7.698  0.0771  0.1345  0.2443
 1060YOPC   C1B14875   1.852   1.360   6.452 -0.0327 -0.0158  0.1782
 1060YOPC   C2B14876   1.709   1.857   6.516 -0.2892  0.3071 -0.1502
 1060YOPC   D3B14877   1.575   1.921   6.904 -0.4188 -0.2514  0.2811
 1060YOPC   C4B14878   1.319   2.228   7.144 -0.0632  0.0644  0.1376
 1061YOPC   NC314879  10.203  12.108   6.101  0.1200 -0.0254  0.1421
 1061YOPC   PO414880  10.515  12.086   6.028 -0.0917 -0.0637  0.1865
 1061YOPC   GL114881  10.565  12.045   6.460  0.0987  0.0132 -0.0316
 1061YOPC   GL214882  10.233  11.996   6.613  0.1842  0.0427  0.0206
 1061YOPC   C1A14883  10.490  11.696   6.924 -0.0148  0.0811  0.2419
 1061YOPC   D2A14884  10.254  11.579   7.247 -0.3919 -0.0183  0.3117
 1061YOPC   C3A14885  10.275  11.308   7.576  0.0310 -0.0426  0.0674
 1061YOPC   C4A14886  10.196  11.054   7.864  0.3644  0.0993  0.0825
 1061YOPC   C1B14887   9.969  11.845   6.917 -0.0652  0.0246  0.2241
 1061YOPC   C2B14888   9.860  11.857   7.373 -0.0703  0.1768 -0.0660
 1061YOPC   D3B14889  10.073  11.714   7.681 -0.1358  0.1846 -0.0523
 1061YOPC   C4B14890  10.290  11.539   8.015  0.1003 -0.2465  0.0923
 1062YOPC   NC314891   0.686   1.050   5.735 -0.3096 -0.0366 -0.0472
 1062YOPC   PO414892   1.085   0.795   5.620  0.3148  0.2892  0.0956
 1062YOPC   GL114893   0.987   0.806   6.042  0.0492  0.0864  0.0418
 1062YOPC   GL214894   1.217   0.544   6.145  0.0311  0.5104 -0.3655
 1062YOPC   C1A14895   1.023   0.945   6.476 -0.0229  0.0441 -0.1482
 1062YOPC   D2A14896   0.920   1.050   6.873 -0.1406 -0.0215  0.0267
 1062YOPC   C3A14897   0.814   1.510   7.087 -0.2770  0.2295  0.1909
 1062YOPC   C4A14898   0.885   1.909   7.342  0.0845  0.3865  0.1582
 1062YOPC   C1B14899   1.333   0.511   6.537  0.0049  0.0924 -0.0127
 1062YOPC   C2B14900   1.410   0.408   7.017  0.2133 -0.1714  0.2431
 1062YOPC   D3B14901   1.369   0.188   7.407  0.2731 -0.0582  0.0055
 1062YOPC   C4B14902   1.454   0.197   7.834  0.2596  0.1313  0.0099
 1063YOPC   NC314903  16.640   4.324   5.946 -0.3310 -0.0242  0.2161
 1063YOPC   PO414904  16.347   4.033   5.942 -0.0912 -0.0532 -0.1207
 1063YOPC   GL114905  16.386   3.575   6.067 -0.1703  0.2645 -0.1097
 1063YOPC   GL214906  16.051   3.535   6.225  0.2519 -0.0632  0.2331
 1063YOPC   C1A14907  16.765   3.379   6.350 -0.1420  0.2339  0.0342
 1063YOPC   D2A14908  16.733   3.292   6.722 -0.0563 -0.0922 -0.1333
 1063YOPC   C3A14909  16.538   3.559   7.089  0.2712 -0.0578  0.2433
 1063YOPC   C4A14910  16.528   3.454   7.569  0.1627  0.0663  0.2041
 1063YOPC   C1B14911  16.316   3.440   6.544  0.2174  0.1236 -0.0110
 1063YOPC   C2B14912  16.276   3.013   6.813  0.0380 -0.1612 -0.0231
 1063YOPC   D3B14913  16.197   2.998   7.207  0.1638  0.0137 -0.0534
 1063YOPC   C4B14914  16.027   2.946   7.580 -0.1169 -0.2002 -0.0268
 1064YOPC   NC314915   5.509  17.508   6.065  0.1744 -0.2215 -0.4252
 1064YOPC   PO414916   5.674  17.952   5.878  0.1079 -0.0626  0.0448
 1064YOPC   GL114917   5.524  18.107   6.294 -0.1929 -0.0084 -0.1978
 1064YOPC   GL214918   5.360  18.348   6.264  0.0627 -0.0124  0.3001
 1064YOPC   C1A14919   5.697  18.224   6.739 -0.0256 -0.0369  0.1077
 1064YOPC   D2A14920   5.991  18.378   7.084 -0.1124  0.1964 -0.1438
 1064YOPC   C3A14921   5.768  18.216   7.470  0.2119  0.0137  0.2213
 1064YOPC   C4A14922   5.689  18.462   7.808 -0.0696 -0.2324  0.0252
 1064YOPC   C1B14923   5.373  18.569   6.698 -0.0060  0.1177 -0.2721
 1064YOPC   C2B14924   5.064  18.451   7.024 -0.0596 -0.2031  0.2170
 1064YOPC   D3B14925   4.794  18.746   7.029  0.2036  0.1734  0.1171
 1064YOPC   C4B14926   4.427  18.754   7.131 -0.0403 -0.1515 -0.2404
 1065YOPC   NC314927   9.286  15.281   6.036  0.1316 -0.2097 -0.1398
 1065YOPC   PO414928   9.071  15.704   6.088  0.0787  0.1104 -0.0965
 1065YOPC   GL114929   9.007  15.433   6.487 -0.0874 -0.0459  0.1203
 1065YOPC   GL214930   9.077  15.189   6.549 -0.0394 -0.1570  0.1892
 1065YOPC   C1A14931   8.983  15.489   6.953  0.1139  0.0580  0.1487
 1065YOPC   D2A14932   8.815  15.776   7.288  0.2779  0.1558 -0.1019
 1065YOPC   C3A14933   8.918  15.790   7.765 -0.0629  0.0147  0.3150
 1065YOPC   C4A14934   8.964  15.870   8.276 -0.0575  0.0119  0.3225
 1065YOPC   C1B14935   9.212  15.084   6.948  0.0552  0.1649  0.0763
 1065YOPC   C2B14936   9.138  14.784   7.182 -0.2538 -0.2281 -0.0268
 1065YOPC   D3B14937   9.435  14.669   7.574 -0.0579  0.0718 -0.0747
 1065YOPC   C4B14938   9.313  14.565   7.964 -0.0797  0.0804 -0.1545
 1066YOPC   NC314939   8.414  10.803   5.505  0.0254 -0.1460  0.0770
 1066YOPC   PO414940   8.203  11.015   5.876  0.0940  0.1661 -0.0609
 1066YOPC   GL114941   8.283  10.896   6.319  0.1275 -0.2424 -0.2208
 1066YOPC   GL214942   8.113  10.737   6.557 -0.0786  0.2428 -0.1717
 1066YOPC   C1A14943   8.537  10.922   6.667 -0.0529 -0.2131 -0.1255
 1066YOPC   D2A14944   8.524  10.733   7.025 -0.1260  0.0745  0.0562
 1066YOPC   C3A14945   8.117  10.672   7.224  0.0161 -0.0193 -0.0117
 1066YOPC   C4A14946   7.932  10.202   7.142  0.0354 -0.2813  0.1497
 1066YOPC   C1B14947   7.826  10.671   6.824 -0.2202 -0.2880 -0.1439
 1066YOPC   C2B14948   7.657  10.742   7.181 -0.0727 -0.1040 -0.0631
 1066YOPC   D3B14949   7.647  10.412   7.504 -0.0452  0.1674  0.1903
 1066YOPC   C4B14950   7.843  10.243   7.832 -0.0310  0.4248 -0.0315
 1067YOPC   NC314951  15.967   6.773   5.341 -0.0459 -0.3448 -0.0740
 1067YOPC   PO414952  15.931   6.962   5.669  0.1392 -0.3735 -0.1180
 1067YOPC   GL114953  15.807   6.708   5.889 -0.0185 -0.0588 -0.0782
 1067YOPC   GL214954  15.428   6.744   5.950  0.0387  0.1863  0.0976
 1067YOPC   C1A14955  15.697   6.549   6.325 -0.0484 -0.0998 -0.0404
 1067YOPC   D2A14956  15.756   6.612   6.761 -0.2090  0.0012 -0.0137
 1067YOPC   C3A14957  16.047   6.435   6.973  0.3011  0.4532  0.1593
 1067YOPC   C4A14958  16.305   6.375   7.249  0.0634 -0.1113 -0.3893
 1067YOPC   C1B14959  15.182   6.585   6.384  0.0902  0.3398 -0.1693
 1067YOPC   C2B14960  15.211   6.694   6.893  0.0589  0.0712  0.0119
 1067YOPC   D3B14961  14.945   6.724   7.215 -0.1175 -0.0684  0.3077
 1067YOPC   C4B14962  14.563   6.644   7.274  0.0067  0.1538 -0.1386
 1068YOPC   NC314963   0.821  16.367   5.294  0.4483  0.2392  0.0981
 1068YOPC   PO414964   0.528  16.750   5.183 -0.1937  0.1090 -0.1849
 1068YOPC   GL114965   0.426  16.518   5.537 -0.0237 -0.1212 -0.2545
 1068YOPC   GL214966   0.123  16.376   5.573 -0.0815  0.1090 -0.0193
 1068YOPC   C1A14967   0.491  16.533   5.943 -0.0771  0.1061  0.1091
 1068YOPC   D2A14968   0.086  16.468   6.182 -0.0316 -0.0097  0.1385
 1068YOPC   C3A14969  -0.051  16.112   6.344 -0.0954 -0.1174 -0.2482
 1068YOPC   C4A14970  -0.170  15.849   6.615 -0.3051  0.0214  0.2868
 1068YOPC   C1B14971   0.165  16.078   5.855  0.0703 -0.3709  0.1278
 1068YOPC   C2B14972   0.221  15.713   6.152  0.0032 -0.1525  0.1066
 1068YOPC   D3B14973   0.369  15.753   6.522 -0.1922  0.0094  0.3903
 1068YOPC   C4B14974   0.225  15.880   6.890 -0.2873 -0.1417  0.0428
 1069YOPC   NC314975  10.776  17.204   5.449  0.0705  0.1392  0.2122
 1069YOPC   PO414976  10.732  16.926   5.724  0.1976  0.3446 -0.1199
 1069YOPC   GL114977  10.452  17.068   6.086 -0.2388 -0.0770  0.0768
 1069YOPC   GL214978  10.193  17.241   6.086 -0.1290  0.1203  0.3925
 1069YOPC   C1A14979  10.515  16.974   6.438  0.3830  0.0187  0.0958
 1069YOPC   D2A14980  10.583  16.654   6.663 -0.0937  0.0726 -0.0289
 1069YOPC   C3A14981  10.556  16.755   7.114  0.0468 -0.0591  0.3117
 1069YOPC   C4A14982  10.305  17.036   7.367 -0.1503 -0.1592 -0.1448
 1069YOPC   C1B14983  10.008  17.284   6.486  0.0381  0.0549 -0.1014
 1069YOPC   C2B14984  10.206  17.093   6.815  0.0995 -0.0240  0.1187
 1069YOPC   D3B14985  10.526  17.192   6.905 -0.0675 -0.2634  0.2982
 1069YOPC   C4B14986  10.742  17.375   7.168 -0.1622 -0.0453 -0.0171
 1070YOPC   NC314987   9.651   9.736   5.884 -0.1865 -0.0884 -0.0604
 1070YOPC   PO414988   9.993   9.595   5.777 -0.1296 -0.0191 -0.0367
 1070YOPC   GL114989  10.039   9.600   6.218 -0.2109 -0.1070  0.2204
 1070YOPC   GL214990   9.870   9.803   6.356 -0.0016 -0.1046  0.0903
 1070YOPC   C1A14991   9.996   9.430   6.684  0.2563 -0.2987 -0.0964
 1070YOPC   D2A14992   9.986   9.333   7.097 -0.2115 -0.0526  0.0440
 1070YOPC   C3A14993  10.322   9.200   7.335  0.0775 -0.1103  0.2194
 1070YOPC   C4A14994  10.562   8.889   7.432  0.1592  0.2487 -0.0315
 1070YOPC   C1B14995  10.046   9.945   6.745 -0.1287 -0.0397 -0.2097
 1070YOPC   C2B14996  10.093   9.983   7.220  0.1087  0.2160  0.0351
 1070YOPC   D3B14997  10.135   9.748   7.451  0.1468 -0.0996 -0.0546
 1070YOPC   C4B14998   9.923   9.378   7.593 -0.3220 -0.2292 -0.3739
 1071YOPC   NC314999  15.224  10.833   5.793 -0.0730  0.0327  0.0931
 1071YOPC   PO415000  15.111  10.342   5.714  0.0548 -0.0854  0.2513
 1071YOPC   GL115001  14.979  10.098   6.063  0.1301 -0.1404  0.0365
 1071YOPC   GL215002  15.163   9.865   6.075  0.0907  0.1671  0.2477
 1071YOPC   C1A15003  15.100  10.118   6.553 -0.0326  0.0601  0.3439
 1071YOPC   D2A15004  15.011  10.163   6.917 -0.0104 -0.1601  0.1444
 1071YOPC   C3A15005  15.133  10.474   7.004 -0.1367 -0.0489  0.2804
 1071YOPC   C4A15006  15.521  10.629   7.210 -0.0076 -0.1302  0.0546
 1071YOPC   C1B15007  15.441   9.658   6.374 -0.0451 -0.2508 -0.0838
 1071YOPC   C2B15008  15.391   9.725   6.841  0.0954 -0.2868  0.2980
 1071YOPC   D3B15009  15.495   9.379   7.142 -0.1894  0.4500 -0.3439
 1071YOPC   C4B15010  15.322   9.145   7.252  0.0293 -0.1017  0.1753
 1072YOPC   NC315011   1.981  14.652   5.095 -0.0813  0.0489 -0.1570
 1072YOPC   PO415012   2.291  14.860   5.464  0.2441 -0.1771  0.0184
 1072YOPC   GL115013   2.394  15.152   5.747 -0.3825 -0.0131  0.0892
 1072YOPC   GL215014   2.634  15.389   5.695  0.0747 -0.1278  0.3531
 1072YOPC   C1A15015   2.558  15.057   6.177  0.0070 -0.1288  0.4698
 1072YOPC   D2A15016   2.576  15.199   6.586  0.2359  0.2759 -0.0889
 1072YOPC   C3A15017   2.835  15.319   7.044 -0.2161  0.2800  0.0226
 1072YOPC   C4A15018   2.813  15.360   7.519 -0.0520 -0.2507  0.0456
 1072YOPC   C1B15019   2.756  15.509   6.121 -0.2776  0.0524  0.2478
 1072YOPC   C2B15020   2.875  15.610   6.566  0.0795 -0.1886 -0.3699
 1072YOPC   D3B15021   3.014  15.995   6.585 -0.1716 -0.0242 -0.0803
 1072YOPC   C4B15022   3.066  16.380   6.493  0.0641 -0.1751 -0.0525
 1073YOPC   NC315023  14.796  13.238   5.519 -0.1720  0.1919 -0.2130
 1073YOPC   PO415024  14.907  13.702   5.490 -0.1119  0.2378 -0.0257
 1073YOPC   GL115025  15.088  13.376   5.904 -0.0417 -0.1626 -0.0352
 1073YOPC   GL215026  15.306  13.454   6.089  0.1500 -0.1559 -0.2851
 1073YOPC   C1A15027  15.020  13.101   6.287 -0.0384 -0.0028 -0.1770
 1073YOPC   D2A15028  15.071  12.909   6.733  0.2565  0.1341  0.2729
 1073YOPC   C3A15029  14.686  12.848   7.018 -0.2416 -0.2180 -0.2976
 1073YOPC   C4A15030  14.351  12.739   7.267  0.2158 -0.2047  0.1129
 1073YOPC   C1B15031  15.185  13.451   6.590 -0.2342  0.0511  0.0416
 1073YOPC   C2B15032  15.000  13.310   7.044 -0.1274  0.2560  0.1849
 1073YOPC   D3B15033  15.120  13.209   7.483  0.0219  0.1956  0.2878
 1073YOPC   C4B15034  15.460  13.081   7.759 -0.0561 -0.1545  0.0087
 1074YOPC   NC315035  16.443  12.426   5.859  0.2447  0.3190  0.2414
 1074YOPC   PO415036  16.788  12.156   5.849  0.1468  0.1042  0.0851
 1074YOPC   GL115037  17.095  11.944   6.178  0.0134 -0.0686  0.3003
 1074YOPC   GL215038  17.411  11.674   6.136  0.0372 -0.0320 -0.1938
 1074YOPC   C1A15039  17.240  11.940   6.661 -0.1193 -0.2208 -0.3157
 1074YOPC   D2A15040  17.419  12.015   7.006  0.2753  0.1967 -0.0992
 1074YOPC   C3A15041  17.253  12.129   7.338 -0.1062  0.1760 -0.2477
 1074YOPC   C4A15042  17.410  12.025   7.700  0.1339  0.1143  0.1917
 1074YOPC   C1B15043  17.559  11.636   6.527 -0.0656  0.0823  0.0572
 1074YOPC   C2B15044  17.920  11.616   6.894 -0.0250  0.2594 -0.0527
 1074YOPC   D3B15045  18.050  11.291   7.200 -0.0347  0.0263  0.0617
 1074YOPC   C4B15046  18.396  11.133   7.342  0.0077 -0.2946  0.1658
 1075YOPC   NC315047  11.347   7.355   5.353 -0.1788 -0.1183  0.1636
 1075YOPC   PO415048  11.357   6.972   5.597  0.2211 -0.0159 -0.0034
 1075YOPC   GL115049  11.308   6.784   5.969 -0.0069  0.0643  0.0055
 1075YOPC   GL215050  11.325   6.395   5.884  0.3700 -0.4454 -0.1408
 1075YOPC   C1A15051  11.350   7.134   6.313 -0.2990 -0.0029 -0.1041
 1075YOPC   D2A15052  11.224   7.580   6.321  0.2290  0.1629 -0.0322
 1075YOPC   C3A15053  11.134   7.545   6.734  0.3059 -0.0321 -0.1584
 1075YOPC   C4A15054  11.153   7.511   7.161  0.1491 -0.0715  0.2605
 1075YOPC   C1B15055  11.147   6.163   6.220 -0.0379  0.0765 -0.0566
 1075YOPC   C2B15056  11.282   5.937   6.545 -0.1432 -0.0202 -0.0775
 1075YOPC   D3B15057  11.105   5.891   6.965 -0.0928 -0.1854 -0.1247
 1075YOPC   C4B15058  11.219   6.054   7.402 -0.0604 -0.0505  0.1302
 1076YOPC   NC315059   0.762  11.261   5.071  0.0589  0.1538 -0.2046
 1076YOPC   PO415060   0.790  11.008   5.428 -0.0053 -0.0402  0.3618
 1076YOPC   GL115061   0.389  10.819   5.592 -0.0895 -0.0652 -0.3973
 1076YOPC   GL215062   0.433  10.541   5.676  0.1173 -0.2194  0.3603
 1076YOPC   C1A15063   0.058  10.774   5.862 -0.0140 -0.3329  0.1956
 1076YOPC   D2A15064  -0.247  10.696   6.151  0.1355 -0.1432  0.0813
 1076YOPC   C3A15065  -0.254  10.744   6.565  0.1324 -0.2195 -0.3550
 1076YOPC   C4A15066  -0.454  10.962   6.857  0.1433  0.1077  0.0873
 1076YOPC   C1B15067   0.506  10.378   6.055 -0.1494  0.2631 -0.1136
 1076YOPC   C2B15068   0.514  10.593   6.502 -0.0790 -0.2653  0.1115
 1076YOPC   D3B15069   0.359  10.655   6.843  0.0752 -0.1501  0.1069
 1076YOPC   C4B15070   0.430  10.453   7.224  0.0244  0.0999 -0.3171
 1077YOPC   NC315071  11.586   8.031   5.834 -0.2267  0.0631  0.1374
 1077YOPC   PO415072  11.249   7.987   6.022  0.2507 -0.0837 -0.1127
 1077YOPC   GL115073  10.987   7.980   6.383  0.0309 -0.1220  0.2580
 1077YOPC   GL215074  10.655   8.095   6.269  0.0875 -0.3286 -0.2002
 1077YOPC   C1A15075  11.030   7.998   6.789 -0.3040  0.1487 -0.0339
 1077YOPC   D2A15076  10.946   8.031   7.225 -0.0281  0.1737 -0.0118
 1077YOPC   C3A15077  11.103   7.930   7.654 -0.0260 -0.0177 -0.1127
 1077YOPC   C4A15078  11.064   7.552   7.719  0.1665  0.1205  0.1041
 1077YOPC   C1B15079  10.593   7.811   6.681 -0.1259  0.0582 -0.1048
 1077YOPC   C2B15080  10.670   7.634   7.061 -0.2200 -0.0090 -0.1394
 1077YOPC   D3B15081  10.631   7.781   7.494 -0.1401  0.0535  0.0868
 1077YOPC   C4B15082  10.441   8.056   7.847  0.1263 -0.3332 -0.2469
 1078YOPC   NC315083  16.051   2.951   5.478 -0.0903 -0.3339  0.1427
 1078YOPC   PO415084  16.116   3.402   5.511  0.1690  0.0697 -0.1895
 1078YOPC   GL115085  16.175   3.075   5.943  0.1674 -0.1616  0.0151
 1078YOPC   GL215086  16.501   2.932   6.052 -0.1154 -0.2729  0.1465
 1078YOPC   C1A15087  16.011   3.072   6.374  0.3294  0.2044 -0.1727
 1078YOPC   D2A15088  15.579   3.204   6.541 -0.1168 -0.4105  0.0175
 1078YOPC   C3A15089  15.363   3.021   6.837  0.1395  0.0638  0.0393
 1078YOPC   C4A15090  14.870   3.011   6.911  0.3019 -0.1664  0.0540
 1078YOPC   C1B15091  16.744   2.819   6.526 -0.2397 -0.2758 -0.1407
 1078YOPC   C2B15092  16.928   2.859   6.929 -0.0093  0.1779  0.0870
 1078YOPC   D3B15093  16.784   3.160   7.218  0.1156  0.1063 -0.0932
 1078YOPC   C4B15094  16.984   3.404   7.372 -0.1973 -0.0440  0.1853
 1079YOPC   NC315095  16.157  12.433   5.079  0.1203 -0.2062  0.2207
 1079YOPC   PO415096  16.136  12.610   5.544  0.0518  0.0753  0.3529
 1079YOPC   GL115097  15.931  12.695   5.924  0.4161  0.3467 -0.2044
 1079YOPC   GL215098  16.102  12.540   6.265 -0.0626 -0.2106 -0.4056
 1079YOPC   C1A15099  16.009  13.050   6.257 -0.1574  0.2371 -0.0545
 1079YOPC   D2A15100  16.116  13.247   6.628 -0.0860  0.0123  0.0511
 1079YOPC   C3A15101  16.223  12.931   6.865 -0.1312  0.3140 -0.1165
 1079YOPC   C4A15102  16.236  12.588   6.760 -0.0130 -0.0200  0.0337
 1079YOPC   C1B15103  15.998  12.181   6.384 -0.0959 -0.2044  0.0231
 1079YOPC   C2B15104  15.913  12.112   6.729  0.1406 -0.0456 -0.1082
 1079YOPC   D3B15105  16.099  12.214   7.101 -0.1480 -0.1684  0.2415
 1079YOPC   C4B15106  16.435  12.608   7.229  0.1374 -0.1662  0.2382
 1080YOPC   NC315107   1.552   5.950   5.210  0.0392  0.1716  0.1844
 1080YOPC   PO415108   1.909   6.036   5.475  0.1543 -0.1385  0.0332
 1080YOPC   GL115109   1.746   5.848   5.870  0.0132  0.0869  0.0010
 1080YOPC   GL215110   1.817   6.159   5.934  0.1806  0.0141  0.2524
 1080YOPC   C1A15111   1.558   5.834   6.308  0.0891  0.2320  0.0574
 1080YOPC   D2A15112   1.486   5.814   6.743 -0.0947  0.0665 -0.1815
 1080YOPC   C3A15113   1.546   5.967   7.118  0.1640 -0.2434  0.3939
 1080YOPC   C4A15114   1.888   5.990   7.504 -0.1073  0.0112  0.4568
 1080YOPC   C1B15115   1.794   6.300   6.346  0.0236  0.2353  0.1313
 1080YOPC   C2B15116   1.673   6.295   6.747 -0.1202 -0.1765  0.0012
 1080YOPC   D3B15117   1.955   6.332   7.056  0.1568 -0.1260  0.0317
 1080YOPC   C4B15118   2.320   6.184   7.238  0.1197  0.2696  0.0297
 1081YOPC   NC315119   3.111  17.344   5.356 -0.1332 -0.0415 -0.3356
 1081YOPC   PO415120   3.393  16.908   5.155 -0.0550  0.1964  0.2704
 1081YOPC   GL115121   3.303  16.844   5.548 -0.1274 -0.0833 -0.1062
 1081YOPC   GL215122   3.279  17.063   5.830 -0.3191 -0.0871  0.0238
 1081YOPC   C1A15123   2.948  16.726   5.748 -0.2677 -0.3037  0.0737
 1081YOPC   D2A15124   2.854  16.446   6.076  0.1716  0.0582  0.1463
 1081YOPC   C3A15125   3.102  16.034   6.096 -0.1396 -0.1314  0.2877
 1081YOPC   C4A15126   3.430  15.838   6.350 -0.1594  0.0310  0.1274
 1081YOPC   C1B15127   2.997  17.023   6.188  0.3948 -0.1979 -0.1101
 1081YOPC   C2B15128   3.140  16.890   6.553  0.0109 -0.1760 -0.1648
 1081YOPC   D3B15129   3.053  16.764   7.018 -0.3438 -0.2191 -0.1996
 1081YOPC   C4B15130   3.173  16.549   7.473  0.0925 -0.0241  0.2698
 1082YOPC   NC315131  13.327   9.876   5.159  0.1818 -0.0980 -0.1313
 1082YOPC   PO415132  13.203   9.708   5.582  0.0901  0.0420  0.3699
 1082YOPC   GL115133  13.231   9.578   6.017  0.4539  0.0285  0.0881
 1082YOPC   GL215134  13.537   9.616   6.129  0.0306  0.0609  0.4135
 1082YOPC   C1A15135  13.151   9.346   6.398 -0.1411  0.2619  0.0664
 1082YOPC   D2A15136  13.354   9.247   6.746  0.0338  0.0567  0.1566
 1082YOPC   C3A15137  13.107   9.073   7.108  0.1937  0.1488 -0.3434
 1082YOPC   C4A15138  13.052   8.818   7.574  0.2020  0.4451 -0.0725
 1082YOPC   C1B15139  13.514   9.672   6.530 -0.0035  0.1901 -0.0279
 1082YOPC   C2B15140  13.524   9.644   7.037 -0.0529 -0.0772  0.0665
 1082YOPC   D3B15141  13.485   9.355   7.317  0.2224  0.1487 -0.2374
 1082YOPC   C4B15142  13.236   9.345   7.650  0.3748 -0.1226 -0.1005
 1083YOPC   NC315143   6.246   2.836   5.964 -0.1489 -0.2063  0.0252
 1083YOPC   PO415144   6.411   3.044   6.201 -0.1207  0.0044 -0.1688
 1083YOPC   GL115145   6.112   2.951   6.495 -0.1213  0.1208  0.0655
 1083YOPC   GL215146   5.862   2.767   6.576 -0.1039 -0.0958  0.2138
 1083YOPC   C1A15147   6.242   2.951   6.888 -0.0198 -0.1252 -0.0158
 1083YOPC   D2A15148   6.134   2.878   7.232  0.0743 -0.2778 -0.2872
 1083YOPC   C3A15149   6.332   3.197   7.505  0.0948 -0.0929  0.3505
 1083YOPC   C4A15150   6.735   3.023   7.576  0.3690 -0.1770  0.1392
 1083YOPC   C1B15151   5.771   2.697   6.873  0.1821  0.1628  0.2467
 1083YOPC   C2B15152   5.643   2.672   7.394 -0.4094 -0.0646  0.0740
 1083YOPC   D3B15153   5.675   2.855   7.879 -0.0659  0.0555 -0.0954
 1083YOPC   C4B15154   5.307   2.942   8.142 -0.2472  0.2499  0.1395
 1084YOPC   NC315155   5.877  14.631   5.792 -0.1668 -0.0029 -0.0055
 1084YOPC   PO415156   5.372  14.661   5.886 -0.1215 -0.0355 -0.2411
 1084YOPC   GL115157   5.255  14.662   6.297 -0.0990  0.3429  0.0095
 1084YOPC   GL215158   4.901  14.801   6.155 -0.2162 -0.0639 -0.2176
 1084YOPC   C1A15159   5.060  14.765   6.659 -0.1261  0.0565  0.0961
 1084YOPC   D2A15160   5.101  14.648   7.007 -0.1926 -0.2373 -0.1893
 1084YOPC   C3A15161   4.970  14.708   7.317  0.0979  0.1593  0.1673
 1084YOPC   C4A15162   4.720  14.561   7.626 -0.1890  0.0063 -0.0783
 1084YOPC   C1B15163   4.628  15.005   6.484 -0.0432  0.1699  0.0126
 1084YOPC   C2B15164   4.350  15.024   6.706 -0.0485 -0.1003  0.3715
 1084YOPC   D3B15165   4.163  14.977   7.154 -0.2076  0.3101  0.2916
 1084YOPC   C4B15166   4.062  14.880   7.575 -0.3413 -0.2013  0.0368
 1085YOPC   NC315167  10.743  14.721   5.544  0.2221  0.1784  0.0196
 1085YOPC   PO415168  10.573  14.849   6.015 -0.1126 -0.1985 -0.4304
 1085YOPC   GL115169  10.504  14.915   6.449  0.4416 -0.2220  0.1047
 1085YOPC   GL215170  10.210  15.067   6.517 -0.1419 -0.0553 -0.4133
 1085YOPC   C1A15171  10.536  14.807   6.810 -0.1645  0.2776 -0.3775
 1085YOPC   D2A15172  10.734  14.640   7.190  0.0236  0.2604  0.2063
 1085YOPC   C3A15173  11.009  14.842   7.550  0.2166 -0.1517  0.0431
 1085YOPC   C4A15174  10.938  15.151   7.824  0.1261  0.3607  0.1460
 1085YOPC   C1B15175  10.257  15.188   6.979 -0.5359 -0.0774 -0.0320
 1085YOPC   C2B15176  10.537  15.147   7.405  0.0495 -0.1287 -0.0020
 1085YOPC   D3B15177  10.554  15.437   7.791  0.1048 -0.0188  0.2304
 1085YOPC   C4B15178  10.438  15.663   8.182 -0.1077  0.1196  0.1465
 1086YOPC   NC315179   0.557   9.780   5.268  0.0671 -0.1103 -0.2691
 1086YOPC   PO415180   0.341  10.072   5.455  0.4143 -0.2480 -0.1780
 1086YOPC   GL115181   0.754  10.149   5.644  0.1148  0.1378  0.3917
 1086YOPC   GL215182   0.873   9.883   5.747 -0.0824 -0.2248 -0.2161
 1086YOPC   C1A15183   1.064  10.269   6.015  0.2488 -0.0993 -0.0433
 1086YOPC   D2A15184   0.938  10.587   6.308 -0.0989 -0.3428 -0.1306
 1086YOPC   C3A15185   1.135  10.755   6.687 -0.0172 -0.0911  0.0688
 1086YOPC   C4A15186   1.497  10.534   6.966  0.1449  0.0388  0.1012
 1086YOPC   C1B15187   0.906   9.805   6.256 -0.0041 -0.0122 -0.0345
 1086YOPC   C2B15188   0.707  10.102   6.528 -0.3035  0.0359 -0.1009
 1086YOPC   D3B15189   0.772  10.307   6.837 -0.1531  0.0208 -0.0734
 1086YOPC   C4B15190   1.001  10.531   7.140  0.2335 -0.0490 -0.2483
 1087YOPC   NC315191  12.104   2.175   5.497  0.0503  0.1077 -0.1252
 1087YOPC   PO415192  11.649   2.231   5.608  0.1294 -0.3677  0.1148
 1087YOPC   GL115193  11.691   2.178   6.009  0.1035  0.4091 -0.3714
 1087YOPC   GL215194  11.711   1.865   5.990 -0.2762 -0.3053  0.2640
 1087YOPC   C1A15195  11.438   2.060   6.491  0.1180 -0.0180  0.1036
 1087YOPC   D2A15196  11.306   1.860   6.805  0.1840  0.0284 -0.2073
 1087YOPC   C3A15197  11.350   2.171   7.137  0.3449  0.1383 -0.5352
 1087YOPC   C4A15198  11.640   2.391   7.117 -0.2266 -0.0116  0.0603
 1087YOPC   C1B15199  11.828   1.607   6.247 -0.0314 -0.0323  0.0407
 1087YOPC   C2B15200  12.191   1.603   6.464 -0.1589  0.0425 -0.1463
 1087YOPC   D3B15201  12.366   1.772   6.772  0.3795 -0.0451  0.1417
 1087YOPC   C4B15202  12.793   1.917   6.834 -0.0588 -0.0981  0.2812
 1088YOPC   NC315203   3.934   4.417   5.352  0.1275  0.1566  0.0546
 1088YOPC   PO415204   3.660   4.469   5.677  0.1150  0.2857 -0.1005
 1088YOPC   GL115205   3.670   4.669   6.102 -0.1569 -0.0860 -0.1037
 1088YOPC   GL215206   3.889   4.953   6.185 -0.0939 -0.0141  0.2001
 1088YOPC   C1A15207   3.384   4.815   6.364 -0.2581 -0.1099 -0.1308
 1088YOPC   D2A15208   2.914   5.102   6.314 -0.1681 -0.2117  0.3304
 1088YOPC   C3A15209   2.518   5.080   6.426 -0.0659  0.1267 -0.0155
 1088YOPC   C4A15210   2.243   5.259   6.590  0.3084  0.1802  0.0824
 1088YOPC   C1B15211   3.874   4.923   6.576 -0.0365  0.2963  0.0570
 1088YOPC   C2B15212   3.455   4.884   6.888  0.1284 -0.2326 -0.1433
 1088YOPC   D3B15213   3.491   5.082   7.336 -0.0108  0.1406  0.0936
 1088YOPC   C4B15214   3.759   5.210   7.634  0.4467 -0.3361 -0.2290
 1089YOPC   NC315215   3.699   6.019   5.331 -0.3811  0.0729 -0.0919
 1089YOPC   PO415216   3.213   6.195   5.327 -0.1819 -0.1983 -0.2511
 1089YOPC   GL115217   2.925   6.305   5.652 -0.3072  0.2289 -0.0316
 1089YOPC   GL215218   2.986   6.091   5.793 -0.0530 -0.1016 -0.0276
 1089YOPC   C1A15219   2.856   6.487   6.008 -0.2244  0.1879 -0.1417
 1089YOPC   D2A15220   2.783   6.703   6.334 -0.2593  0.3355  0.0465
 1089YOPC   C3A15221   3.219   6.767   6.566  0.2123 -0.0720  0.1534
 1089YOPC   C4A15222   3.309   6.666   7.003 -0.1550  0.0873  0.2218
 1089YOPC   C1B15223   2.732   6.007   6.204  0.0705 -0.3944  0.1243
 1089YOPC   C2B15224   2.468   5.692   6.471  0.0722  0.1015  0.0009
 1089YOPC   D3B15225   2.482   5.567   6.924  0.3160  0.0392 -0.0760
 1089YOPC   C4B15226   2.695   5.806   7.241 -0.1158 -0.3507  0.1695
 1090YOPC   NC315227   7.324  10.918   5.704 -0.0464 -0.0714  0.4934
 1090YOPC   PO415228   6.978  10.564   5.849 -0.1827 -0.0159  0.1788
 1090YOPC   GL115229   7.116  10.815   6.293 -0.0113  0.1014 -0.2905
 1090YOPC   GL215230   6.888  11.113   6.270 -0.2404 -0.1198 -0.3432
 1090YOPC   C1A15231   7.006  11.029   6.752  0.1427  0.1231 -0.0915
 1090YOPC   D2A15232   6.654  11.029   7.074  0.1692 -0.1582 -0.0889
 1090YOPC   C3A15233   6.812  10.778   7.436  0.0428  0.3213 -0.0652
 1090YOPC   C4A15234   6.924  10.806   7.840 -0.0423 -0.0465  0.0648
 1090YOPC   C1B15235   6.540  10.891   6.536  0.0489  0.1965  0.0822
 1090YOPC   C2B15236   6.407  10.605   6.896 -0.1254 -0.1728 -0.0806
 1090YOPC   D3B15237   6.348  10.626   7.357  0.1591  0.0035 -0.2884
 1090YOPC   C4B15238   6.389  11.029   7.629  0.1184 -0.1185  0.3135
 1091YOPC   NC315239  13.465   1.770   5.197 -0.2332 -0.2883  0.1137
 1091YOPC   PO415240  13.765   1.645   5.514 -0.0079 -0.1945  0.3217
 1091YOPC   GL115241  13.820   1.447   5.911  0.0719 -0.2259 -0.1080
 1091YOPC   GL215242  13.871   1.091   5.966  0.2162 -0.0065  0.1970
 1091YOPC   C1A15243  13.924   1.744   6.322  0.5107 -0.2510  0.2409
 1091YOPC   D2A15244  13.967   1.648   6.727  0.3021  0.1493 -0.2088
 1091YOPC   C3A15245  13.795   1.574   7.163 -0.0327 -0.1335 -0.0172
 1091YOPC   C4A15246  13.455   1.631   7.390 -0.1195 -0.3183  0.0648
 1091YOPC   C1B15247  13.762   1.314   6.412  0.4321 -0.2193 -0.0151
 1091YOPC   C2B15248  13.556   1.403   6.800 -0.0774  0.4239 -0.2145
 1091YOPC   D3B15249  13.140   1.381   7.104 -0.1874  0.2447 -0.1659
 1091YOPC   C4B15250  13.015   1.355   7.555  0.0151  0.1144 -0.2946
 1092YOPC   NC315251  17.306   4.612   5.556 -0.2406  0.0051 -0.1913
 1092YOPC   PO415252  16.936   4.720   5.733  0.3372 -0.0732 -0.2003
 1092YOPC   GL115253  16.989   4.599   6.227 -0.0794 -0.0168  0.1503
 1092YOPC   GL215254  16.943   4.300   6.440  0.1641  0.0927  0.2410
 1092YOPC   C1A15255  17.107   4.854   6.520 -0.0154 -0.0584 -0.1516
 1092YOPC   D2A15256  17.152   5.104   6.946  0.2981  0.0261 -0.0342
 1092YOPC   C3A15257  16.860   5.155   7.278  0.0291 -0.1180 -0.1473
 1092YOPC   C4A15258  16.894   5.112   7.748  0.0877  0.2926 -0.0045
 1092YOPC   C1B15259  16.836   4.549   6.725  0.0324  0.0343  0.0930
 1092YOPC   C2B15260  16.901   4.703   7.166  0.1209 -0.2620 -0.0522
 1092YOPC   D3B15261  16.677   4.650   7.542  0.0346  0.1129 -0.3436
 1092YOPC   C4B15262  16.654   4.703   7.885 -0.0816  0.2187 -0.0762
 1093YOPC   NC315263  17.806   4.317   5.105 -0.2397  0.3424  0.0868
 1093YOPC   PO415264  17.813   4.484   5.508  0.2786 -0.1524  0.2616
 1093YOPC   GL115265  17.770   4.449   5.872  0.0704 -0.4118 -0.1205
 1093YOPC   GL215266  17.961   4.150   5.941  0.0716  0.0539 -0.1494
 1093YOPC   C1A15267  17.924   4.442   6.335  0.0220 -0.3432  0.0755
 1093YOPC   D2A15268  17.839   4.423   6.722  0.1662  0.1798  0.2899
 1093YOPC   C3A15269  18.151   4.418   7.041  0.2840  0.2284  0.0253
 1093YOPC   C4A15270  18.334   4.302   7.414 -0.1509 -0.0213 -0.2044
 1093YOPC   C1B15271  17.863   3.894   6.368 -0.2346  0.2333 -0.1205
 1093YOPC   C2B15272  18.114   4.042   6.725 -0.3798 -0.0587  0.1166
 1093YOPC   D3B15273  18.220   3.873   7.153  0.3146 -0.1788  0.0411
 1093YOPC   C4B15274  18.213   3.475   7.500 -0.0548 -0.1659  0.0135
 1094YOPC   NC315275  13.218  14.981   5.293 -0.0178 -0.0391  0.1910
 1094YOPC   PO415276  13.302  15.138   5.862 -0.0639 -0.2664 -0.2836
 1094YOPC   GL115277  13.420  15.154   6.342 -0.2360  0.0144  0.0100
 1094YOPC   GL215278  13.179  15.249   6.472  0.0946  0.0790 -0.0273
 1094YOPC   C1A15279  13.601  14.901   6.715  0.0751 -0.0997  0.1708
 1094YOPC   D2A15280  13.650  14.533   6.953 -0.1368  0.2719 -0.1027
 1094YOPC   C3A15281  13.633  14.593   7.383 -0.1250 -0.0292  0.0707
 1094YOPC   C4A15282  13.887  14.699   7.666 -0.0849  0.2192  0.3108
 1094YOPC   C1B15283  13.184  15.196   6.870  0.1027 -0.3220 -0.0279
 1094YOPC   C2B15284  13.411  14.977   7.142  0.2758 -0.2064 -0.1200
 1094YOPC   D3B15285  13.667  15.169   7.552 -0.0475 -0.2376  0.1093
 1094YOPC   C4B15286  13.825  15.092   7.986  0.0954 -0.1153  0.4392
 1095YOPC   NC315287  12.724   3.041   5.774 -0.2553  0.0608 -0.1775
 1095YOPC   PO415288  13.104   3.208   5.643  0.3119  0.0250 -0.2464
 1095YOPC   GL115289  13.109   3.065   6.083 -0.0096 -0.0443 -0.1348
 1095YOPC   GL215290  13.277   2.887   6.174 -0.0636  0.0465  0.2113
 1095YOPC   C1A15291  12.929   3.181   6.532 -0.0520 -0.0871  0.1398
 1095YOPC   D2A15292  12.875   3.268   6.903 -0.0926  0.3922  0.3057
 1095YOPC   C3A15293  13.016   2.951   7.160  0.0507 -0.0142  0.0418
 1095YOPC   C4A15294  13.170   2.687   7.431  0.1041 -0.1811  0.1416
 1095YOPC   C1B15295  13.414   2.894   6.613 -0.3114 -0.0289  0.1882
 1095YOPC   C2B15296  13.521   2.794   7.073 -0.3452 -0.3298  0.1139
 1095YOPC   D3B15297  13.511   2.418   7.100  0.0354  0.2071 -0.0151
 1095YOPC   C4B15298  13.757   2.123   6.869  0.2444  0.1083 -0.1383
 1096YOPC   NC315299   5.798  13.749   5.844  0.0336 -0.2638 -0.2427
 1096YOPC   PO415300   6.053  14.030   6.058  0.2620 -0.0573  0.0736
 1096YOPC   GL115301   5.987  13.692   6.312 -0.4744  0.1673  0.1265
 1096YOPC   GL215302   6.119  13.409   6.200  0.0461  0.1447 -0.1584
 1096YOPC   C1A15303   5.858  13.504   6.641  0.0203 -0.1780  0.0994
 1096YOPC   D2A15304   5.625  13.547   7.087  0.0601 -0.0561  0.1178
 1096YOPC   C3A15305   5.773  13.480   7.515  0.0584  0.0984  0.2263
 1096YOPC   C4A15306   5.873  13.530   8.048 -0.0573 -0.0037 -0.3975
 1096YOPC   C1B15307   5.859  13.086   6.428  0.0433 -0.1027 -0.1810
 1096YOPC   C2B15308   5.723  12.738   6.583  0.1460  0.0593 -0.0160
 1096YOPC   D3B15309   5.798  12.355   6.442  0.2426 -0.0862 -0.2075
 1096YOPC   C4B15310   5.685  11.892   6.505 -0.1134 -0.0484 -0.2792
 1097YOPC   NC315311  17.803  10.177   5.017  0.0401  0.1416  0.0996
 1097YOPC   PO415312  18.183  10.103   5.239  0.1397 -0.0782  0.1315
 1097YOPC   GL115313  18.317  10.025   5.735 -0.3279 -0.2636 -0.3853
 1097YOPC   GL215314  18.391   9.583   5.822 -0.0067  0.4065 -0.1478
 1097YOPC   C1A15315  18.413  10.270   6.041  0.0026  0.1419 -0.2054
 1097YOPC   D2A15316  18.434  10.367   6.450 -0.2447 -0.1606  0.0388
 1097YOPC   C3A15317  18.200  10.070   6.685  0.1048 -0.1922  0.0210
 1097YOPC   C4A15318  18.144   9.734   7.056 -0.1797 -0.2590  0.1235
 1097YOPC   C1B15319  18.248   9.775   6.194  0.1255 -0.0522 -0.0151
 1097YOPC   C2B15320  17.927  10.156   6.167  0.0175  0.0672  0.0197
 1097YOPC   D3B15321  17.480  10.085   6.178 -0.0203  0.1410 -0.3714
 1097YOPC   C4B15322  17.131   9.883   6.126 -0.0789  0.0478 -0.0313
 1098YOPC   NC315323  16.724  13.824   5.316  0.2024 -0.2220  0.3185
 1098YOPC   PO415324  16.787  13.550   5.664 -0.1296  0.3365 -0.0503
 1098YOPC   GL115325  17.084  13.274   6.038  0.3030 -0.0442  0.0878
 1098YOPC   GL215326  16.952  13.543   6.151 -0.3427  0.0619  0.2564
 1098YOPC   C1A15327  17.350  13.325   6.482 -0.2026 -0.0180 -0.0932
 1098YOPC   D2A15328  17.544  13.371   6.874  0.1922  0.0784  0.1352
 1098YOPC   C3A15329  17.505  13.509   7.295 -0.1874 -0.4068 -0.0030
 1098YOPC   C4A15330  17.243  13.509   7.631  0.0838  0.1413 -0.0613
 1098YOPC   C1B15331  16.883  13.695   6.502  0.0837  0.0608 -0.0559
 1098YOPC   C2B15332  16.695  13.857   6.901  0.1073  0.0063 -0.2050
 1098YOPC   D3B15333  16.362  13.719   7.159 -0.0193  0.5799 -0.1529
 1098YOPC   C4B15334  16.044  13.803   7.450 -0.1892  0.1037 -0.0901
 1099YOPC   NC315335   5.397   3.154   5.656  0.1806  0.1320 -0.0626
 1099YOPC   PO415336   5.072   3.066   5.928  0.3319 -0.1623 -0.1178
 1099YOPC   GL115337   4.852   3.080   6.428 -0.1603 -0.0720  0.0804
 1099YOPC   GL215338   4.503   3.010   6.297 -0.0665 -0.2590 -0.1154
 1099YOPC   C1A15339   4.955   3.000   6.884 -0.1965  0.1469 -0.0219
 1099YOPC   D2A15340   4.838   3.034   7.336  0.0233  0.1031 -0.0344
 1099YOPC   C3A15341   4.877   3.266   7.667  0.1393 -0.1389 -0.0519
 1099YOPC   C4A15342   5.070   3.395   8.033  0.3119  0.2528 -0.3604
 1099YOPC   C1B15343   4.393   2.902   6.742  0.3519  0.0712  0.3742
 1099YOPC   C2B15344   4.549   2.683   7.089 -0.0760  0.2199 -0.2267
 1099YOPC   D3B15345   4.354   2.616   7.443 -0.1358 -0.3719  0.1407
 1099YOPC   C4B15346   4.153   2.625   7.728 -0.0742  0.0975 -0.2553
 1100YOPC   NC315347  16.426   1.371   5.632 -0.1156  0.0851 -0.0362
 1100YOPC   PO415348  16.162   1.564   5.869 -0.1090 -0.0336 -0.0963
 1100YOPC   GL115349  16.554   1.598   6.074  0.0363  0.0901 -0.0565
 1100YOPC   GL215350  16.815   1.612   5.908 -0.0855  0.0379 -0.1089
 1100YOPC   C1A15351  16.669   1.944   6.370 -0.1675 -0.1559  0.0764
 1100YOPC   D2A15352  16.642   2.105   6.793 -0.1548  0.3433  0.1018
 1100YOPC   C3A15353  16.921   1.962   7.187  0.1471 -0.1351 -0.0073
 1100YOPC   C4A15354  17.058   1.760   7.606  0.0103 -0.2013 -0.0934
 1100YOPC   C1B15355  17.124   1.730   6.293 -0.0104  0.1237  0.1573
 1100YOPC   C2B15356  17.173   1.851   6.771  0.0629 -0.0759  0.1371
 1100YOPC   D3B15357  17.300   1.608   7.091  0.0691  0.2377  0.2662
 1100YOPC   C4B15358  17.371   1.388   7.397 -0.0680  0.0514  0.4518
 1101YOPC   NC315359   6.885   0.293   6.185 -0.1521 -0.0048  0.0261
 1101YOPC   PO415360   6.627  -0.092   6.046  0.2043 -0.0271  0.0292
 1101YOPC   GL115361   6.396  -0.285   6.297  0.3488  0.0566 -0.2476
 1101YOPC   GL215362   6.435  -0.624   6.361 -0.0013 -0.0994  0.0449
 1101YOPC   C1A15363   6.185  -0.133   6.552  0.1938 -0.0564  0.1759
 1101YOPC   D2A15364   6.029   0.193   6.672  0.0333 -0.1951  0.0652
 1101YOPC   C3A15365   6.202   0.350   7.116 -0.2239 -0.2871  0.0909
 1101YOPC   C4A15366   5.912   0.318   7.489 -0.3866 -0.1951 -0.0659
 1101YOPC   C1B15367   6.522  -0.691   6.742 -0.2601  0.0757  0.0315
 1101YOPC   C2B15368   6.483  -0.399   6.971  0.1048 -0.0804 -0.0476
 1101YOPC   D3B15369   6.407  -0.635   7.293  0.3900 -0.3138  0.3704
 1101YOPC   C4B15370   6.578  -0.818   7.601 -0.2159  0.1189 -0.1486
 1102YOPC   NC315371  13.772  16.415   5.886  0.0486  0.3643 -0.1535
 1102YOPC   PO415372  13.385  16.211   5.938 -0.0462 -0.0126  0.0527
 1102YOPC   GL115373  13.163  16.105   6.304  0.2293 -0.1691 -0.2011
 1102YOPC   GL215374  13.196  15.793   6.446  0.0309  0.1348 -0.1135
 1102YOPC   C1A15375  12.927  16.157   6.664  0.1279 -0.1519  0.1098
 1102YOPC   D2A15376  12.577  16.170   7.000  0.0458 -0.1470  0.1510
 1102YOPC   C3A15377  12.553  16.088   7.369 -0.2348  0.1233 -0.2370
 1102YOPC   C4A15378  12.410  15.827   7.714  0.0621  0.0855 -0.2880
 1102YOPC   C1B15379  13.296  15.817   6.879  0.2479 -0.1819 -0.2021
 1102YOPC   C2B15380  13.034  15.968   7.245 -0.1718  0.2496 -0.1908
 1102YOPC   D3B15381  13.015  15.956   7.615 -0.3793  0.0552 -0.2254
 1102YOPC   C4B15382  12.790  15.950   7.953  0.2630  0.0192  0.0049
 1103YOPC   NC315383   8.668   5.869   5.373  0.2810  0.1991 -0.0097
 1103YOPC   PO415384   8.342   6.023   5.575  0.2364  0.2336  0.2708
 1103YOPC   GL115385   8.267   5.939   5.973  0.1402  0.1392  0.0366
 1103YOPC   GL215386   8.128   5.634   6.159  0.3408 -0.0731  0.1728
 1103YOPC   C1A15387   8.346   5.965   6.455 -0.0669 -0.1075 -0.2553
 1103YOPC   D2A15388   8.414   5.896   6.916  0.0183 -0.0474  0.0253
 1103YOPC   C3A15389   8.511   5.575   7.192  0.0347 -0.2312 -0.1546
 1103YOPC   C4A15390   8.902   5.506   7.448 -0.0009  0.0773 -0.0171
 1103YOPC   C1B15391   8.215   5.447   6.578  0.1533 -0.1387 -0.1249
 1103YOPC   C2B15392   8.275   5.230   6.940  0.0477  0.2226  0.3486
 1103YOPC   D3B15393   8.555   5.111   7.312 -0.1031  0.1948  0.0475
 1103YOPC   C4B15394   8.712   4.827   7.557 -0.2130 -0.2064 -0.2040
 1104YOPC   NC315395  16.308   5.834   5.534  0.1248 -0.2781 -0.1455
 1104YOPC   PO415396  16.581   5.425   5.715 -0.1270  0.1102 -0.0666
 1104YOPC   GL115397  16.611   5.650   6.051  0.3594  0.3470 -0.0937
 1104YOPC   GL215398  16.530   5.419   6.304  0.5054 -0.0228 -0.4007
 1104YOPC   C1A15399  16.706   6.047   6.276  0.1345 -0.4093  0.1335
 1104YOPC   D2A15400  16.904   5.979   6.708 -0.0881  0.1482  0.1218
 1104YOPC   C3A15401  16.689   5.931   7.107  0.1448 -0.1068 -0.0745
 1104YOPC   C4A15402  16.822   5.935   7.554  0.2287 -0.2075 -0.0797
 1104YOPC   C1B15403  16.228   5.386   6.684 -0.0221 -0.2352  0.1826
 1104YOPC   C2B15404  15.916   5.173   6.870 -0.2802 -0.0519  0.0523
 1104YOPC   D3B15405  16.019   5.330   7.293 -0.0310 -0.2878  0.0941
 1104YOPC   C4B15406  15.918   5.600   7.623  0.3697 -0.1154  0.1677
 1105YOPC   NC315407  12.306   9.391   5.453  0.0745 -0.0961 -0.0814
 1105YOPC   PO415408  12.489   9.045   5.608  0.0375  0.1554 -0.2118
 1105YOPC   GL115409  12.480   8.979   6.072  0.1179 -0.1689  0.0056
 1105YOPC   GL215410  12.677   9.167   6.258 -0.1321 -0.1363  0.3951
 1105YOPC   C1A15411  12.350   8.972   6.568  0.0442  0.1799 -0.1689
 1105YOPC   D2A15412  12.185   8.931   7.075  0.0180 -0.0718 -0.1462
 1105YOPC   C3A15413  11.913   8.643   7.261  0.2964 -0.2161  0.0474
 1105YOPC   C4A15414  11.801   8.246   7.357  0.1340  0.4125 -0.3698
 1105YOPC   C1B15415  12.799   9.230   6.734 -0.0697  0.1564 -0.1227
 1105YOPC   C2B15416  12.549   9.261   7.116  0.2780 -0.0109  0.0800
 1105YOPC   D3B15417  12.571   8.999   7.370 -0.2233  0.2420  0.3950
 1105YOPC   C4B15418  12.556   8.800   7.730 -0.2547  0.0579  0.1046
 1106YOPC   NC315419   6.965  17.250   5.926 -0.1903 -0.0196 -0.0286
 1106YOPC   PO415420   7.291  17.559   6.157  0.1957  0.0705 -0.0326
 1106YOPC   GL115421   7.457  17.414   6.486  0.0457 -0.0121  0.1951
 1106YOPC   GL215422   7.809  17.510   6.434  0.3560  0.0567  0.0211
 1106YOPC   C1A15423   7.450  16.996   6.752  0.3559  0.0490 -0.0654
 1106YOPC   D2A15424   7.481  16.742   7.139  0.0505  0.0152 -0.0228
 1106YOPC   C3A15425   7.115  16.532   7.432  0.0702 -0.1146  0.1716
 1106YOPC   C4A15426   7.195  16.223   7.756  0.1794 -0.0663  0.1877
 1106YOPC   C1B15427   7.914  17.242   6.811  0.2072  0.0655  0.0639
 1106YOPC   C2B15428   7.773  17.217   7.255 -0.2331  0.0346 -0.2464
 1106YOPC   D3B15429   7.335  17.144   7.469  0.1438 -0.0741 -0.2136
 1106YOPC   C4B15430   7.045  17.385   7.714  0.1267 -0.1619 -0.3185
 1107YOPC   NC315431  18.080   1.490   5.397 -0.0224 -0.0791 -0.0360
 1107YOPC   PO415432  18.222   1.143   5.412 -0.1526 -0.1384 -0.1840
 1107YOPC   GL115433  18.279   1.090   5.876 -0.0150  0.0866 -0.1431
 1107YOPC   GL215434  18.129   1.391   5.955  0.2635  0.1806  0.1713
 1107YOPC   C1A15435  18.453   0.867   6.290 -0.1532 -0.0030 -0.3147
 1107YOPC   D2A15436  18.443   0.859   6.655  0.1252 -0.0097  0.2720
 1107YOPC   C3A15437  18.161   1.044   6.791  0.2014 -0.0034  0.2248
 1107YOPC   C4A15438  17.811   1.024   6.585  0.0828  0.0036 -0.1671
 1107YOPC   C1B15439  18.159   1.270   6.357  0.0194 -0.1230 -0.1124
 1107YOPC   C2B15440  18.378   1.520   6.618 -0.0252 -0.2381  0.0847
 1107YOPC   D3B15441  18.351   1.424   7.102 -0.2569 -0.6271  0.2214
 1107YOPC   C4B15442  18.397   1.499   7.519 -0.1607 -0.1663 -0.0422
 1108YOPC   NC315443  10.756  17.814   5.653 -0.0088  0.0498 -0.0405
 1108YOPC   PO415444  10.637  17.457   5.838 -0.1607 -0.0113  0.1191
 1108YOPC   GL115445  10.551  17.615   6.185 -0.3028  0.0140  0.1304
 1108YOPC   GL215446  10.755  17.859   6.207 -0.0141  0.1031 -0.3207
 1108YOPC   C1A15447  10.461  17.542   6.562  0.0485  0.4875  0.1097
 1108YOPC   D2A15448  10.288  17.677   6.905 -0.1320  0.2233  0.3144
 1108YOPC   C3A15449  10.239  17.541   7.305 -0.0663 -0.0323 -0.5459
 1108YOPC   C4A15450  10.534  17.344   7.651 -0.1250 -0.1873 -0.2128
 1108YOPC   C1B15451  10.921  17.788   6.623 -0.3552  0.1098 -0.2158
 1108YOPC   C2B15452  11.053  17.845   7.113  0.2104 -0.0632  0.1588
 1108YOPC   D3B15453  10.938  17.632   7.542  0.1280  0.1388  0.1733
 1108YOPC   C4B15454  11.069  17.277   7.804  0.1518 -0.2050  0.5342
 1109YOPC   NC315455  16.007  11.252   5.714 -0.1937 -0.1102  0.0631
 1109YOPC   PO415456  16.414  11.056   5.607 -0.1967  0.0035 -0.0550
 1109YOPC   GL115457  16.686  10.795   5.827  0.1241  0.0616 -0.1238
 1109YOPC   GL215458  16.801  11.073   5.994  0.1088  0.1904  0.2499
 1109YOPC   C1A15459  16.635  10.479   6.135 -0.0524  0.2103 -0.0162
 1109YOPC   D2A15460  16.634  10.105   6.331  0.0084 -0.3475 -0.0567
 1109YOPC   C3A15461  16.796  10.070   6.794  0.1901 -0.0774 -0.0179
 1109YOPC   C4A15462  16.841   9.867   7.206 -0.0707 -0.0681  0.2586
 1109YOPC   C1B15463  16.763  10.940   6.399 -0.2365  0.0065 -0.1189
 1109YOPC   C2B15464  16.793  10.601   6.591  0.1066  0.0903 -0.0640
 1109YOPC   D3B15465  17.162  10.445   6.903  0.1832  0.0167  0.2490
 1109YOPC   C4B15466  17.425  10.489   7.321  0.5610  0.1171 -0.3559
 1110YOPC   NC315467   6.422   7.713   5.738  0.0221  0.1460 -0.2502
 1110YOPC   PO415468   6.040   7.662   5.888  0.1875 -0.0379  0.0274
 1110YOPC   GL115469   6.121   7.511   6.248  0.0531 -0.0377 -0.0052
 1110YOPC   GL215470   5.947   7.234   6.416  0.0982 -0.0942 -0.0729
 1110YOPC   C1A15471   6.069   7.655   6.634  0.3114  0.2725  0.1402
 1110YOPC   D2A15472   5.922   7.988   6.973 -0.0738 -0.1254 -0.2426
 1110YOPC   C3A15473   6.176   7.946   7.295  0.1736  0.2655  0.0451
 1110YOPC   C4A15474   6.104   7.826   7.685  0.1874 -0.3000 -0.0522
 1110YOPC   C1B15475   5.825   7.275   6.852  0.2663 -0.0115  0.1583
 1110YOPC   C2B15476   5.808   7.565   7.176  0.1440  0.2381 -0.0825
 1110YOPC   D3B15477   6.119   7.410   7.433 -0.2416 -0.4604 -0.2077
 1110YOPC   C4B15478   6.319   7.299   7.734 -0.0929  0.0631 -0.1178
 1111YOPC   NC315479   4.925   6.548   5.607 -0.1825  0.1883  0.2137
 1111YOPC   PO415480   4.981   7.024   5.638  0.1316 -0.2399  0.2319
 1111YOPC   GL115481   4.710   7.214   5.963 -0.0855 -0.0068  0.1319
 1111YOPC   GL215482   4.747   7.550   6.026  0.0415  0.0499  0.1748
 1111YOPC   C1A15483   4.531   6.989   6.262 -0.0583  0.0191 -0.2903
 1111YOPC   D2A15484   4.501   6.746   6.633 -0.0970  0.0066 -0.0557
 1111YOPC   C3A15485   4.585   6.830   7.085  0.0741 -0.0370  0.0265
 1111YOPC   C4A15486   4.561   6.947   7.576 -0.0142 -0.1771 -0.0684
 1111YOPC   C1B15487   4.626   7.493   6.411  0.1058 -0.0971  0.0718
 1111YOPC   C2B15488   4.561   7.615   6.875  0.1947  0.0367  0.1928
 1111YOPC   D3B15489   4.556   7.351   7.231  0.1995  0.0964  0.2319
 1111YOPC   C4B15490   4.715   7.448   7.636  0.1209  0.1763  0.0681
 1112YOPC   NC315491   3.155  11.085   5.583 -0.0809 -0.0151  0.0020
 1112YOPC   PO415492   2.842  10.771   5.420  0.1939 -0.2544  0.0754
 1112YOPC   GL115493   2.754  10.952   5.853  0.0408  0.4402 -0.0500
 1112YOPC   GL215494   2.516  10.691   5.872 -0.1020  0.1290 -0.0903
 1112YOPC   C1A15495   2.742  10.873   6.297 -0.1262 -0.1235  0.1798
 1112YOPC   D2A15496   3.013  10.781   6.468  0.1125 -0.2116 -0.3598
 1112YOPC   C3A15497   3.178  10.393   6.531  0.1570 -0.0778  0.3319
 1112YOPC   C4A15498   3.591  10.173   6.561 -0.2346  0.0846  0.0733
 1112YOPC   C1B15499   2.316  10.718   6.191  0.0850 -0.1105  0.1619
 1112YOPC   C2B15500   2.284  10.801   6.642  0.1370 -0.1444  0.0415
 1112YOPC   D3B15501   2.607  10.913   6.825 -0.0679  0.0174  0.0401
 1112YOPC   C4B15502   2.974  10.919   6.950  0.1948  0.0713  0.1646
 1113YOPC   NC315503   1.696  13.603   5.056 -0.1608  0.1471 -0.0167
 1113YOPC   PO415504   1.262  13.686   5.320 -0.1285 -0.2321 -0.0814
 1113YOPC   GL115505   1.259  13.638   5.750 -0.0980 -0.2337 -0.1477
 1113YOPC   GL215506   1.317  13.319   5.897  0.1322 -0.1910  0.0491
 1113YOPC   C1A15507   1.294  13.769   6.192 -0.3337 -0.0478  0.0457
 1113YOPC   D2A15508   1.422  13.992   6.506  0.0542 -0.0794  0.2173
 1113YOPC   C3A15509   1.576  14.232   6.821 -0.0373 -0.0865  0.1223
 1113YOPC   C4A15510   1.559  14.318   7.210  0.1804  0.0018 -0.0351
 1113YOPC   C1B15511   1.140  13.278   6.264 -0.0788  0.2650  0.0888
 1113YOPC   C2B15512   1.037  13.172   6.708  0.0855 -0.2317 -0.0509
 1113YOPC   D3B15513   0.771  13.456   7.024  0.1502 -0.0270 -0.1670
 1113YOPC   C4B15514   0.763  13.797   7.163 -0.1771 -0.0732  0.1988
 1114YOPC   NC315515  10.209   1.074   5.779 -0.1203  0.0558  0.0989
 1114YOPC   PO415516  10.399   1.328   5.393  0.0621  0.1205 -0.4112
 1114YOPC   GL115517  10.382   1.625   5.757 -0.4636  0.0644  0.0189
 1114YOPC   GL215518  10.615   1.523   5.871  0.2435  0.1193  0.1260
 1114YOPC   C1A15519  10.404   2.068   6.056 -0.0329 -0.1453  0.3078
 1114YOPC   D2A15520  10.387   2.103   6.531 -0.0698 -0.0978  0.1790
 1114YOPC   C3A15521  10.491   1.894   6.873 -0.0019 -0.2621  0.1307
 1114YOPC   C4A15522  10.490   1.602   7.241 -0.0663  0.2236  0.3085
 1114YOPC   C1B15523  10.531   1.630   6.294 -0.1891  0.1635  0.1238
 1114YOPC   C2B15524  10.915   1.875   6.516 -0.0525  0.1294  0.0725
 1114YOPC   D3B15525  10.889   2.240   6.872 -0.1421  0.2632 -0.2394
 1114YOPC   C4B15526  10.711   2.660   6.857  0.0228  0.1382 -0.1323
 1115YOPC   NC315527  14.506   2.967   5.271 -0.2176  0.1558 -0.0933
 1115YOPC   PO415528  14.473   2.857   5.740 -0.0324 -0.0755  0.2727
 1115YOPC   GL115529  14.700   3.170   6.069  0.0679  0.1893 -0.1985
 1115YOPC   GL215530  14.358   3.039   6.276  0.0395  0.1864  0.0373
 1115YOPC   C1A15531  14.607   3.418   6.473 -0.1311 -0.0332 -0.1393
 1115YOPC   D2A15532  14.631   3.458   6.967  0.1973  0.0777  0.0173
 1115YOPC   C3A15533  14.233   3.568   7.187  0.0057  0.0089  0.2258
 1115YOPC   C4A15534  13.862   3.601   6.905 -0.1186  0.0390  0.2308
 1115YOPC   C1B15535  14.405   3.011   6.774 -0.0107 -0.1707  0.1700
 1115YOPC   C2B15536  14.371   3.074   7.138 -0.0369 -0.1663 -0.0932
 1115YOPC   D3B15537  14.348   3.083   7.516 -0.1057  0.0373  0.0596
 1115YOPC   C4B15538  14.624   3.007   7.808 -0.0058 -0.1155  0.1852
 1116YOPC   NC315539   0.516  12.116   5.407 -0.0534 -0.1433 -0.2590
 1116YOPC   PO415540   0.757  12.493   5.190  0.1317 -0.0696  0.2115
 1116YOPC   GL115541   0.880  12.594   5.575 -0.4554  0.0938  0.0148
 1116YOPC   GL215542   0.611  12.547   5.721  0.2117 -0.0470  0.0140
 1116YOPC   C1A15543   1.078  12.272   5.879 -0.0583 -0.0244 -0.3334
 1116YOPC   D2A15544   1.504  12.183   6.045 -0.3414 -0.1634 -0.0781
 1116YOPC   C3A15545   1.472  11.923   6.352  0.0143 -0.0196 -0.0941
 1116YOPC   C4A15546   1.521  11.876   6.717  0.1191  0.0044 -0.1884
 1116YOPC   C1B15547   0.574  12.455   6.160  0.1244 -0.2287  0.4652
 1116YOPC   C2B15548   0.655  12.645   6.551  0.0880 -0.1516 -0.3015
 1116YOPC   D3B15549   0.954  12.624   6.873 -0.1145 -0.1729 -0.0683
 1116YOPC   C4B15550   1.023  12.445   7.236 -0.0977  0.0676  0.0671
 1117YOPC   NC315551  14.346  15.037   5.632  0.4188  0.2234 -0.0282
 1117YOPC   PO415552  14.512  15.319   5.772 -0.0356  0.3491 -0.0437
 1117YOPC   GL115553  14.664  15.440   6.125 -0.2856  0.0144  0.0204
 1117YOPC   GL215554  14.424  15.689   6.228 -0.0856  0.3261 -0.2878
 1117YOPC   C1A15555  14.784  15.464   6.492  0.5847  0.2632 -0.0863
 1117YOPC   D2A15556  14.896  15.301   6.833  0.1485  0.2688 -0.0719
 1117YOPC   C3A15557  14.796  15.527   7.231 -0.1429  0.1585 -0.1153
 1117YOPC   C4A15558  14.715  15.786   7.422  0.1612 -0.0371 -0.2014
 1117YOPC   C1B15559  14.507  16.118   6.410 -0.2341  0.2817 -0.2222
 1117YOPC   C2B15560  14.551  16.527   6.678 -0.1458 -0.0170  0.0375
 1117YOPC   D3B15561  14.573  16.408   7.071  0.1362  0.2026 -0.0357
 1117YOPC   C4B15562  14.539  16.235   7.419  0.2872  0.3003  0.0520
 1118YOPC   NC315563  15.342   4.439   5.533  0.0389 -0.0818  0.1258
 1118YOPC   PO415564  15.261   4.862   5.586  0.0822 -0.2309  0.0730
 1118YOPC   GL115565  15.438   5.079   6.001  0.1453 -0.1268 -0.1777
 1118YOPC   GL215566  15.386   5.442   5.940 -0.2752 -0.3593 -0.2301
 1118YOPC   C1A15567  15.518   5.236   6.366  0.0891 -0.0613 -0.0026
 1118YOPC   D2A15568  15.745   5.572   6.443 -0.0901 -0.1035  0.0473
 1118YOPC   C3A15569  15.911   5.730   6.744 -0.0799 -0.0929  0.0114
 1118YOPC   C4A15570  15.989   5.907   7.073  0.0886 -0.1491  0.2769
 1118YOPC   C1B15571  15.191   5.585   6.269 -0.1276 -0.0842  0.2697
 1118YOPC   C2B15572  14.929   5.691   6.638  0.3117 -0.2706  0.3656
 1118YOPC   D3B15573  15.115   5.894   6.981  0.0621  0.2871 -0.0876
 1118YOPC   C4B15574  15.064   5.865   7.416  0.1113 -0.1424  0.0426
 1119YOPC   NC315575   2.330  16.037   5.045 -0.0279 -0.0925 -0.0373
 1119YOPC   PO415576   2.313  16.320   5.417  0.0121 -0.0122  0.2884
 1119YOPC   GL115577   2.311  16.389   5.879 -0.0646 -0.0792  0.2002
 1119YOPC   GL215578   2.042  16.521   5.952  0.0927  0.3137 -0.1142
 1119YOPC   C1A15579   2.446  16.745   6.149  0.1755 -0.0315 -0.0533
 1119YOPC   D2A15580   2.486  16.765   6.569  0.1197 -0.1845 -0.1955
 1119YOPC   C3A15581   2.458  16.918   6.988  0.4179 -0.3320  0.2770
 1119YOPC   C4A15582   2.630  17.309   7.167 -0.2007 -0.2339  0.1019
 1119YOPC   C1B15583   2.046  16.587   6.377 -0.1339  0.1121  0.0825
 1119YOPC   C2B15584   2.015  16.717   6.861  0.1095 -0.1657 -0.0077
 1119YOPC   D3B15585   2.120  16.502   7.113 -0.0440 -0.2204 -0.0297
 1119YOPC   C4B15586   1.894  16.423   7.460  0.0827 -0.0917 -0.0077
 1120YOPC   NC315587   2.921   7.032   5.050  0.1118  0.0349 -0.0332
 1120YOPC   PO415588   2.942   7.246   5.414 -0.0993 -0.1295  0.0760
 1120YOPC   GL115589   3.034   7.030   5.777  0.0394 -0.3378  0.0485
 1120YOPC   GL215590   3.298   7.164   5.998 -0.2404 -0.2402  0.0152
 1120YOPC   C1A15591   3.356   6.691   6.045  0.1191  0.1107 -0.0873
 1120YOPC   D2A15592   3.303   6.393   6.277 -0.1057  0.0600  0.3160
 1120YOPC   C3A15593   2.964   6.343   6.583 -0.3849 -0.1886 -0.2865
 1120YOPC   C4A15594   2.686   6.084   6.837  0.2987  0.1482  0.1865
 1120YOPC   C1B15595   3.610   7.004   6.324 -0.0053  0.1808 -0.0073
 1120YOPC   C2B15596   3.590   6.976   6.773  0.2866  0.1313 -0.0020
 1120YOPC   D3B15597   3.500   7.364   7.075  0.3314  0.1311  0.1061
 1120YOPC   C4B15598   3.742   7.526   7.428 -0.1221 -0.1677  0.0217
 1121YOPC   NC315599   1.647  17.184   5.864  0.2973 -0.0701 -0.1168
 1121YOPC   PO415600   1.563  16.729   5.784 -0.2258 -0.1646  0.2690
 1121YOPC   GL115601   1.567  16.651   6.188  0.4803  0.0836 -0.1329
 1121YOPC   GL215602   1.435  16.966   6.351  0.2798  0.2847  0.3739
 1121YOPC   C1A15603   1.594  16.479   6.613  0.2947  0.2440 -0.3440
 1121YOPC   D2A15604   1.637  16.496   7.052  0.1078  0.0315 -0.2271
 1121YOPC   C3A15605   1.584  16.144   7.159  0.1909  0.1268  0.1575
 1121YOPC   C4A15606   1.547  15.682   7.223 -0.0103 -0.2737  0.0981
 1121YOPC   C1B15607   1.452  16.947   6.749 -0.2725  0.0363 -0.2830
 1121YOPC   C2B15608   1.193  16.771   7.014 -0.2471  0.1872  0.1481
 1121YOPC   D3B15609   1.264  16.619   7.397 -0.2353 -0.0478  0.1858
 1121YOPC   C4B15610   1.498  16.721   7.747 -0.1022 -0.1566 -0.3168
 1122YOPC   NC315611  13.711  12.969   5.217  0.3074  0.0077 -0.0653
 1122YOPC   PO415612  13.509  12.720   5.454  0.1436 -0.1049  0.2811
 1122YOPC   GL115613  13.623  12.788   5.837 -0.2122 -0.4208 -0.1161
 1122YOPC   GL215614  13.494  12.733   6.106 -0.1677  0.1349 -0.0533
 1122YOPC   C1A15615  14.049  12.910   6.020  0.1179  0.1801  0.3065
 1122YOPC   D2A15616  14.395  13.093   6.232  0.0987 -0.1136 -0.0688
 1122YOPC   C3A15617  14.311  13.492   6.438  0.2131  0.0463  0.3387
 1122YOPC   C4A15618  14.358  13.912   6.410  0.1473  0.0339 -0.0105
 1122YOPC   C1B15619  13.541  12.895   6.456 -0.2118  0.0613 -0.0721
 1122YOPC   C2B15620  13.563  12.706   6.838 -0.1710  0.2366  0.2868
 1122YOPC   D3B15621  13.733  12.898   7.144 -0.0229  0.3844  0.0092
 1122YOPC   C4B15622  13.953  12.884   7.549 -0.2573  0.1651 -0.0371
 1123YOPC   NC315623   1.494   3.470   5.411 -0.0100 -0.1590 -0.1490
 1123YOPC   PO415624   1.758   3.887   5.486  0.3964  0.1769 -0.0084
 1123YOPC   GL115625   1.525   3.965   5.815  0.0677 -0.3882 -0.1963
 1123YOPC   GL215626   1.219   4.173   5.852 -0.0281  0.1982 -0.3037
 1123YOPC   C1A15627   1.562   4.148   6.248 -0.5583 -0.0631 -0.2396
 1123YOPC   D2A15628   1.264   4.494   6.279 -0.0035  0.2436  0.1217
 1123YOPC   C3A15629   0.889   4.339   6.491 -0.3896  0.0836  0.1047
 1123YOPC   C4A15630   0.531   4.408   6.788  0.0697  0.2461  0.0085
 1123YOPC   C1B15631   0.877   4.375   6.003 -0.0486 -0.1950  0.0363
 1123YOPC   C2B15632   0.594   4.602   6.194 -0.1923 -0.2034 -0.0845
 1123YOPC   D3B15633   0.158   4.694   6.118  0.4277  0.0845 -0.1119
 1123YOPC   C4B15634  -0.234   4.701   6.059  0.0582  0.1791  0.1946
 1124YOPC   NC315635   8.265  12.912   5.945 -0.0368 -0.3265 -0.2572
 1124YOPC   PO415636   8.443  13.270   6.125 -0.2863  0.2680 -0.1040
 1124YOPC   GL115637   8.354  13.220   6.576  0.0937 -0.0159 -0.0827
 1124YOPC   GL215638   8.133  12.986   6.612 -0.1572  0.1040 -0.4403
 1124YOPC   C1A15639   8.212  13.375   6.904  0.0611  0.2059  0.0193
 1124YOPC   D2A15640   8.180  13.522   7.224  0.0362 -0.0229  0.0352
 1124YOPC   C3A15641   8.014  13.422   7.553 -0.0977  0.2833 -0.3293
 1124YOPC   C4A15642   7.561  13.627   7.696 -0.2862  0.1491 -0.0163
 1124YOPC   C1B15643   8.328  12.736   7.036  0.1220  0.0330  0.3665
 1124YOPC   C2B15644   8.369  12.628   7.480 -0.1505 -0.1557 -0.3211
 1124YOPC   D3B15645   8.290  12.994   7.745  0.2133  0.0898 -0.1369
 1124YOPC   C4B15646   8.321  13.064   8.184  0.1497  0.0158 -0.0234
 1125YOPC   NC315647   9.123  12.774   6.130 -0.1698  0.0875  0.0828
 1125YOPC   PO415648   9.312  13.289   6.186 -0.0643 -0.2687  0.0951
 1125YOPC   GL115649   9.350  13.442   6.597  0.1202 -0.0355 -0.0711
 1125YOPC   GL215650   9.484  13.692   6.724  0.1582  0.3137  0.0883
 1125YOPC   C1A15651   9.334  13.312   7.034 -0.0220 -0.1959  0.0133
 1125YOPC   D2A15652   9.228  12.973   7.315  0.0098 -0.2229 -0.1134
 1125YOPC   C3A15653   9.317  12.819   7.596 -0.0810 -0.2359 -0.1699
 1125YOPC   C4A15654   9.355  12.345   7.657  0.0381 -0.0152  0.0080
 1125YOPC   C1B15655   9.637  13.762   7.041  0.0153  0.0206 -0.3881
 1125YOPC   C2B15656   9.879  13.992   7.283 -0.0093 -0.0476  0.3029
 1125YOPC   D3B15657   9.946  14.053   7.597 -0.0541  0.2271  0.1173
 1125YOPC   C4B15658  10.336  14.335   7.674 -0.2382 -0.0284 -0.1928
 1126YOPC   NC315659   4.479   4.284   5.629  0.2813 -0.0672  0.1476
 1126YOPC   PO415660   4.012   4.111   5.836 -0.5081 -0.2143  0.0814
 1126YOPC   GL115661   3.765   4.168   6.235 -0.0553  0.1662  0.1064
 1126YOPC   GL215662   3.484   3.912   6.289 -0.3030  0.1589  0.0993
 1126YOPC   C1A15663   3.656   4.404   6.544  0.0797 -0.0491 -0.0677
 1126YOPC   D2A15664   3.319   4.447   6.771  0.0417  0.2196  0.1542
 1126YOPC   C3A15665   2.932   4.719   6.746 -0.0622 -0.4025  0.2574
 1126YOPC   C4A15666   2.626   5.055   6.916 -0.3458  0.2453  0.0230
 1126YOPC   C1B15667   3.393   3.788   6.659 -0.0847  0.1678 -0.0927
 1126YOPC   C2B15668   3.419   3.926   7.054 -0.1101 -0.1768 -0.4250
 1126YOPC   D3B15669   3.745   3.727   7.321  0.0365  0.1226 -0.2035
 1126YOPC   C4B15670   4.074   3.647   7.619  0.1650  0.0706 -0.0959
 1127YOPC   NC315671  15.514   1.711   5.161  0.0164 -0.0296 -0.1716
 1127YOPC   PO415672  15.636   1.831   5.573  0.0927  0.1587  0.0918
 1127YOPC   GL115673  15.669   1.820   6.032 -0.0305  0.1249 -0.1148
 1127YOPC   GL215674  15.943   1.747   6.321 -0.1670  0.3102  0.2240
 1127YOPC   C1A15675  15.484   1.759   6.407  0.0024  0.0591 -0.0219
 1127YOPC   D2A15676  15.428   1.825   6.871 -0.5368  0.0677 -0.0599
 1127YOPC   C3A15677  15.528   2.194   7.095 -0.1073 -0.2885 -0.3153
 1127YOPC   C4A15678  15.549   2.429   7.380  0.0998 -0.0539 -0.4038
 1127YOPC   C1B15679  16.240   2.099   6.490 -0.0899  0.2062  0.2089
 1127YOPC   C2B15680  16.344   2.465   6.724  0.0403  0.0054  0.1118
 1127YOPC   D3B15681  16.605   2.481   7.126 -0.0619 -0.1268 -0.1368
 1127YOPC   C4B15682  16.624   2.752   7.435 -0.1669 -0.2150 -0.0827
 1128YOPC   NC315683  18.150  16.684   5.475  0.2817  0.0919 -0.0707
 1128YOPC   PO415684  17.918  17.084   5.569  0.1331 -0.0583 -0.2398
 1128YOPC   GL115685  17.990  17.231   6.089  0.0681 -0.0844 -0.2882
 1128YOPC   GL215686  17.891  17.494   6.156 -0.1448  0.3183 -0.1370
 1128YOPC   C1A15687  17.995  17.101   6.507 -0.1266  0.0663 -0.2469
 1128YOPC   D2A15688  18.008  17.419   6.936 -0.1575 -0.0015  0.0237
 1128YOPC   C3A15689  17.686  17.420   7.293  0.0680  0.1171 -0.3853
 1128YOPC   C4A15690  17.549  16.999   7.441  0.1213  0.0366 -0.2830
 1128YOPC   C1B15691  17.838  17.697   6.597  0.0273 -0.1165  0.1825
 1128YOPC   C2B15692  17.552  17.710   6.918  0.0086 -0.0418  0.3339
 1128YOPC   D3B15693  17.531  17.887   7.419 -0.1092  0.0198 -0.3294
 1128YOPC   C4B15694  17.694  18.117   7.712 -0.0297 -0.1661 -0.0240
 1129YOPC   NC315695  17.858  12.968   5.644 -0.0007  0.0510 -0.0723
 1129YOPC   PO415696  17.430  13.271   5.632 -0.0385 -0.5257  0.0537
 1129YOPC   GL115697  17.512  13.015   6.036 -0.1462 -0.1343  0.0979
 1129YOPC   GL215698  17.488  12.653   6.180 -0.1886  0.1808 -0.0118
 1129YOPC   C1A15699  17.846  13.112   6.330  0.0326 -0.1221  0.0833
 1129YOPC   D2A15700  18.182  13.051   6.555  0.3023  0.1571 -0.0421
 1129YOPC   C3A15701  18.506  13.212   6.318 -0.0273  0.2791 -0.1246
 1129YOPC   C4A15702  18.547  13.452   6.024  0.1701 -0.1717 -0.3530
 1129YOPC   C1B15703  17.315  12.835   6.598 -0.2139  0.1939 -0.0498
 1129YOPC   C2B15704  17.270  13.018   7.092 -0.1544  0.2727  0.1208
 1129YOPC   D3B15705  16.988  13.016   7.483 -0.0958 -0.1547 -0.0714
 1129YOPC   C4B15706  16.838  12.742   7.711 -0.0484  0.1356  0.1447
 1130YOPC   NC315707  10.232   9.264   5.522 -0.0658  0.2344  0.1300
 1130YOPC   PO415708  10.281   8.903   5.805 -0.2311 -0.0284  0.1856
 1130YOPC   GL115709  10.301   8.912   6.257 -0.3200 -0.0151  0.0289
 1130YOPC   GL215710  10.341   9.153   6.397  0.1211  0.4457  0.0541
 1130YOPC   C1A15711  10.398   8.701   6.660 -0.0902  0.1255 -0.1505
 1130YOPC   D2A15712  10.347   8.661   7.049 -0.0457 -0.0450  0.0952
 1130YOPC   C3A15713   9.986   8.826   7.370  0.0019 -0.0297 -0.0380
 1130YOPC   C4A15714   9.748   8.938   7.696 -0.0246 -0.3389 -0.1682
 1130YOPC   C1B15715  10.461   9.159   6.878  0.1154  0.6285 -0.0886
 1130YOPC   C2B15716  10.773   9.276   7.054  0.2401  0.0157  0.1191
 1130YOPC   D3B15717  10.887   9.193   7.425 -0.4350 -0.1403 -0.0315
 1130YOPC   C4B15718  11.161   9.025   7.558 -0.1999  0.0398 -0.1407
 1131YOPC   NC315719   8.680  11.030   6.010 -0.3113 -0.2749  0.2605
 1131YOPC   PO415720   8.544  10.577   5.945  0.1425 -0.0459 -0.1686
 1131YOPC   GL115721   8.804  10.677   6.331 -0.1964  0.1888  0.2655
 1131YOPC   GL215722   9.126  10.513   6.364  0.2833 -0.2195 -0.1903
 1131YOPC   C1A15723   8.953  10.780   6.765  0.2757  0.0177 -0.0686
 1131YOPC   D2A15724   8.904  10.963   7.226  0.0390  0.0524  0.2383
 1131YOPC   C3A15725   8.475  10.998   7.424  0.0635 -0.1159 -0.2304
 1131YOPC   C4A15726   8.352  10.785   7.768  0.4380 -0.0489  0.2169
 1131YOPC   C1B15727   9.129  10.325   6.805 -0.1220 -0.0923  0.3847
 1131YOPC   C2B15728   9.028  10.422   7.251  0.1118 -0.1246 -0.3491
 1131YOPC   D3B15729   8.676  10.498   7.485 -0.1936 -0.0261  0.1237
 1131YOPC   C4B15730   8.271  10.323   7.575  0.0689  0.3244 -0.0020
 1132YOPC   NC315731   5.549   7.717   5.640  0.2429  0.0496  0.1508
 1132YOPC   PO415732   5.625   8.148   5.532  0.0894  0.5136  0.0394
 1132YOPC   GL115733   5.786   8.254   5.951  0.0605 -0.1215 -0.2988
 1132YOPC   GL215734   5.911   8.077   6.103 -0.0702 -0.2839  0.2005
 1132YOPC   C1A15735   5.850   8.495   6.374  0.0358 -0.2260  0.3853
 1132YOPC   D2A15736   5.742   8.630   6.779  0.0009 -0.1956 -0.0481
 1132YOPC   C3A15737   5.625   8.413   7.236  0.1428  0.1533  0.0523
 1132YOPC   C4A15738   5.756   8.183   7.648 -0.0847 -0.1655  0.0256
 1132YOPC   C1B15739   5.673   7.910   6.439 -0.2554  0.0246  0.2108
 1132YOPC   C2B15740   5.426   7.773   6.875 -0.2637  0.2159 -0.4066
 1132YOPC   D3B15741   5.475   7.905   7.267  0.0231  0.0524 -0.1278
 1132YOPC   C4B15742   5.644   7.698   7.644 -0.3945 -0.3571 -0.2976
 1133YOPC   NC315743  10.679   2.963   5.545 -0.0395 -0.0517  0.2643
 1133YOPC   PO415744  10.881   3.364   5.739 -0.0532  0.2262  0.2373
 1133YOPC   GL115745  11.118   3.475   5.996  0.1957  0.0708 -0.2015
 1133YOPC   GL215746  10.945   3.716   6.096 -0.0475  0.1747  0.0172
 1133YOPC   C1A15747  11.153   3.263   6.413 -0.1873  0.0665 -0.1024
 1133YOPC   D2A15748  11.052   3.146   6.863  0.0653  0.1831  0.0193
 1133YOPC   C3A15749  10.667   3.133   7.016 -0.0338  0.1999  0.0808
 1133YOPC   C4A15750  10.414   3.017   6.677 -0.1477 -0.0469  0.0634
 1133YOPC   C1B15751  11.040   3.730   6.500  0.0329 -0.1497  0.2702
 1133YOPC   C2B15752  11.045   4.025   6.709 -0.2305 -0.3551 -0.1182
 1133YOPC   D3B15753  10.903   3.953   7.160 -0.1463  0.0456 -0.0067
 1133YOPC   C4B15754  10.720   4.146   7.504  0.2466  0.1932  0.1482
 1134YOPC   NC315755  18.160   0.613   5.668  0.0114  0.2086 -0.1155
 1134YOPC   PO415756  18.482   0.424   5.753  0.2346  0.1404  0.3800
 1134YOPC   GL115757  18.892   0.641   6.106 -0.0307 -0.1533  0.0276
 1134YOPC   GL215758  18.953   0.915   6.249  0.0327  0.1525 -0.2794
 1134YOPC   C1A15759  19.242   0.533   6.397 -0.2244  0.2712  0.0499
 1134YOPC   D2A15760  19.397   0.523   6.908  0.0022 -0.3372 -0.0043
 1134YOPC   C3A15761  19.517   0.685   7.233 -0.0413  0.0363  0.0250
 1134YOPC   C4A15762  19.439   0.629   7.698  0.1154 -0.1138  0.0717
 1134YOPC   C1B15763  18.947   0.909   6.635 -0.0335  0.0935 -0.1581
 1134YOPC   C2B15764  18.887   0.785   6.993 -0.0115  0.1105  0.1275
 1134YOPC   D3B15765  19.146   1.026   7.302  0.1161 -0.1892 -0.0051
 1134YOPC   C4B15766  19.115   1.024   7.755 -0.0291  0.0799 -0.1545
 1135YOPC   NC315767   8.933   9.149   5.848 -0.1399  0.0261 -0.2634
 1135YOPC   PO415768   9.233   9.437   5.919 -0.3886  0.2563 -0.0939
 1135YOPC   GL115769   9.341   9.147   6.194 -0.0657 -0.0274 -0.1343
 1135YOPC   GL215770   9.571   9.391   6.352 -0.1277  0.1657  0.0603
 1135YOPC   C1A15771   9.288   8.813   6.515  0.2251  0.2767  0.0970
 1135YOPC   D2A15772   9.599   8.582   6.795 -0.0334  0.2987  0.1258
 1135YOPC   C3A15773   9.608   8.524   7.238  0.0667 -0.1352  0.0119
 1135YOPC   C4A15774   9.603   8.431   7.623 -0.0980 -0.0239  0.1996
 1135YOPC   C1B15775   9.494   9.215   6.738 -0.2169  0.1264 -0.1052
 1135YOPC   C2B15776   9.508   9.143   7.195  0.0345  0.3516  0.0582
 1135YOPC   D3B15777   9.327   9.229   7.474 -0.1501  0.0816 -0.0511
 1135YOPC   C4B15778   9.323   9.344   7.892 -0.1652  0.1520 -0.2788
 1136YOPC   NC315779  16.146   7.331   6.006 -0.0858  0.1145  0.0385
 1136YOPC   PO415780  16.504   7.503   5.952 -0.0827  0.1927 -0.0092
 1136YOPC   GL115781  16.637   7.652   6.319 -0.3380  0.0190  0.1351
 1136YOPC   GL215782  16.331   7.551   6.457  0.1315 -0.1188  0.0759
 1136YOPC   C1A15783  16.848   8.069   6.465 -0.0985  0.0698  0.0434
 1136YOPC   D2A15784  16.939   8.180   6.856 -0.2385 -0.1360  0.1328
 1136YOPC   C3A15785  16.782   8.041   7.170  0.0518  0.2975  0.0702
 1136YOPC   C4A15786  16.233   8.080   7.230  0.4773 -0.1878 -0.2403
 1136YOPC   C1B15787  16.089   7.453   6.786  0.1378 -0.0408 -0.1257
 1136YOPC   C2B15788  16.180   7.543   7.221 -0.1967 -0.2076  0.2209
 1136YOPC   D3B15789  16.537   7.680   7.537  0.1640 -0.3306 -0.0365
 1136YOPC   C4B15790  16.798   7.914   7.736 -0.1437  0.0613  0.0532
 1137YOPC   NC315791   6.781   7.323   5.671 -0.1166  0.0050  0.2570
 1137YOPC   PO415792   6.429   7.215   5.764  0.1435  0.0920 -0.2118
 1137YOPC   GL115793   6.499   7.092   6.110 -0.1209  0.1329  0.2656
 1137YOPC   GL215794   6.333   6.812   6.103 -0.0178  0.0172  0.1455
 1137YOPC   C1A15795   6.599   7.210   6.429  0.2881  0.0097  0.0379
 1137YOPC   D2A15796   6.323   7.231   6.796 -0.0423 -0.0318 -0.0919
 1137YOPC   C3A15797   6.453   7.071   7.258  0.0284  0.0696  0.0471
 1137YOPC   C4A15798   6.650   6.823   7.566 -0.0837 -0.1502 -0.0494
 1137YOPC   C1B15799   6.146   6.769   6.466  0.1915  0.1604 -0.0821
 1137YOPC   C2B15800   6.146   6.717   6.857  0.2729 -0.1280 -0.2033
 1137YOPC   D3B15801   6.365   6.547   7.214  0.2062  0.2269 -0.1776
 1137YOPC   C4B15802   6.444   6.108   7.280  0.0927  0.1951  0.0500
 1138YOPC   NC315803   6.712   0.895   5.734  0.4253 -0.0789 -0.0307
 1138YOPC   PO415804   6.665   1.288   5.761 -0.2981  0.3159 -0.1776
 1138YOPC   GL115805   7.109   1.257   5.905 -0.2357 -0.1035  0.0626
 1138YOPC   GL215806   7.321   0.990   5.817  0.0329 -0.0868 -0.2923
 1138YOPC   C1A15807   7.217   1.346   6.440  0.2308  0.2072  0.1699
 1138YOPC   D2A15808   7.494   1.306   6.803 -0.0753 -0.0397  0.0153
 1138YOPC   C3A15809   7.355   1.392   7.263 -0.0586  0.1267  0.0288
 1138YOPC   C4A15810   7.389   1.414   7.661  0.0791  0.0069 -0.2576
 1138YOPC   C1B15811   7.462   0.921   6.258 -0.2791 -0.0547 -0.0594
 1138YOPC   C2B15812   7.637   0.754   6.679  0.2610  0.2220 -0.0256
 1138YOPC   D3B15813   7.539   0.350   6.931 -0.0073 -0.1076  0.2662
 1138YOPC   C4B15814   7.419  -0.065   6.793 -0.0390 -0.1169 -0.0069
 1139YOPC   NC315815   8.780   6.965   5.430  0.0369  0.2372 -0.2453
 1139YOPC   PO415816   9.188   7.215   5.652 -0.0013  0.2414 -0.0151
 1139YOPC   GL115817   8.957   7.296   6.015  0.0151 -0.3757  0.0785
 1139YOPC   GL215818   9.178   6.986   6.119 -0.1243 -0.3205 -0.0908
 1139YOPC   C1A15819   8.730   7.161   6.406 -0.0287  0.1963  0.1223
 1139YOPC   D2A15820   8.842   7.085   6.877  0.0581  0.1043  0.1636
 1139YOPC   C3A15821   8.921   6.691   7.257  0.0247 -0.0205 -0.1448
 1139YOPC   C4A15822   8.585   6.654   7.542  0.0822  0.1036 -0.0619
 1139YOPC   C1B15823   9.240   7.217   6.506 -0.0111 -0.1454 -0.1417
 1139YOPC   C2B15824   9.337   7.277   6.873 -0.0887  0.0198  0.0663
 1139YOPC   D3B15825   9.118   7.230   7.238 -0.1250  0.2298 -0.2395
 1139YOPC   C4B15826   8.738   7.193   7.419  0.0241 -0.0075 -0.0789
 1140YOPC   NC315827   7.744  15.628   5.905  0.1064 -0.2870 -0.0201
 1140YOPC   PO415828   7.389  15.945   6.014 -0.1138 -0.0243  0.0661
 1140YOPC   GL115829   7.496  15.874   6.418  0.0903  0.1263 -0.0787
 1140YOPC   GL215830   7.810  16.028   6.400  0.0336  0.4806 -0.3584
 1140YOPC   C1A15831   7.422  15.990   6.886  0.1045 -0.5542  0.0682
 1140YOPC   D2A15832   7.381  16.283   7.119  0.0776 -0.0247  0.0122
 1140YOPC   C3A15833   7.694  16.276   7.474 -0.1167 -0.1677  0.0535
 1140YOPC   C4A15834   7.832  16.340   7.857 -0.0127  0.1198 -0.0189
 1140YOPC   C1B15835   7.909  15.826   6.807  0.0332 -0.1632  0.2217
 1140YOPC   C2B15836   7.844  15.824   7.278  0.2352 -0.0093  0.0710
 1140YOPC   D3B15837   7.700  15.491   7.487  0.2198  0.0553 -0.1951
 1140YOPC   C4B15838   7.418  15.383   7.841 -0.0941  0.4416 -0.1910
 1141YOPC   NC315839   2.520   0.368   5.820 -0.2985 -0.2081 -0.3009
 1141YOPC   PO415840   2.292   0.006   5.983  0.0499 -0.1162 -0.2030
 1141YOPC   GL115841   2.581  -0.163   6.279 -0.0297 -0.0062  0.1274
 1141YOPC   GL215842   2.758  -0.390   6.209 -0.0072 -0.3665 -0.1416
 1141YOPC   C1A15843   3.056  -0.204   6.581 -0.0806  0.0221  0.3505
 1141YOPC   D2A15844   3.115  -0.361   7.019  0.2876 -0.2025 -0.1399
 1141YOPC   C3A15845   2.900  -0.650   7.192 -0.2830  0.1827 -0.0793
 1141YOPC   C4A15846   2.578  -0.649   7.525 -0.1414 -0.0922 -0.1570
 1141YOPC   C1B15847   2.654  -0.796   6.267 -0.3403 -0.0397  0.2480
 1141YOPC   C2B15848   2.879  -1.149   6.599 -0.0984 -0.1364 -0.2704
 1141YOPC   D3B15849   3.122  -1.113   7.043  0.0546 -0.1534  0.1331
 1141YOPC   C4B15850   3.380  -0.770   7.163 -0.0200 -0.1786 -0.0418
 1142YOPC   NC315851  13.133  11.183   5.864  0.2811  0.1277  0.1024
 1142YOPC   PO415852  12.987  11.688   5.871  0.0451 -0.0315 -0.1703
 1142YOPC   GL115853  12.799  11.640   6.235  0.0044 -0.0922 -0.0927
 1142YOPC   GL215854  13.053  11.464   6.306 -0.0795  0.0931 -0.2807
 1142YOPC   C1A15855  12.512  11.917   6.584  0.1708  0.3983  0.4242
 1142YOPC   D2A15856  12.575  12.307   6.529 -0.1200  0.2256  0.0441
 1142YOPC   C3A15857  12.556  12.452   6.835  0.1876 -0.0239  0.1497
 1142YOPC   C4A15858  12.554  12.482   7.332  0.0811 -0.1023 -0.2782
 1142YOPC   C1B15859  12.918  11.554   6.741  0.0406 -0.0977  0.2851
 1142YOPC   C2B15860  13.048  11.367   7.098 -0.0861 -0.0563 -0.3095
 1142YOPC   D3B15861  13.143  11.469   7.537 -0.1910  0.0631  0.0599
 1142YOPC   C4B15862  13.502  11.298   7.714 -0.0570  0.0470  0.0889
 1143ERGO   ROH15863   3.763   3.441   6.402 -0.3728 -0.0040  0.0605
 1143ERGO    R115864   3.926   3.600   6.572 -0.1168 -0.3148  0.1147
 1143ERGO    R215865   3.885   3.871   6.606  0.4653 -0.1983  0.0098
 1143ERGO    R315866   3.878   3.803   6.869  0.1462 -0.1190  0.0250
 1143ERGO    R415867   3.945   4.088   6.869  0.2854 -0.1626  0.0232
 1143ERGO    R515868   4.055   3.929   6.969  0.0969 -0.1844  0.1874
 1143ERGO    C115869   3.973   4.149   7.269 -0.1190 -0.0673  0.0452
 1143ERGO    C215870   3.824   4.266   7.518  0.1026  0.1946  0.3137
 1144ERGO   ROH15871   8.135  12.265   6.659 -0.0082 -0.1332  0.0060
 1144ERGO    R115872   8.052  12.382   6.903  0.0791  0.0595 -0.0556
 1144ERGO    R215873   7.847  12.278   7.056  0.0052  0.2911  0.0036
 1144ERGO    R315874   8.035  12.282   7.253  0.0089  0.2609  0.0009
 1144ERGO    R415875   7.782  12.237   7.393  0.0179  0.1443 -0.0113
 1144ERGO    R515876   7.929  12.393   7.436 -0.0175  0.1654  0.0462
 1144ERGO    C115877   7.921  12.216   7.774  0.0287  0.0306 -0.0225
 1144ERGO    C215878   7.935  12.208   8.067  0.0565 -0.1427 -0.1999
 1145ERGO   ROH15879  11.569  11.447   8.624  0.1298  0.1441  0.1381
 1145ERGO    R115880  11.492  11.222   8.778 -0.0564  0.1402  0.0421
 1145ERGO    R215881  11.620  11.152   9.013 -0.0626 -0.1105 -0.0286
 1145ERGO    R315882  11.369  11.163   9.115 -0.0266  0.0905  0.0451
 1145ERGO    R415883  11.540  11.108   9.346 -0.0105 -0.1983 -0.0269
 1145ERGO    R515884  11.366  10.993   9.284 -0.1462  0.0048 -0.0389
 1145ERGO    C115885  11.257  11.093   9.636  0.0537 -0.0606  0.0432
 1145ERGO    C215886  11.023  11.183   9.866  0.0644 -0.2013  0.0857
 1146ERGO   ROH15887   9.087   8.370   6.125  0.2657  0.0005  0.0046
 1146ERGO    R115888   9.057   8.256   6.383  0.3012 -0.0542 -0.0157
 1146ERGO    R215889   9.271   8.219   6.554  0.2840  0.1678  0.0552
 1146ERGO    R315890   9.115   8.360   6.726  0.0652 -0.0173  0.0147
 1146ERGO    R415891   9.254   8.165   6.895  0.3114  0.1912  0.0604
 1146ERGO    R515892   9.039   8.198   6.885  0.2638 -0.1025  0.0263
 1146ERGO    C115893   9.099   8.267   7.256  0.1220  0.0310  0.0255
 1146ERGO    C215894   8.968   8.259   7.684 -0.2798  0.1889 -0.0126
 1147ERGO   ROH15895  15.240  14.358   6.033  0.0526 -0.0378 -0.1294
 1147ERGO    R115896  14.982  14.325   6.144  0.0751 -0.0308 -0.0748
 1147ERGO    R215897  14.940  14.216   6.394  0.1228 -0.0701 -0.0835
 1147ERGO    R315898  14.802  14.446   6.437  0.1563 -0.0628 -0.0118
 1147ERGO    R415899  14.718  14.267   6.654  0.0165 -0.1672 -0.1541
 1147ERGO    R515900  14.587  14.373   6.514  0.1041 -0.0568 -0.1513
 1147ERGO    C115901  14.459  14.513   6.845 -0.0140 -0.2168 -0.1279
 1147ERGO    C215902  14.097  14.407   7.152 -0.0224  0.0325 -0.0285
 1148ERGO   ROH15903   9.241   9.891   6.257 -0.2719 -0.0366  0.1043
 1148ERGO    R115904   9.413   9.822   6.470 -0.1362  0.2162  0.0804
 1148ERGO    R215905   9.467   9.993   6.680 -0.4470  0.2588  0.1279
 1148ERGO    R315906   9.385   9.782   6.831 -0.0593  0.0581  0.0705
 1148ERGO    R415907   9.614   9.892   6.976 -0.1511  0.3417  0.0125
 1148ERGO    R515908   9.588   9.686   6.913  0.1329  0.3247 -0.0708
 1148ERGO    C115909   9.623   9.636   7.290  0.3852  0.2017 -0.1087
 1148ERGO    C215910   9.640   9.740   7.548 -0.1484  0.0053  0.0446
 1149ERGO   ROH15911   1.024   0.012   6.133  0.1401  0.2229 -0.1109
 1149ERGO    R115912   1.147   0.048   6.386  0.1162  0.2020 -0.0956
 1149ERGO    R215913   1.008   0.136   6.608  0.0827  0.1359 -0.0868
 1149ERGO    R315914   1.108  -0.089   6.721  0.1187  0.1339 -0.1239
 1149ERGO    R415915   1.003   0.065   6.946  0.0276  0.0404 -0.1077
 1149ERGO    R515916   1.205  -0.015   6.927  0.0514  0.1018 -0.0833
 1149ERGO    C115917   1.095  -0.188   7.249  0.0292 -0.0169 -0.1547
 1149ERGO    C215918   1.009  -0.339   7.539 -0.3366  0.1376 -0.1672
 1150ERGO   ROH15919   5.099  11.125   6.050 -0.0961  0.1088 -0.1298
 1150ERGO    R115920   5.128  11.157   6.330 -0.3364  0.0043 -0.0897
 1150ERGO    R215921   4.967  11.025   6.513 -0.0689 -0.5970 -0.2596
 1150ERGO    R315922   5.206  10.943   6.613  0.1341  0.0163 -0.2035
 1150ERGO    R415923   5.056  11.038   6.846 -0.1145 -0.2504 -0.2579
 1150ERGO    R515924   5.255  11.102   6.786 -0.2558  0.2097 -0.2630
 1150ERGO    C115925   5.331  10.969   7.135  0.0495  0.5272 -0.2042
 1150ERGO    C215926   5.406  11.014   7.396 -0.0899  0.1294 -0.1028
 1151ERGO   ROH15927   5.657  16.205   6.539 -0.0534  0.0114 -0.0314
 1151ERGO    R115928   5.701  16.108   6.801  0.0355  0.0519 -0.0313
 1151ERGO    R215929   5.789  16.270   7.007 -0.0532  0.1194 -0.0475
 1151ERGO    R315930   5.568  16.173   7.133  0.0217 -0.0225 -0.0221
 1151ERGO    R415931   5.707  16.330   7.338 -0.2282  0.3511 -0.1295
 1151ERGO    R515932   5.643  16.122   7.354  0.0160  0.2864  0.0549
 1151ERGO    C115933   5.452  16.274   7.648 -0.2599  0.3527 -0.1534
 1151ERGO    C215934   5.348  16.501   7.729 -0.1837  0.1265  0.0291
 1152ERGO   ROH15935  18.260   1.948   5.777 -0.1433 -0.1676  0.1753
 1152ERGO    R115936  18.193   2.192   5.905  0.2307 -0.0403  0.1443
 1152ERGO    R215937  17.947   2.235   6.023  0.0926  0.5319 -0.2908
 1152ERGO    R315938  18.098   2.296   6.240 -0.1320  0.0472  0.0170
 1152ERGO    R415939  17.843   2.432   6.288  0.0628  0.5283 -0.3013
 1152ERGO    R515940  18.041   2.523   6.291  0.2501  0.1264  0.1016
 1152ERGO    C115941  17.925   2.604   6.645 -0.1651  0.0712 -0.0184
 1152ERGO    C215942  17.829   2.515   6.894  0.0320 -0.0902 -0.1014
 1153ERGO   ROH15943  12.254  15.553   6.359  0.0429 -0.2447 -0.1597
 1153ERGO    R115944  12.138  15.425   6.582  0.1353 -0.3690 -0.1801
 1153ERGO    R215945  12.241  15.193   6.692  0.4777 -0.1686 -0.0414
 1153ERGO    R315946  12.240  15.339   6.921  0.1058 -0.0755 -0.0969
 1153ERGO    R415947  12.303  15.067   7.007  0.6047  0.0906  0.0387
 1153ERGO    R515948  12.144  15.193   7.084  0.3298 -0.1907 -0.0753
 1153ERGO    C115949  12.339  15.131   7.406  0.3297  0.3290  0.0333
 1153ERGO    C215950  12.585  15.010   7.676 -0.1056 -0.1071  0.0284
 1154ERGO   ROH15951   8.651  14.761   6.611 -0.0213  0.1167 -0.0226
 1154ERGO    R115952   8.764  14.918   6.817  0.0287 -0.0043  0.0439
 1154ERGO    R215953   8.629  15.127   6.937  0.1859  0.1582 -0.0479
 1154ERGO    R315954   8.689  14.992   7.166 -0.1110  0.0903 -0.0066
 1154ERGO    R415955   8.628  15.265   7.254  0.2351  0.1834 -0.0591
 1154ERGO    R515956   8.808  15.151   7.299  0.0537 -0.0695  0.0356
 1154ERGO    C115957   8.683  15.219   7.653 -0.0150  0.1343 -0.0269
 1154ERGO    C215958   8.646  15.433   8.020  0.4646  0.3252 -0.1577
 1155ERGO   ROH15959  12.432   3.770   6.326  0.1644 -0.1157  0.0222
 1155ERGO    R115960  12.338   3.780   6.592  0.0553 -0.1179 -0.0156
 1155ERGO    R215961  12.449   3.946   6.784  0.0681 -0.2188  0.0677
 1155ERGO    R315962  12.192   4.031   6.812  0.1029 -0.0804 -0.0276
 1155ERGO    R415963  12.299   4.028   7.084 -0.0039 -0.1428  0.0111
 1155ERGO    R515964  12.117   3.930   7.015 -0.0301 -0.0426 -0.0586
 1155ERGO    C115965  11.970   4.156   7.285 -0.0129  0.0314 -0.1115
 1155ERGO    C215966  11.874   4.107   7.604  0.0265  0.1709 -0.0845
 1156ERGO   ROH15967   8.170   8.434   6.120 -0.0121  0.1414  0.0557
 1156ERGO    R115968   8.055   8.369   6.371  0.0223 -0.0274  0.0295
 1156ERGO    R215969   8.157   8.172   6.536  0.1704  0.0010 -0.0237
 1156ERGO    R315970   8.161   8.372   6.718 -0.0008 -0.0485  0.0358
 1156ERGO    R415971   8.093   8.134   6.873  0.1853 -0.1432 -0.0360
 1156ERGO    R515972   7.982   8.321   6.868  0.0355 -0.2331  0.0146
 1156ERGO    C115973   8.059   8.302   7.241  0.0334 -0.2739  0.0128
 1156ERGO    C215974   8.037   8.174   7.491  0.1000  0.1535 -0.2056
 1157ERGO   ROH15975   1.128  16.887   5.907  0.2065 -0.0197  0.0186
 1157ERGO    R115976   0.996  16.769   6.129  0.0910 -0.0293 -0.0531
 1157ERGO    R215977   1.025  16.503   6.194  0.0288 -0.0444 -0.0684
 1157ERGO    R315978   1.095  16.603   6.437 -0.0662 -0.0759 -0.0287
 1157ERGO    R415979   1.051  16.317   6.485  0.1854 -0.1263 -0.1342
 1157ERGO    R515980   0.959  16.482   6.593  0.0389 -0.2510 -0.0756
 1157ERGO    C115981   1.132  16.303   6.882  0.1874 -0.2033 -0.1352
 1157ERGO    C215982   1.072  16.116   7.087 -0.0792  0.0076  0.3044
 1158ERGO   ROH15983   0.012  18.164   6.202  0.1162 -0.3546  0.0725
 1158ERGO    R115984   0.123  18.152   6.462  0.0609 -0.2946  0.1005
 1158ERGO    R215985   0.166  18.377   6.616  0.2464 -0.2293 -0.0291
 1158ERGO    R315986   0.017  18.242   6.799  0.0806  0.0196  0.0230
 1158ERGO    R415987   0.153  18.451   6.953  0.0332  0.1279 -0.1111
 1158ERGO    R515988   0.155  18.237   6.995 -0.0647  0.1805  0.1227
 1158ERGO    C115989   0.006  18.367   7.321 -0.2469  0.5698 -0.1098
 1158ERGO    C215990  -0.323  18.376   7.481 -0.1262 -0.2833 -0.3567
 1159ERGO   ROH15991   5.379   6.783   5.871  0.1323  0.0152  0.0388
 1159ERGO    R115992   5.451   6.726   6.138  0.1599 -0.0093  0.0268
 1159ERGO    R215993   5.655   6.858   6.270  0.0730  0.0893  0.0640
 1159ERGO    R315994   5.461   6.906   6.454  0.0320 -0.0805  0.0746
 1159ERGO    R415995   5.695   6.824   6.611  0.1289  0.1346  0.0620
 1159ERGO    R515996   5.495   6.738   6.621  0.1993 -0.0524  0.0767
 1159ERGO    C115997   5.537   6.849   6.983  0.1229  0.0016  0.0708
 1159ERGO    C215998   5.819   6.775   7.217  0.0931 -0.0148 -0.0539
 1160ERGO   ROH15999  10.453  10.160   6.385  0.2786  0.1467 -0.2365
 1160ERGO    R116000  10.592  10.157   6.631  0.1159  0.0907 -0.1452
 1160ERGO    R216001  10.532  10.329   6.839 -0.0185  0.0418 -0.1518
 1160ERGO    R316002  10.510  10.098   6.981 -0.1116  0.0138 -0.2081
 1160ERGO    R416003  10.513  10.309   7.184 -0.0146 -0.0228 -0.1542
 1160ERGO    R516004  10.643  10.135   7.176 -0.0837 -0.0824 -0.2017
 1160ERGO    C116005  10.482  10.081   7.517 -0.0999 -0.0867 -0.2085
 1160ERGO    C216006  10.423   9.996   7.749  0.2290 -0.0622 -0.1381
 1161ERGO   ROH16007   7.512  13.349   5.979 -0.2196 -0.0079 -0.0831
 1161ERGO    R116008   7.492  13.273   6.251 -0.1190  0.1376 -0.0344
 1161ERGO    R216009   7.267  13.323   6.403 -0.1925 -0.0735 -0.0728
 1161ERGO    R316010   7.279  13.055   6.450  0.1751 -0.0328  0.1004
 1161ERGO    R416011   7.155  13.168   6.691 -0.2186 -0.0659 -0.0783
 1161ERGO    R516012   7.331  13.038   6.683 -0.0077  0.1922  0.1614
 1161ERGO    C116013   7.102  12.826   6.903  0.1112 -0.0234  0.0810
 1161ERGO    C216014   6.809  12.663   7.099  0.2553  0.0851  0.2577
 1162ERGO   ROH16015   6.626   2.817   6.581 -0.1331  0.0783  0.0646
 1162ERGO    R116016   6.744   2.712   6.816  0.0876 -0.0782 -0.1123
 1162ERGO    R216017   6.656   2.778   7.069  0.4591 -0.0786  0.0218
 1162ERGO    R316018   6.637   2.509   7.098  0.2882 -0.0738 -0.0306
 1162ERGO    R416019   6.524   2.617   7.345  0.1865 -0.0472 -0.0868
 1162ERGO    R516020   6.683   2.470   7.329  0.1155 -0.1354 -0.0042
 1162ERGO    C116021   6.429   2.270   7.532 -0.1327 -0.0244 -0.1991
 1162ERGO    C216022   6.236   2.182   7.848  0.0731 -0.1716 -0.0180
 1163ERGO   ROH16023  14.096  10.864   6.362  0.0839 -0.1945  0.0973
 1163ERGO    R116024  14.261  10.851   6.592  0.0289 -0.2980  0.1324
 1163ERGO    R216025  14.292  11.063   6.766  0.1945 -0.2840  0.0946
 1163ERGO    R316026  14.216  10.880   6.952 -0.0158 -0.1759  0.1158
 1163ERGO    R416027  14.345  11.093   7.106  0.0234 -0.2085  0.1148
 1163ERGO    R516028  14.393  10.881   7.112 -0.1075 -0.2317  0.2129
 1163ERGO    C116029  14.304  10.938   7.479 -0.2739 -0.0632  0.1464
 1163ERGO    C216030  14.276  11.043   7.772  0.1123 -0.1390 -0.1353
 1164ERGO   ROH16031   2.429   1.756   5.928 -0.1951 -0.0814 -0.0671
 1164ERGO    R116032   2.429   1.943   6.141 -0.0870 -0.1210 -0.0340
 1164ERGO    R216033   2.233   2.135   6.170 -0.0936 -0.1644  0.1262
 1164ERGO    R316034   2.209   2.027   6.418  0.0818 -0.2010  0.1304
 1164ERGO    R416035   2.062   2.280   6.433 -0.3299 -0.4111  0.1148
 1164ERGO    R516036   2.222   2.215   6.566 -0.2116 -0.1591  0.1210
 1164ERGO    C116037   1.940   2.263   6.820 -0.3027 -0.5892  0.1121
 1164ERGO    C216038   1.790   2.357   7.059 -0.0597 -0.2915  0.2951
 1165ERGO   ROH16039  10.099   6.117   5.842 -0.2794  0.0595  0.1075
 1165ERGO    R116040  10.236   6.114   6.090  0.0000  0.3608 -0.0326
 1165ERGO    R216041  10.224   6.324   6.269 -0.4656  0.2667  0.0716
 1165ERGO    R316042  10.145   6.130   6.443  0.2963 -0.0818  0.0711
 1165ERGO    R416043  10.225   6.355   6.613 -0.4991  0.2182  0.0752
 1165ERGO    R516044  10.297   6.149   6.627  0.2858  0.4635  0.0326
 1165ERGO    C116045  10.150   6.192   6.977  0.1966 -0.1373  0.0768
 1165ERGO    C216046  10.271   6.262   7.291  0.1094 -0.1546 -0.0131
 1166ERGO   ROH16047  15.480   8.042   6.218  0.2602 -0.0866 -0.0695
 1166ERGO    R116048  15.432   8.204   6.446  0.2614  0.1119 -0.2085
 1166ERGO    R216049  15.410   8.099   6.701 -0.1012  0.2897 -0.1640
 1166ERGO    R316050  15.605   8.280   6.757  0.0827  0.0763 -0.0984
 1166ERGO    R416051  15.519   8.180   7.018 -0.0299  0.0730 -0.1314
 1166ERGO    R516052  15.530   8.388   6.957  0.1830  0.0871 -0.0639
 1166ERGO    C116053  15.766   8.397   7.256  0.1842 -0.2536 -0.0510
 1166ERGO    C216054  16.087   8.468   7.469  0.1019 -0.3726  0.0224
 1167ERGO   ROH16055   2.193   3.136   5.910  0.1195 -0.0088 -0.0517
 1167ERGO    R116056   2.276   3.123   6.181  0.2893  0.0504 -0.1001
 1167ERGO    R216057   2.368   3.344   6.318 -0.0034  0.1686 -0.0914
 1167ERGO    R316058   2.174   3.275   6.496  0.2052 -0.2074  0.0001
 1167ERGO    R416059   2.396   3.372   6.662  0.0499  0.3970 -0.1123
 1167ERGO    R516060   2.294   3.180   6.680  0.4979  0.1531  0.0101
 1167ERGO    C116061   2.230   3.322   7.028  0.2769  0.1771 -0.0385
 1167ERGO    C216062   2.297   3.495   7.385  0.4921  0.0710 -0.3415
 1168ERGO   ROH16063  13.900  12.452   6.113  0.0984  0.1488  0.0240
 1168ERGO    R116064  13.983  12.509   6.377  0.0847  0.1385  0.0301
 1168ERGO    R216065  14.200  12.670   6.433 -0.0332  0.2902  0.0488
 1168ERGO    R316066  14.020  12.806   6.584 -0.1205  0.1098  0.1103
 1168ERGO    R416067  14.281  12.886   6.691 -0.1634  0.3350  0.0533
 1168ERGO    R516068  14.114  12.805   6.805 -0.0630  0.1688  0.0871
 1168ERGO    C116069  14.158  13.139   6.983 -0.3211  0.1918  0.1136
 1168ERGO    C216070  14.083  13.308   7.276  0.0642 -0.1490 -0.1952
 1169ERGO   ROH16071  10.132  16.687   6.338 -0.0847 -0.0315 -0.1035
 1169ERGO    R116072   9.986  16.713   6.579 -0.0498  0.0363 -0.0896
 1169ERGO    R216073   9.954  16.503   6.757 -0.1650  0.0391 -0.1066
 1169ERGO    R316074  10.057  16.681   6.935 -0.0404 -0.0400 -0.0983
 1169ERGO    R416075  10.018  16.435   7.090 -0.0655 -0.0647 -0.1461
 1169ERGO    R516076   9.942  16.633   7.140  0.0189 -0.0524 -0.0682
 1169ERGO    C116077  10.151  16.562   7.451  0.1094 -0.1996 -0.1612
 1169ERGO    C216078  10.242  16.430   7.732  0.2516  0.1090  0.0073
 1170ERGO   ROH16079   6.920   0.933   6.169  0.0631 -0.3014 -0.0001
 1170ERGO    R116080   6.908   0.967   6.450 -0.0003 -0.1142 -0.0238
 1170ERGO    R216081   6.992   0.772   6.627 -0.1398 -0.0407  0.1271
 1170ERGO    R316082   7.146   0.973   6.726 -0.0741 -0.0468  0.0383
 1170ERGO    R416083   7.193   0.747   6.907  0.0227 -0.0456  0.0116
 1170ERGO    R516084   7.130   0.949   6.964  0.0636 -0.0443  0.0474
 1170ERGO    C116085   7.455   0.922   7.163  0.1790 -0.0542 -0.1391
 1170ERGO    C216086   7.811   0.736   7.160  0.1689 -0.0437 -0.3548
 1171ERGO   ROH16087   2.580  15.999   6.016  0.0268 -0.3219  0.0742
 1171ERGO    R116088   2.638  16.019   6.292  0.0014 -0.2961  0.0799
 1171ERGO    R216089   2.541  16.225   6.450  0.0638 -0.2172  0.0388
 1171ERGO    R316090   2.448  16.020   6.603 -0.0440 -0.1597  0.0476
 1171ERGO    R416091   2.487  16.240   6.791  0.1581 -0.2314  0.0532
 1171ERGO    R516092   2.568  16.039   6.809  0.0106 -0.2782  0.0141
 1171ERGO    C116093   2.369  16.056   7.133  0.1119 -0.1855  0.0698
 1171ERGO    C216094   2.419  16.144   7.361 -0.1705 -0.0867 -0.3349
 1172ERGO   ROH16095  13.432   6.908   6.139  0.2636 -0.2012  0.1831
 1172ERGO    R116096  13.517   6.948   6.406  0.1296 -0.0415  0.2033
 1172ERGO    R216097  13.471   7.184   6.543  0.0345  0.0298  0.0489
 1172ERGO    R316098  13.360   7.017   6.727 -0.0341  0.1202  0.0909
 1172ERGO    R416099  13.386   7.274   6.866 -0.2182  0.2306 -0.0699
 1172ERGO    R516100  13.461   7.081   6.934 -0.1968  0.3021  0.1182
 1172ERGO    C116101  13.232   7.170   7.226 -0.4295  0.4324 -0.0994
 1172ERGO    C216102  13.254   7.239   7.469  0.2793  0.1730  0.2901
 1173ERGO   ROH16103  10.440   3.857   6.085 -0.0323 -0.0645 -0.1005
 1173ERGO    R116104  10.419   3.816   6.365 -0.0501 -0.0169 -0.0948
 1173ERGO    R216105  10.591   3.935   6.546 -0.0140 -0.0447 -0.1085
 1173ERGO    R316106  10.360   4.024   6.658  0.0113  0.0461 -0.1275
 1173ERGO    R416107  10.555   4.030   6.876 -0.0620 -0.2410 -0.0559
 1173ERGO    R516108  10.361   3.931   6.879 -0.1330 -0.1031 -0.1895
 1173ERGO    C116109  10.317   4.169   7.174 -0.0664 -0.2702 -0.0432
 1173ERGO    C216110  10.258   4.403   7.345 -0.1965 -0.0237  0.2212
 1174ERGO   ROH16111   2.962  15.071   5.909 -0.0657 -0.0495  0.0384
 1174ERGO    R116112   3.054  14.957   6.151  0.0017 -0.0930 -0.0072
 1174ERGO    R216113   2.969  15.044   6.398  0.1688 -0.0493  0.0379
 1174ERGO    R316114   2.906  14.782   6.434  0.0584 -0.0190  0.0677
 1174ERGO    R416115   2.955  14.885   6.705  0.2788 -0.0568  0.0393
 1174ERGO    R516116   3.049  14.711   6.613  0.1326 -0.0998 -0.0253
 1174ERGO    C116117   2.888  14.547   6.917  0.2391 -0.0329  0.0682
 1174ERGO    C216118   2.863  14.283   7.138 -0.1980  0.1148 -0.1225
 1175ERGO   ROH16119  17.642  10.573   6.042 -0.1700 -0.0187 -0.0505
 1175ERGO    R116120  17.675  10.611   6.320 -0.0364  0.0261 -0.0715
 1175ERGO    R216121  17.549  10.452   6.508 -0.1831  0.2407  0.0165
 1175ERGO    R316122  17.802  10.417   6.600 -0.1959 -0.0523 -0.0523
 1175ERGO    R416123  17.629  10.315   6.815 -0.2797  0.5062  0.1638
 1175ERGO    R516124  17.787  10.464   6.835 -0.0209  0.2823 -0.1027
 1175ERGO    C116125  17.914  10.201   7.080 -0.3481  0.3857  0.1851
 1175ERGO    C216126  17.829  10.049   7.463 -0.0301  0.0637 -0.0517
 1176ERGO   ROH16127   5.211  10.020   6.386 -0.1211 -0.0871 -0.0842
 1176ERGO    R116128   5.035   9.945   6.595 -0.1095 -0.0158 -0.0490
 1176ERGO    R216129   5.086   9.732   6.764 -0.1611 -0.0347 -0.0592
 1176ERGO    R316130   5.051   9.918   6.958 -0.0487 -0.0207 -0.0515
 1176ERGO    R416131   4.973   9.665   7.083 -0.1386  0.0088 -0.0420
 1176ERGO    R516132   4.854   9.848   7.074 -0.0622  0.0620 -0.0210
 1176ERGO    C116133   4.875   9.802   7.452 -0.0201  0.0473 -0.0247
 1176ERGO    C216134   4.739   9.792   7.741 -0.2667  0.2285 -0.0960
 1177ERGO   ROH16135   0.122  17.077   6.043 -0.0086  0.0556 -0.0092
 1177ERGO    R116136  -0.022  17.062   6.286 -0.0418  0.1453 -0.0239
 1177ERGO    R216137   0.040  16.879   6.484 -0.2759 -0.0024 -0.0873
 1177ERGO    R316138   0.053  17.102   6.640 -0.0118 -0.0713 -0.0037
 1177ERGO    R416139   0.007  16.882   6.828 -0.0959 -0.1110 -0.0668
 1177ERGO    R516140  -0.110  17.065   6.811  0.0431 -0.0040  0.0663
 1177ERGO    C116141   0.000  17.093   7.175  0.2569 -0.2389  0.0237
 1177ERGO    C216142   0.072  16.965   7.531 -0.0502 -0.0199 -0.0691
 1178ERGO   ROH16143   3.291   5.245   6.012 -0.1146  0.1210  0.0220
 1178ERGO    R116144   3.463   5.261   6.237 -0.2089 -0.0347  0.1079
 1178ERGO    R216145   3.530   5.502   6.356  0.2272 -0.0535 -0.0753
 1178ERGO    R316146   3.438   5.379   6.580 -0.1729  0.3379 -0.0130
 1178ERGO    R416147   3.624   5.582   6.679  0.4418 -0.1458 -0.1143
 1178ERGO    R516148   3.627   5.369   6.725 -0.1998 -0.1489  0.0062
 1178ERGO    C116149   3.592   5.513   7.077  0.1913  0.1680 -0.0784
 1178ERGO    C216150   3.630   5.622   7.480  0.0768  0.0294 -0.0423
 1179ERGO   ROH16151  17.005  17.909   6.309  0.1427  0.0947  0.0133
 1179ERGO    R116152  16.874  17.830   6.547 -0.1186  0.0751 -0.1354
 1179ERGO    R216153  17.001  17.823   6.792 -0.2969 -0.2571 -0.0552
 1179ERGO    R316154  16.794  17.981   6.868 -0.1635 -0.0669 -0.0758
 1179ERGO    R416155  16.922  17.901   7.119  0.0707  0.2423 -0.0731
 1179ERGO    R516156  16.711  17.879   7.068 -0.0002  0.2421  0.1664
 1179ERGO    C116157  16.682  18.096   7.381  0.4099  0.7119 -0.1027
 1179ERGO    C216158  16.610  18.109   7.800  0.0322  0.1389 -0.1167
 1180ERGO   ROH16159   9.895   3.452   6.236 -0.2796  0.3429  0.0818
 1180ERGO    R116160  10.077   3.449   6.453 -0.1628  0.1057 -0.0152
 1180ERGO    R216161  10.048   3.613   6.674  0.0873  0.0384  0.0725
 1180ERGO    R316162  10.061   3.378   6.810 -0.0280 -0.0321 -0.0362
 1180ERGO    R416163  10.123   3.583   7.010  0.1344 -0.1596  0.0452
 1180ERGO    R516164  10.243   3.408   6.962  0.0196 -0.2115 -0.0567
 1180ERGO    C116165  10.179   3.344   7.333  0.0536 -0.3410 -0.0728
 1180ERGO    C216166  10.104   3.280   7.622  0.0024  0.1198 -0.0230
 1181ERGO   ROH16167   9.025  17.028   6.473 -0.1311  0.1313 -0.1166
 1181ERGO    R116168   9.020  17.078   6.751 -0.0653  0.0409 -0.0994
 1181ERGO    R216169   9.234  17.023   6.916  0.0067  0.0723 -0.1843
 1181ERGO    R316170   9.206  17.284   6.986 -0.0742  0.0401 -0.0912
 1181ERGO    R416171   9.345  17.161   7.213  0.0717  0.0277 -0.1868
 1181ERGO    R516172   9.162  17.278   7.222  0.0252 -0.0515 -0.0737
 1181ERGO    C116173   9.383  17.487   7.451  0.0336 -0.0288 -0.1008
 1181ERGO    C216174   9.583  17.649   7.843  0.1135 -0.0177  0.0768
 1182ERGO   ROH16175   6.405   3.507   6.414  0.0281 -0.0175  0.0637
 1182ERGO    R116176   6.555   3.696   6.561 -0.0709  0.0600  0.0664
 1182ERGO    R216177   6.439   3.864   6.748 -0.1608  0.0005  0.0692
 1182ERGO    R316178   6.629   3.760   6.912 -0.1074  0.0942  0.0670
 1182ERGO    R416179   6.540   4.004   7.047 -0.0804  0.1495 -0.0262
 1182ERGO    R516180   6.746   3.951   6.997 -0.0943  0.1400 -0.0578
 1182ERGO    C116181   6.777   3.987   7.376  0.0167  0.3241 -0.0838
 1182ERGO    C216182   6.985   3.971   7.641  0.0339  0.1382  0.1951
 1183ERGO   ROH16183   9.074  12.922   6.703  0.1925 -0.1127  0.0506
 1183ERGO    R116184   8.871  13.077   6.827  0.1746 -0.0028 -0.1123
 1183ERGO    R216185   8.738  12.992   7.054  0.0266  0.1215 -0.1511
 1183ERGO    R316186   8.819  13.232   7.152  0.0511  0.1314 -0.1954
 1183ERGO    R416187   8.579  13.167   7.306  0.0093  0.2148 -0.2258
 1183ERGO    R516188   8.616  13.351   7.196  0.0645  0.1801 -0.2647
 1183ERGO    C116189   8.564  13.494   7.545  0.0221  0.2783 -0.3108
 1183ERGO    C216190   8.610  13.410   7.902  0.1849 -0.0747 -0.0150
 1184ERGO   ROH16191  18.201  16.756   5.949  0.1699 -0.2448 -0.0250
 1184ERGO    R116192  18.116  16.742   6.218  0.2551 -0.0318  0.0154
 1184ERGO    R216193  18.023  16.508   6.333 -0.1038  0.1493  0.1095
 1184ERGO    R316194  18.216  16.560   6.517  0.0707 -0.1354  0.0157
 1184ERGO    R416195  18.071  16.330   6.625 -0.0964 -0.0420 -0.0063
 1184ERGO    R516196  18.109  16.518   6.728  0.1608 -0.1289  0.0630
 1184ERGO    C116197  18.279  16.276   6.969  0.0717 -0.4208 -0.1617
 1184ERGO    C216198  18.466  16.139   7.217  0.3164  0.0835 -0.1539
 1185ERGO   ROH16199  14.072  16.335   6.521  0.0076  0.1833  0.0976
 1185ERGO    R116200  14.076  16.454   6.778 -0.0482  0.1194  0.1291
 1185ERGO    R216201  13.885  16.399   6.970 -0.0543  0.0190  0.1005
 1185ERGO    R316202  14.102  16.337   7.122 -0.0502  0.0363  0.1002
 1185ERGO    R416203  13.887  16.382   7.315 -0.0166  0.1358  0.1059
 1185ERGO    R516204  14.082  16.478   7.314 -0.0048  0.1020  0.0535
 1185ERGO    C116205  14.092  16.314   7.659  0.0091  0.2199  0.1088
 1185ERGO    C216206  14.163  16.261   8.071  0.0511 -0.2038 -0.2253
 1186ERGO   ROH16207   2.777  11.461   5.875  0.3895 -0.1318  0.1125
 1186ERGO    R116208   2.728  11.353   6.132  0.5204 -0.2068  0.1074
 1186ERGO    R216209   2.927  11.325   6.322  0.4971  0.3616  0.2385
 1186ERGO    R316210   2.755  11.468   6.477  0.0165 -0.0464  0.0992
 1186ERGO    R416211   2.927  11.327   6.668  0.2953  0.4713  0.2375
 1186ERGO    R516212   2.709  11.325   6.663  0.2956 -0.1164  0.1132
 1186ERGO    C116213   2.765  11.463   7.014 -0.2733  0.1522  0.1062
 1186ERGO    C216214   2.789  11.251   7.268  0.0491  0.0024  0.0253
 1187ERGO   ROH16215   0.849   1.283   6.146 -0.2333  0.1611 -0.0332
 1187ERGO    R116216   1.048   1.421   6.293 -0.2360  0.0422  0.0826
 1187ERGO    R216217   1.049   1.428   6.570 -0.1810 -0.2711  0.0930
 1187ERGO    R316218   1.302   1.334   6.539 -0.1632 -0.1761 -0.0658
 1187ERGO    R416219   1.298   1.447   6.809 -0.0529 -0.2144 -0.0428
 1187ERGO    R516220   1.440   1.495   6.651 -0.1580 -0.1397 -0.1200
 1187ERGO    C116221   1.680   1.369   6.919  0.0385 -0.0922 -0.2709
 1187ERGO    C216222   2.056   1.171   6.893 -0.0106  0.1948 -0.0241
 1188ERGO   ROH16223   4.874   3.815   6.429 -0.0807 -0.2217 -0.0338
 1188ERGO    R116224   4.880   3.641   6.652 -0.0167 -0.1591  0.0137
 1188ERGO    R216225   5.106   3.499   6.725  0.0280 -0.0765  0.0368
 1188ERGO    R316226   5.063   3.619   6.966  0.0117 -0.0219  0.0072
 1188ERGO    R416227   5.265   3.414   7.020 -0.0548 -0.0649  0.0855
 1188ERGO    R516228   5.076   3.440   7.124 -0.0682  0.0043  0.0427
 1188ERGO    C116229   5.318   3.476   7.417 -0.1184 -0.0069  0.0860
 1188ERGO    C216230   5.354   3.644   7.774 -0.3128 -0.0857  0.1430
 1189ERGO   ROH16231   8.246  11.323   6.522 -0.0545  0.1226 -0.0528
 1189ERGO    R116232   8.120  11.226   6.755  0.0495  0.0630 -0.0211
 1189ERGO    R216233   8.203  11.295   7.009 -0.0138  0.2229 -0.0447
 1189ERGO    R316234   7.943  11.368   7.039 -0.0898 -0.0316 -0.0588
 1189ERGO    R416235   8.023  11.268   7.303  0.0661  0.2484  0.0070
 1189ERGO    R516236   7.851  11.202   7.186  0.1129 -0.0247  0.0814
 1189ERGO    C116237   7.675  11.321   7.503  0.0414  0.0243  0.0239
 1189ERGO    C216238   7.463  11.276   7.806  0.0147  0.0440 -0.1797
 1190ERGO   ROH16239  16.485   3.908   6.469 -0.0928  0.1073  0.0251
 1190ERGO    R116240  16.646   3.801   6.676 -0.0355 -0.0096 -0.0785
 1190ERGO    R216241  16.922   3.793   6.661 -0.0340  0.0647 -0.1276
 1190ERGO    R316242  16.906   3.923   6.899 -0.0295 -0.1137 -0.0285
 1190ERGO    R416243  17.138   3.747   6.927 -0.0165 -0.1164 -0.1722
 1190ERGO    R516244  16.967   3.759   7.061 -0.0080 -0.2292 -0.1536
 1190ERGO    C116245  17.248   3.842   7.305 -0.0022 -0.3894 -0.1052
 1190ERGO    C216246  17.347   3.928   7.619 -0.2528  0.3512 -0.0784
 1191ERGO   ROH16247  12.307   1.310   5.919 -0.3783  0.1921 -0.0648
 1191ERGO    R116248  12.111   1.268   6.119 -0.3778 -0.0458 -0.1114
 1191ERGO    R216249  11.957   1.039   6.131 -0.0910 -0.2428 -0.1377
 1191ERGO    R316250  12.052   1.028   6.385 -0.1399 -0.1081 -0.1124
 1191ERGO    R416251  11.761   1.012   6.414 -0.1433 -0.1998 -0.1692
 1191ERGO    R516252  11.894   1.153   6.514 -0.2134 -0.1119 -0.1961
 1191ERGO    C116253  11.737   0.986   6.818 -0.2198 -0.0483 -0.1639
 1191ERGO    C216254  11.712   1.007   7.173  0.1020  0.2600  0.1396
 1192ERGO   ROH16255   9.636   2.557   6.106  0.0332  0.1600 -0.1720
 1192ERGO    R116256   9.541   2.698   6.332 -0.1628  0.0643 -0.1927
 1192ERGO    R216257   9.305   2.633   6.459 -0.0570 -0.2715 -0.1581
 1192ERGO    R316258   9.464   2.620   6.679 -0.0131  0.0163 -0.1700
 1192ERGO    R416259   9.192   2.644   6.786 -0.0278 -0.2474 -0.1487
 1192ERGO    R516260   9.362   2.771   6.835 -0.1670 -0.0264 -0.2287
 1192ERGO    C116261   9.277   2.639   7.182  0.0304  0.0368 -0.1543
 1192ERGO    C216262   9.332   2.503   7.461 -0.2562 -0.0510  0.1905
 1193ERGO   ROH16263  18.079  17.984   6.262  0.0920 -0.3431 -0.0609
 1193ERGO    R116264  18.150  18.076   6.520 -0.0812 -0.1439 -0.0820
 1193ERGO    R216265  17.962  18.127   6.717 -0.1899 -0.3243 -0.1408
 1193ERGO    R316266  18.115  17.955   6.862  0.0202 -0.0597 -0.0404
 1193ERGO    R416267  17.916  18.056   7.052  0.0951  0.0563 -0.0132
 1193ERGO    R516268  18.132  18.058   7.077  0.1178  0.2179 -0.1729
 1193ERGO    C116269  18.033  17.853   7.383  0.4581  0.5263  0.1554
 1193ERGO    C216270  17.940  17.649   7.693  0.1063  0.1403 -0.0680
 1194ERGO   ROH16271   6.637  14.853   6.364  0.0582 -0.4214  0.0501
 1194ERGO    R116272   6.544  14.754   6.612 -0.0062 -0.2745  0.0849
 1194ERGO    R216273   6.601  14.879   6.853 -0.0032 -0.1774  0.0301
 1194ERGO    R316274   6.331  14.874   6.882 -0.0091 -0.0833  0.0007
 1194ERGO    R416275   6.435  14.894   7.155 -0.0174 -0.3360  0.0321
 1194ERGO    R516276   6.294  14.745   7.080 -0.0782 -0.2227 -0.0970
 1194ERGO    C116277   6.084  14.899   7.359 -0.0311 -0.3400  0.0056
 1194ERGO    C216278   6.043  14.996   7.689 -0.0341 -0.1382 -0.3038
 1195ERGO   ROH16279  16.488   8.481   6.116  0.1336  0.1386  0.0176
 1195ERGO    R116280  16.542   8.592   6.371  0.0157  0.0039  0.1026
 1195ERGO    R216281  16.657   8.841   6.404  0.2172 -0.1081  0.2834
 1195ERGO    R316282  16.438   8.885   6.559  0.1196  0.0370  0.1085
 1195ERGO    R416283  16.634   9.084   6.649  0.0945  0.0562  0.1129
 1195ERGO    R516284  16.528   8.940   6.774 -0.0175  0.1592  0.1350
 1195ERGO    C116285  16.416   9.266   6.938 -0.0686  0.2882 -0.1506
 1195ERGO    C216286  16.563   9.442   7.134 -0.1580  0.3084 -0.0773
 1196ERGO   ROH16287   6.346  16.893   6.437 -0.0539  0.1345 -0.1411
 1196ERGO    R116288   6.317  16.793   6.700 -0.1693  0.0049 -0.2026
 1196ERGO    R216289   6.509  16.831   6.896 -0.1814 -0.2325 -0.1467
 1196ERGO    R316290   6.299  16.932   7.036 -0.1390 -0.1732 -0.1247
 1196ERGO    R416291   6.477  16.819   7.240 -0.0158  0.0089 -0.1204
 1196ERGO    R516292   6.265  16.776   7.214 -0.0230 -0.0557  0.0073
 1196ERGO    C116293   6.262  16.908   7.571  0.1205  0.2051 -0.0844
 1196ERGO    C216294   6.243  16.886   7.916  0.2825  0.0126  0.1589
 1197ERGO   ROH16295   2.327   8.605   5.953  0.0000  0.0796  0.1206
 1197ERGO    R116296   2.276   8.812   6.140 -0.0933  0.0589  0.1187
 1197ERGO    R216297   2.020   8.898   6.201 -0.1438 -0.1575  0.2293
 1197ERGO    R316298   2.098   8.845   6.456  0.0260 -0.0602  0.1993
 1197ERGO    R416299   1.904   9.063   6.481 -0.0768 -0.1594  0.2579
 1197ERGO    R516300   2.107   9.059   6.562 -0.0303 -0.0329  0.1473
 1197ERGO    C116301   1.909   9.108   6.884  0.1217 -0.0691  0.2465
 1197ERGO    C216302   1.735   9.068   7.075  0.0397  0.2183 -0.1251
 1198ERGO   ROH16303   8.178  13.742   6.568  0.0678 -0.0721  0.0912
 1198ERGO    R116304   7.989  13.866   6.738  0.0396 -0.0503  0.0439
 1198ERGO    R216305   7.872  13.735   6.951 -0.0351 -0.0390  0.0092
 1198ERGO    R316306   7.966  13.948   7.091 -0.0439 -0.0555  0.0401
 1198ERGO    R416307   7.772  13.821   7.271 -0.1235 -0.0269 -0.0213
 1198ERGO    R516308   7.774  14.030   7.210 -0.0697 -0.0257 -0.0197
 1198ERGO    C116309   7.802  14.070   7.589 -0.1832 -0.0355 -0.0101
 1198ERGO    C216310   7.794  14.023   7.942  0.0344 -0.0239 -0.2496
 1199ERGO   ROH16311   9.984  18.430   6.255  0.0557  0.1095 -0.1232
 1199ERGO    R116312  10.211  18.507   6.407  0.0844  0.0368 -0.1277
 1199ERGO    R216313  10.193  18.670   6.629  0.1505  0.1024 -0.1673
 1199ERGO    R316314  10.326  18.466   6.750  0.0411  0.0658 -0.1103
 1199ERGO    R416315  10.368  18.696   6.926  0.2974  0.1315 -0.2558
 1199ERGO    R516316  10.522  18.568   6.841  0.1605 -0.0375 -0.2507
 1199ERGO    C116317  10.594  18.519   7.212  0.2802  0.1140 -0.2539
 1199ERGO    C216318  10.682  18.745   7.531 -0.1561  0.0882 -0.2783
 1200ERGO   ROH16319   2.960   0.985   6.068 -0.1174 -0.0692  0.0518
 1200ERGO    R116320   2.885   0.924   6.334 -0.1538 -0.0822  0.0391
 1200ERGO    R216321   3.048   0.783   6.506 -0.1360 -0.0085  0.0858
 1200ERGO    R316322   3.010   0.998   6.668 -0.2568 -0.0121  0.0627
 1200ERGO    R416323   3.014   0.768   6.850 -0.1515  0.0069  0.0844
 1200ERGO    R516324   2.859   0.920   6.836 -0.2282 -0.0737  0.0595
 1200ERGO    C116325   2.960   0.961   7.202 -0.2738  0.0124  0.0620
 1200ERGO    C216326   3.116   0.913   7.515 -0.0075  0.0597 -0.4212
 1201ERGO   ROH16327  13.639   5.912   6.138  0.1159 -0.2955  0.2341
 1201ERGO    R116328  13.762   5.919   6.393 -0.0751 -0.3399  0.3286
 1201ERGO    R216329  13.812   6.155   6.528  0.2581 -0.3281  0.1879
 1201ERGO    R316330  13.673   6.034   6.727 -0.1365  0.0773  0.1754
 1201ERGO    R416331  13.852   6.221   6.865  0.2332 -0.2644  0.1792
 1201ERGO    R516332  13.832   6.007   6.904 -0.2821 -0.2147  0.2710
 1201ERGO    C116333  13.744   6.145   7.248 -0.1518  0.1533  0.1625
 1201ERGO    C216334  13.674   6.277   7.461  0.0203 -0.0978  0.0858
 1202ERGO   ROH16335  17.443   1.379   6.158 -0.1317 -0.0078  0.0413
 1202ERGO    R116336  17.639   1.483   6.334 -0.0456 -0.0762 -0.0130
 1202ERGO    R216337  17.584   1.684   6.515  0.1142  0.0505 -0.1022
 1202ERGO    R316338  17.683   1.506   6.695 -0.0169  0.0540 -0.0248
 1202ERGO    R416339  17.703   1.765   6.830  0.1750  0.0978 -0.1372
 1202ERGO    R516340  17.864   1.622   6.800  0.0694 -0.0343 -0.0757
 1202ERGO    C116341  17.865   1.645   7.181  0.0875  0.1287 -0.0848
 1202ERGO    C216342  17.871   1.539   7.586 -0.1427  0.1116 -0.0323
 1203ERGO   ROH16343   3.953  11.215   6.137  0.1040  0.0641  0.0476
 1203ERGO    R116344   3.790  11.293   6.355  0.0376  0.1811 -0.0432
 1203ERGO    R216345   3.816  11.183   6.607 -0.2992  0.0318 -0.0690
 1203ERGO    R316346   3.841  11.443   6.683 -0.0137 -0.0305  0.0627
 1203ERGO    R416347   3.745  11.304   6.923 -0.3657 -0.0137 -0.0660
 1203ERGO    R516348   3.656  11.480   6.830 -0.0719  0.1462 -0.0539
 1203ERGO    C116349   3.727  11.619   7.178 -0.1366 -0.0988  0.0594
 1203ERGO    C216350   3.698  11.568   7.486 -0.0638 -0.0271 -0.1478
 1204ERGO   ROH16351  13.241   4.448   6.360 -0.2892 -0.0937  0.0341
 1204ERGO    R116352  13.279   4.454   6.641 -0.0670 -0.0563  0.0049
 1204ERGO    R216353  13.510   4.365   6.762  0.0815  0.0810 -0.1756
 1204ERGO    R316354  13.510   4.613   6.873  0.0326  0.0874 -0.1887
 1204ERGO    R416355  13.721   4.468   7.015 -0.0797  0.0679 -0.0338
 1204ERGO    R516356  13.554   4.574   7.105 -0.1321  0.0926 -0.1543
 1204ERGO    C116357  13.844   4.761   7.267 -0.2193  0.0663  0.0365
 1204ERGO    C216358  14.109   4.971   7.420 -0.3988 -0.1042  0.0328
 1205ERGO   ROH16359  17.005   1.265   6.216  0.0671 -0.1543  0.0404
 1205ERGO    R116360  16.867   1.368   6.441 -0.1212 -0.2086 -0.0469
 1205ERGO    R216361  16.772   1.207   6.644 -0.1036 -0.2399 -0.0584
 1205ERGO    R316362  16.917   1.374   6.802 -0.3009 -0.0993 -0.0237
 1205ERGO    R416363  16.704   1.271   6.976 -0.2752 -0.2553 -0.0901
 1205ERGO    R516364  16.753   1.481   6.940 -0.4386 -0.2199 -0.0944
 1205ERGO    C116365  16.801   1.466   7.318 -0.5603 -0.1324 -0.0758
 1205ERGO    C216366  16.625   1.516   7.526  0.1102  0.0983  0.1482
 1206ERGO   ROH16367  15.806   0.081   6.400  0.2423  0.0065 -0.0057
 1206ERGO    R116368  15.776   0.115   6.679  0.1315  0.0565 -0.0230
 1206ERGO    R216369  15.917  -0.036   6.863  0.0739  0.1034  0.0605
 1206ERGO    R316370  15.989   0.208   6.959  0.0158  0.1275  0.0425
 1206ERGO    R416371  15.943   0.047   7.198  0.2506  0.0725  0.0547
 1206ERGO    R516372  15.853   0.240   7.153  0.1253  0.0352  0.1359
 1206ERGO    C116373  16.027   0.324   7.482  0.2991  0.0771  0.0343
 1206ERGO    C216374  15.959   0.513   7.812  0.3575 -0.1160 -0.3321
 1207ERGO   ROH16375   5.963  17.956   6.377 -0.0118  0.0513  0.0217
 1207ERGO    R116376   5.933  17.759   6.578 -0.1321 -0.0546 -0.0978
 1207ERGO    R216377   6.018  17.799   6.838 -0.0580 -0.2850 -0.0874
 1207ERGO    R316378   5.761  17.733   6.898 -0.1012 -0.1241 -0.0857
 1207ERGO    R416379   5.880  17.809   7.155  0.0057 -0.3557 -0.0568
 1207ERGO    R516380   5.776  17.622   7.110 -0.1455 -0.2569 -0.1471
 1207ERGO    C116381   5.558  17.752   7.395  0.0021 -0.2460 -0.0374
 1207ERGO    C216382   5.396  17.852   7.587  0.0927  0.0253 -0.0763
 1208ERGO   ROH16383  17.565   4.897   5.976 -0.2296 -0.0407  0.0958
 1208ERGO    R116384  17.782   4.881   6.157 -0.1675 -0.0912  0.0172
 1208ERGO    R216385  17.860   5.093   6.316 -0.0863 -0.1222  0.0197
 1208ERGO    R316386  17.831   4.911   6.516 -0.0370 -0.1462  0.0050
 1208ERGO    R416387  18.045   5.088   6.608 -0.1914  0.0021  0.0892
 1208ERGO    R516388  18.054   4.871   6.593 -0.0367  0.0065  0.0880
 1208ERGO    C116389  18.125   4.915   6.965 -0.2065  0.0519  0.1159
 1208ERGO    C216390  18.182   4.813   7.332 -0.3611  0.1014  0.1336
 1209ERGO   ROH16391   9.187   1.579   6.181 -0.1877 -0.1608 -0.1928
 1209ERGO    R116392   9.358   1.516   6.397 -0.2228 -0.2116 -0.1798
 1209ERGO    R216393   9.356   1.656   6.636 -0.0726 -0.0921 -0.2460
 1209ERGO    R316394   9.319   1.409   6.743 -0.2867 -0.0098 -0.1238
 1209ERGO    R416395   9.433   1.569   6.961 -0.2139  0.0136 -0.1828
 1209ERGO    R516396   9.508   1.378   6.887 -0.3435 -0.0829 -0.0658
 1209ERGO    C116397   9.444   1.286   7.251 -0.4970  0.1524 -0.0313
 1209ERGO    C216398   9.615   1.326   7.557  0.0479 -0.2493 -0.0127
 1210ERGO   ROH16399   7.321  10.282   6.266  0.0224 -0.1276 -0.0070
 1210ERGO    R116400   7.333  10.156   6.519  0.0696 -0.1222 -0.0057
 1210ERGO    R216401   7.504  10.240   6.720  0.0253 -0.0413  0.0040
 1210ERGO    R316402   7.275  10.253   6.865  0.0100 -0.1448 -0.0106
 1210ERGO    R416403   7.484  10.206   7.063  0.0335  0.1367  0.0229
 1210ERGO    R516404   7.303  10.089   7.037  0.1317 -0.0230  0.0828
 1210ERGO    C116405   7.257  10.198   7.399  0.0241  0.1430  0.0202
 1210ERGO    C216406   7.136  10.411   7.524 -0.0284  0.1329  0.0961
 1211ERGO   ROH16407  15.999  10.156   6.216  0.1040 -0.2649  0.1387
 1211ERGO    R116408  16.140  10.300   6.415  0.5044 -0.2233 -0.1632
 1211ERGO    R216409  16.070  10.293   6.682  0.1997  0.8376 -0.1737
 1211ERGO    R316410  16.329  10.220   6.716 -0.0846 -0.1321  0.2481
 1211ERGO    R416411  16.255  10.349   6.968  0.1588  0.9097 -0.1612
 1211ERGO    R516412  16.426  10.399   6.842  0.5153 -0.1223 -0.1804
 1211ERGO    C116413  16.606  10.313   7.167 -0.1321  0.0414  0.2421
 1211ERGO    C216414  16.833  10.486   7.404 -0.0458 -0.2443 -0.0862
 1212ERGO   ROH16415   6.394  12.832   6.027  0.1349  0.1162 -0.0160
 1212ERGO    R116416   6.417  12.774   6.303  0.1871  0.0094 -0.0424
 1212ERGO    R216417   6.199  12.721   6.464  0.1832  0.2825  0.0472
 1212ERGO    R316418   6.338  12.495   6.523 -0.1094  0.0607 -0.0797
 1212ERGO    R416419   6.191  12.558   6.769  0.0283  0.1575 -0.0215
 1212ERGO    R516420   6.405  12.526   6.751 -0.0168 -0.1297 -0.0800
 1212ERGO    C116421   6.317  12.252   7.002 -0.3367 -0.1235 -0.1807
 1212ERGO    C216422   6.348  11.934   7.125  0.1920  0.0520 -0.0864
 1213ERGO   ROH16423   4.407   8.826   5.876 -0.2423 -0.2009 -0.0496
 1213ERGO    R116424   4.284   8.728   6.111 -0.0739 -0.3104 -0.0062
 1213ERGO    R216425   4.413   8.555   6.286  0.1892 -0.0949  0.0167
 1213ERGO    R316426   4.348   8.745   6.469 -0.0406 -0.1352 -0.0194
 1213ERGO    R416427   4.398   8.504   6.627  0.2836 -0.0426  0.0293
 1213ERGO    R516428   4.220   8.628   6.633  0.1209 -0.2681  0.0160
 1213ERGO    C116429   4.329   8.652   6.998  0.1230 -0.0500  0.0026
 1213ERGO    C216430   4.367   8.656   7.335 -0.1062 -0.0913 -0.1665
 1214ERGO   ROH16431   7.597   9.878   6.167 -0.0403  0.0981  0.0372
 1214ERGO    R116432   7.489   9.772   6.406  0.0484 -0.1055 -0.0106
 1214ERGO    R216433   7.644   9.636   6.591  0.2019  0.0740 -0.0032
 1214ERGO    R316434   7.541   9.820   6.763 -0.1063 -0.1002  0.0133
 1214ERGO    R416435   7.672   9.621   6.935  0.2172  0.0846 -0.0041
 1214ERGO    R516436   7.466   9.690   6.950  0.0944 -0.2480 -0.0020
 1214ERGO    C116437   7.592   9.784   7.297 -0.0633 -0.0726  0.0107
 1214ERGO    C216438   7.657   9.915   7.530 -0.0091  0.0374  0.1419
 1215ERGO   ROH16439  18.178   7.067   6.086 -0.2716  0.1908  0.2542
 1215ERGO    R116440  18.268   7.057   6.354 -0.2000  0.2647  0.2351
 1215ERGO    R216441  18.097   7.075   6.570 -0.1823  0.0355  0.2817
 1215ERGO    R316442  18.215   6.842   6.642  0.1115  0.1621  0.2170
 1215ERGO    R416443  18.052   6.916   6.873 -0.0251 -0.1453  0.2101
 1215ERGO    R516444  18.264   6.869   6.875  0.0326  0.1336  0.2314
 1215ERGO    C116445  18.137   6.603   7.118  0.3422 -0.1318  0.1076
 1215ERGO    C216446  18.106   6.358   7.360 -0.1546  0.2518 -0.1519
 1216ERGO   ROH16447  12.400   7.054   6.183  0.0213 -0.4142  0.3599
 1216ERGO    R116448  12.403   7.232   6.403  0.2046 -0.3197  0.2835
 1216ERGO    R216449  12.172   7.318   6.528  0.2608  0.2329  0.0423
 1216ERGO    R316450  12.297   7.225   6.751 -0.1320  0.0526  0.1954
 1216ERGO    R416451  12.169   7.477   6.835  0.4297  0.4442 -0.0628
 1216ERGO    R516452  12.379   7.423   6.859  0.2907 -0.0767  0.1248
 1216ERGO    C116453  12.284   7.482   7.223  0.1591  0.3980  0.0199
 1216ERGO    C216454  12.039   7.630   7.493 -0.0513  0.2676  0.0086
 1217ERGO   ROH16455  14.315   5.090   6.438  0.1241 -0.0714  0.0062
 1217ERGO    R116456  14.519   5.132   6.630  0.0910  0.1311 -0.0011
 1217ERGO    R216457  14.548   5.370   6.767 -0.2125  0.1221  0.0808
 1217ERGO    R316458  14.537   5.208   6.985  0.0266  0.0253  0.0255
 1217ERGO    R416459  14.659   5.457   7.083 -0.2488  0.1424  0.0887
 1217ERGO    R516460  14.739   5.255   7.104 -0.0002  0.2263 -0.0016
 1217ERGO    C116461  14.713   5.355   7.471 -0.0455  0.0634  0.0414
 1217ERGO    C216462  14.857   5.496   7.735 -0.2542  0.0521  0.0991
 1218ERGO   ROH16463   0.738   1.773   6.330  0.2369  0.0928  0.0954
 1218ERGO    R116464   0.583   1.910   6.523 -0.0282  0.0823 -0.1036
 1218ERGO    R216465   0.411   1.779   6.696  0.0900  0.0168 -0.0288
 1218ERGO    R316466   0.553   1.911   6.886 -0.1572  0.4205 -0.1130
 1218ERGO    R416467   0.315   1.814   7.026  0.0930 -0.0717 -0.0190
 1218ERGO    R516468   0.387   2.019   7.020 -0.3741  0.0983 -0.1166
 1218ERGO    C116469   0.392   1.957   7.397 -0.1373  0.2558 -0.0923
 1218ERGO    C216470   0.212   2.000   7.687 -0.0600 -0.0986 -0.1561
 1219ERGO   ROH16471   4.255  14.850   6.188  0.0245 -0.0434 -0.1227
 1219ERGO    R116472   4.069  14.711   6.351  0.1068 -0.1296 -0.1008
 1219ERGO    R216473   4.144  14.574   6.578  0.1795  0.0153 -0.0326
 1219ERGO    R316474   3.954  14.729   6.696  0.0367 -0.0865 -0.1270
 1219ERGO    R416475   4.030  14.533   6.901  0.1300  0.0392 -0.0473
 1219ERGO    R516476   3.828  14.575   6.830  0.1173 -0.1332 -0.1080
 1219ERGO    C116477   3.785  14.654   7.200 -0.0329 -0.0423 -0.1445
 1219ERGO    C216478   3.594  14.719   7.573  0.1117 -0.1836 -0.1834
 1220ERGO   ROH16479   8.898   3.433   6.049 -0.1109  0.0619 -0.0338
 1220ERGO    R116480   8.861   3.562   6.298 -0.0694  0.0906 -0.0427
 1220ERGO    R216481   8.973   3.809   6.356 -0.0448  0.0870 -0.0834
 1220ERGO    R316482   8.716   3.875   6.415 -0.0318  0.1135 -0.0549
 1220ERGO    R416483   8.877   4.085   6.541  0.0282 -0.0837  0.2168
 1220ERGO    R516484   8.726   3.961   6.637 -0.0362 -0.1435  0.0506
 1220ERGO    C116485   8.579   4.308   6.703  0.0830 -0.1581  0.4183
 1220ERGO    C216486   8.316   4.413   6.642  0.1653  0.0258  0.1641
 1221ERGO   ROH16487  12.690  15.833   6.319 -0.0454 -0.1412 -0.0506
 1221ERGO    R116488  12.615  15.738   6.575  0.0230 -0.1462 -0.0319
 1221ERGO    R216489  12.753  15.536   6.704  0.1251 -0.0737 -0.0235
 1221ERGO    R316490  12.767  15.719   6.905  0.0673 -0.0440 -0.0464
 1221ERGO    R416491  12.748  15.460   7.042  0.1879 -0.0348 -0.0139
 1221ERGO    R516492  12.620  15.634   7.074  0.1188 -0.0848 -0.0229
 1221ERGO    C116493  12.759  15.588   7.426  0.1702  0.0157 -0.0298
 1221ERGO    C216494  12.815  15.486   7.836  0.1438  0.2976 -0.1652
 1222ERGO   ROH16495   0.855  17.660   6.335  0.0976 -0.0488 -0.0277
 1222ERGO    R116496   0.975  17.668   6.591  0.0689 -0.0033 -0.0156
 1222ERGO    R216497   0.915  17.864   6.779 -0.0592 -0.0533 -0.0040
 1222ERGO    R316498   0.863  17.649   6.937  0.0470 -0.0972 -0.0276
 1222ERGO    R416499   0.910  17.868   7.124  0.0925 -0.1294 -0.0001
 1222ERGO    R516500   1.009  17.675   7.124  0.1257 -0.1131 -0.0862
 1222ERGO    C116501   0.858  17.669   7.474  0.2805 -0.2148 -0.0199
 1222ERGO    C216502   0.803  17.642   7.875  0.1817  0.2075  0.1327
 1223ERGO   ROH16503   6.564   8.633   6.431  0.0211 -0.0059  0.0576
 1223ERGO    R116504   6.613   8.572   6.703 -0.1768 -0.0936  0.0767
 1223ERGO    R216505   6.736   8.750   6.876  0.0848 -0.3016  0.1175
 1223ERGO    R316506   6.514   8.707   7.026 -0.0525  0.0902  0.0384
 1223ERGO    R416507   6.713   8.805   7.216  0.0686 -0.3127  0.1177
 1223ERGO    R516508   6.598   8.621   7.233 -0.2825 -0.1007  0.0530
 1223ERGO    C116509   6.492   8.796   7.555 -0.0698  0.0486  0.0435
 1223ERGO    C216510   6.312   8.849   7.815 -0.2749  0.1792  0.2057
 1224ERGO   ROH16511   6.740  10.425   6.282  0.1081 -0.3250 -0.0426
 1224ERGO    R116512   6.836  10.309   6.521  0.0096 -0.1819  0.0674
 1224ERGO    R216513   6.868  10.455   6.754 -0.0572 -0.0350 -0.0137
 1224ERGO    R316514   6.711  10.260   6.860 -0.1173  0.0508  0.0563
 1224ERGO    R416515   6.824  10.399   7.092  0.0664 -0.0151  0.0066
 1224ERGO    R516516   6.831  10.185   7.053 -0.0705 -0.0188  0.0000
 1224ERGO    C116517   6.649  10.184   7.388  0.0821  0.0770  0.0841
 1224ERGO    C216518   6.354  10.106   7.629 -0.3059  0.0888 -0.2191
 1225ERGO   ROH16519   8.981  18.449   6.202 -0.0810 -0.1613 -0.0135
 1225ERGO    R116520   8.897  18.484   6.470  0.0078  0.0403 -0.0090
 1225ERGO    R216521   8.968  18.309   6.672 -0.1336  0.0473  0.0513
 1225ERGO    R316522   9.057  18.535   6.793  0.1303  0.0088 -0.0650
 1225ERGO    R416523   8.952  18.372   7.012 -0.0912  0.2572  0.0154
 1225ERGO    R516524   8.897  18.577   6.966  0.1633  0.3001 -0.1023
 1225ERGO    C116525   9.026  18.621   7.322  0.1813  0.3434 -0.1146
 1225ERGO    C216526   9.083  18.562   7.672 -0.2445 -0.1104 -0.4777
 1226ERGO   ROH16527   4.359   4.737   6.364  0.1884 -0.0400 -0.0414
 1226ERGO    R116528   4.366   4.764   6.646  0.2248 -0.0231 -0.0438
 1226ERGO    R216529   4.585   4.863   6.781  0.1698  0.1719 -0.0944
 1226ERGO    R316530   4.403   5.036   6.885  0.0418  0.0210 -0.0632
 1226ERGO    R416531   4.538   4.922   7.118  0.1295  0.0798 -0.0835
 1226ERGO    R516532   4.324   4.927   7.083  0.1234 -0.0727 -0.0805
 1226ERGO    C116533   4.340   5.118   7.412 -0.0143 -0.1155 -0.0479
 1226ERGO    C216534   4.241   5.177   7.671 -0.1489 -0.1581  0.2215
 1227ERGO   ROH16535   5.393  17.229   6.693 -0.2768 -0.2632  0.0067
 1227ERGO    R116536   5.411  17.154   6.965  0.0836 -0.1806  0.0106
 1227ERGO    R216537   5.634  17.205   7.119  0.0872  0.3494 -0.1555
 1227ERGO    R316538   5.453  17.324   7.284 -0.0717 -0.0229 -0.0502
 1227ERGO    R416539   5.680  17.255   7.458  0.2864  0.6320 -0.2196
 1227ERGO    R516540   5.471  17.201   7.489  0.4367  0.1097  0.0018
 1227ERGO    C116541   5.537  17.395   7.810  0.2533  0.4466 -0.1582
 1227ERGO    C216542   5.524  17.273   8.095 -0.3066 -0.0015  0.0186
 1228ERGO   ROH16543  13.348   1.203   5.869 -0.0273 -0.1375  0.0714
 1228ERGO    R116544  13.293   1.223   6.146  0.0244  0.0737  0.0697
 1228ERGO    R216545  13.251   1.466   6.273 -0.2407  0.1620 -0.1590
 1228ERGO    R316546  13.020   1.347   6.352 -0.0745 -0.0503  0.0101
 1228ERGO    R416547  13.078   1.541   6.562 -0.1692  0.0694 -0.0933
 1228ERGO    R516548  13.040   1.329   6.590  0.0659  0.0466 -0.0002
 1228ERGO    C116549  12.760   1.472   6.806  0.0286 -0.1838  0.1037
 1228ERGO    C216550  12.640   1.454   7.071 -0.0529  0.0405  0.0445
 1229ERGO   ROH16551  16.814  15.731   6.351 -0.1702 -0.0718  0.0653
 1229ERGO    R116552  16.964  15.746   6.590 -0.1062 -0.2081  0.0354
 1229ERGO    R216553  16.945  15.959   6.765  0.2583 -0.0944 -0.0480
 1229ERGO    R316554  16.892  15.763   6.947 -0.0290  0.0580  0.0389
 1229ERGO    R416555  17.029  15.972   7.100  0.1804 -0.0351 -0.0308
 1229ERGO    R516556  17.084  15.761   7.089 -0.0720 -0.1070  0.0917
 1229ERGO    C116557  17.030  15.796   7.465 -0.1345  0.1424  0.0609
 1229ERGO    C216558  17.121  15.689   7.798 -0.1349  0.0510 -0.2014
 1230ERGO   ROH16559  11.462   0.715   6.138  0.1283  0.2032  0.1682
 1230ERGO    R116560  11.338   0.682   6.391 -0.0598  0.0840  0.0644
 1230ERGO    R216561  11.481   0.618   6.618 -0.2476 -0.1852  0.1157
 1230ERGO    R316562  11.360   0.840   6.718 -0.1700 -0.1823  0.2018
 1230ERGO    R416563  11.419   0.675   6.953 -0.1139 -0.2270  0.1477
 1230ERGO    R516564  11.225   0.759   6.898 -0.1159 -0.1840  0.2373
 1230ERGO    C116565  11.270   0.917   7.242  0.0369 -0.2487  0.2470
 1230ERGO    C216566  11.293   1.057   7.571 -0.0191  0.2365  0.2087
 1231ERGO   ROH16567  11.594   5.914   6.120  0.0581  0.1113 -0.0726
 1231ERGO    R116568  11.702   6.111   6.292 -0.0260  0.1735 -0.0898
 1231ERGO    R216569  11.670   6.382   6.247 -0.2201  0.1574 -0.0642
 1231ERGO    R316570  11.572   6.380   6.500 -0.1501  0.0740 -0.0377
 1231ERGO    R416571  11.544   6.658   6.412 -0.1135  0.1168  0.0867
 1231ERGO    R516572  11.643   6.589   6.593 -0.0787  0.0195  0.0304
 1231ERGO    C116573  11.378   6.817   6.746  0.0142  0.0150  0.1996
 1231ERGO    C216574  11.347   7.095   6.959  0.0455 -0.0054  0.3125
 1232ERGO   ROH16575   1.724   6.860   6.078  0.1448  0.1279  0.0030
 1232ERGO    R116576   1.690   6.843   6.359 -0.0451  0.3234 -0.0037
 1232ERGO    R216577   1.883   6.736   6.526 -0.3909 -0.1307  0.1383
 1232ERGO    R316578   1.858   6.975   6.654  0.1679  0.0068  0.0196
 1232ERGO    R416579   1.943   6.787   6.862 -0.5073 -0.1532  0.1618
 1232ERGO    R516580   1.769   6.917   6.869 -0.1605  0.3395 -0.0235
 1232ERGO    C116581   1.954   7.041   7.179 -0.0504 -0.0373  0.0640
 1232ERGO    C216582   2.091   7.116   7.491 -0.2463  0.2382 -0.1242
 1233ERGO   ROH16583  15.111   1.979   5.993  0.0172 -0.0249 -0.0657
 1233ERGO    R116584  15.236   2.160   6.171 -0.1258  0.1014 -0.0920
 1233ERGO    R216585  15.104   2.377   6.280 -0.3688 -0.1160  0.0551
 1233ERGO    R316586  15.187   2.269   6.515 -0.0653 -0.0706 -0.0276
 1233ERGO    R416587  15.145   2.553   6.574 -0.2288 -0.1021  0.0286
 1233ERGO    R516588  15.326   2.438   6.612 -0.1014  0.0322 -0.1476
 1233ERGO    C116589  15.247   2.554   6.967  0.1377 -0.0513 -0.0644
 1233ERGO    C216590  15.181   2.754   7.200  0.1221  0.3684 -0.0330
 1234ERGO   ROH16591   5.382   7.974   6.015 -0.3031  0.0193 -0.1913
 1234ERGO    R116592   5.156   7.955   6.184 -0.1909 -0.0627 -0.0444
 1234ERGO    R216593   5.101   7.730   6.335 -0.0181 -0.0945 -0.0111
 1234ERGO    R316594   5.095   7.909   6.540  0.0620 -0.0959 -0.0049
 1234ERGO    R416595   5.003   7.658   6.659 -0.0814 -0.0369 -0.0181
 1234ERGO    R516596   4.900   7.849   6.665  0.0242  0.0140 -0.0201
 1234ERGO    C116597   4.941   7.784   7.039 -0.0430 -0.0045 -0.0164
 1234ERGO    C216598   5.052   7.567   7.177 -0.1162  0.0475 -0.3572
 1235ERGO   ROH16599   3.560   0.130   6.578  0.2637  0.2509 -0.0229
 1235ERGO    R116600   3.557  -0.063   6.785  0.4556  0.2253 -0.0432
 1235ERGO    R216601   3.720  -0.044   7.007  0.1882  0.5587  0.1303
 1235ERGO    R316602   3.484  -0.068   7.141  0.0847  0.0462 -0.1155
 1235ERGO    R416603   3.689  -0.156   7.333  0.1281  0.6893  0.1698
 1235ERGO    R516604   3.511  -0.267   7.273  0.4606  0.1845  0.0371
 1235ERGO    C116605   3.451  -0.242   7.649 -0.0042  0.2844 -0.0378
 1235ERGO    C216606   3.478  -0.189   8.035 -0.3053  0.2054 -0.2605
 1236ERGO   ROH16607  15.829  16.973   6.219  0.0707 -0.4013  0.0998
 1236ERGO    R116608  15.760  16.889   6.480  0.1052 -0.2974  0.1415
 1236ERGO    R216609  15.948  16.858   6.680  0.0968  0.0510  0.2061
 1236ERGO    R316610  15.783  17.026   6.817 -0.1243 -0.0358  0.0556
 1236ERGO    R416611  15.892  16.846   7.021  0.0117  0.2030  0.1995
 1236ERGO    R516612  15.681  16.888   6.983 -0.0257 -0.0441  0.1117
 1236ERGO    C116613  15.705  16.998   7.348 -0.2454  0.2105  0.0543
 1236ERGO    C216614  15.693  17.181   7.557 -0.0221  0.1976 -0.0805
 1237ERGO   ROH16615  14.630   9.602   6.106 -0.0351  0.3009  0.1166
 1237ERGO    R116616  14.473   9.492   6.314  0.0115  0.1691  0.0836
 1237ERGO    R216617  14.576   9.320   6.505  0.1162  0.2552  0.1058
 1237ERGO    R316618  14.472   9.502   6.678 -0.0732  0.1702  0.0836
 1237ERGO    R416619  14.514   9.262   6.839  0.3296  0.2780  0.1511
 1237ERGO    R516620  14.329   9.374   6.820  0.1600  0.0126  0.1836
 1237ERGO    C116621  14.380   9.398   7.197  0.2761  0.2115  0.1565
 1237ERGO    C216622  14.437   9.604   7.386  0.5126 -0.2000 -0.0683
 1238ERGO   ROH16623   4.518  15.475   6.441 -0.2124 -0.0131 -0.0274
 1238ERGO    R116624   4.481  15.552   6.711  0.0437 -0.2782  0.0880
 1238ERGO    R216625   4.233  15.613   6.816  0.2067  0.2092  0.2169
 1238ERGO    R316626   4.300  15.425   7.000 -0.2164 -0.2226 -0.0480
 1238ERGO    R416627   4.094  15.588   7.132  0.4027  0.3101  0.3139
 1238ERGO    R516628   4.293  15.541   7.210  0.3458 -0.4124  0.0942
 1238ERGO    C116629   4.076  15.396   7.488  0.1196 -0.0365  0.1215
 1238ERGO    C216630   3.959  15.417   7.749  0.0768  0.2379  0.1195
 1239ERGO   ROH16631  12.344   0.780   6.063 -0.0982 -0.1201 -0.0993
 1239ERGO    R116632  12.487   0.683   6.287  0.0023  0.0507 -0.0885
 1239ERGO    R216633  12.429   0.761   6.545 -0.1074 -0.0135 -0.0977
 1239ERGO    R316634  12.410   0.493   6.587  0.2073 -0.0389 -0.0894
 1239ERGO    R416635  12.400   0.612   6.856 -0.4241  0.0116 -0.1121
 1239ERGO    R516636  12.536   0.456   6.788 -0.0716  0.1877  0.1416
 1239ERGO    C116637  12.365   0.274   7.076 -0.3131  0.0024 -0.1126
 1239ERGO    C216638  12.172   0.086   7.276 -0.0084  0.1087 -0.0452
 1240ERGO   ROH16639   2.876   4.498   5.978 -0.1879  0.0080 -0.0719
 1240ERGO    R116640   2.837   4.469   6.256 -0.0620  0.1861 -0.0346
 1240ERGO    R216641   2.634   4.599   6.392 -0.1344  0.1036 -0.0650
 1240ERGO    R316642   2.573   4.347   6.476  0.1271  0.1075  0.1531
 1240ERGO    R416643   2.446   4.524   6.673 -0.2369  0.1617 -0.1175
 1240ERGO    R516644   2.583   4.360   6.715 -0.0535  0.3738  0.1521
 1240ERGO    C116645   2.279   4.244   6.914 -0.0511  0.1990  0.0568
 1240ERGO    C216646   2.131   4.116   7.136 -0.1560 -0.1283  0.1120
 1241ERGO   ROH16647   2.606  12.403   5.954  0.1630 -0.0762 -0.1092
 1241ERGO    R116648   2.420  12.382   6.167  0.1799 -0.1066 -0.0987
 1241ERGO    R216649   2.466  12.226   6.390  0.2113 -0.1109 -0.1130
 1241ERGO    R316650   2.415  12.458   6.523  0.1925 -0.1249 -0.0935
 1241ERGO    R416651   2.373  12.247   6.722  0.3928 -0.1409 -0.0580
 1241ERGO    R516652   2.232  12.405   6.667  0.2941 -0.1976  0.0146
 1241ERGO    C116653   2.270  12.478   7.040  0.4809 -0.1714 -0.0076
 1241ERGO    C216654   2.273  12.444   7.416  0.1351 -0.1441  0.1011
 1242ERGO   ROH16655  11.925   3.937   6.401 -0.0598 -0.0084  0.0549
 1242ERGO    R116656  11.792   4.070   6.613  0.0349 -0.0404  0.1331
 1242ERGO    R216657  11.545   3.990   6.708  0.0541 -0.0124  0.1831
 1242ERGO    R316658  11.675   3.985   6.947  0.1180 -0.1046  0.1489
 1242ERGO    R416659  11.390   3.994   7.017  0.1269  0.1644  0.2200
 1242ERGO    R516660  11.546   4.129   7.087  0.2784  0.0371  0.1652
 1242ERGO    C116661  11.422   3.991   7.421  0.2294  0.1810  0.2093
 1242ERGO    C216662  11.247   4.167   7.693  0.2912  0.1370  0.1847
 1243ERGO   ROH16663  15.684   5.918   6.048  0.0388  0.1188 -0.1003
 1243ERGO    R116664  15.671   6.050   6.298 -0.0476  0.0118 -0.0473
 1243ERGO    R216665  15.435   6.154   6.398 -0.0828 -0.0237 -0.0862
 1243ERGO    R316666  15.497   6.000   6.613 -0.1642 -0.1209 -0.1321
 1243ERGO    R416667  15.421   6.260   6.727  0.0232 -0.1055 -0.0548
 1243ERGO    R516668  15.606   6.150   6.765 -0.0486 -0.2377 -0.1020
 1243ERGO    C116669  15.470   6.177   7.120  0.0087 -0.2444 -0.0797
 1243ERGO    C216670  15.144   6.333   7.412  0.2022 -0.2310  0.0865
 1244ERGO   ROH16671  10.294   1.324   8.695  0.1908  0.1313 -0.0647
 1244ERGO    R116672  10.430   1.282   8.450  0.1574  0.0858 -0.0750
 1244ERGO    R216673  10.343   1.102   8.260  0.1500  0.0304 -0.0136
 1244ERGO    R316674  10.353   1.318   8.095  0.1011 -0.0126 -0.0744
 1244ERGO    R416675  10.389   1.086   7.918 -0.2589 -0.0891 -0.0688
 1244ERGO    R516676  10.520   1.260   7.933 -0.1201 -0.1669 -0.2592
 1244ERGO    C116677  10.426   1.279   7.564 -0.5431 -0.1990 -0.1580
 1244ERGO    C216678  10.393   1.079   7.188  0.0801  0.0972  0.2846
 1245ERGO   ROH16679  15.779  17.351   6.477 -0.0734  0.0364 -0.0619
 1245ERGO    R116680  15.734  17.470   6.729 -0.0392  0.0708 -0.0722
 1245ERGO    R216681  15.484  17.556   6.811 -0.0348  0.0454 -0.0350
 1245ERGO    R316682  15.536  17.396   7.025  0.0339  0.0889 -0.0182
 1245ERGO    R416683  15.315  17.569   7.112 -0.1255 -0.0802 -0.0793
 1245ERGO    R516684  15.505  17.540   7.215 -0.1281  0.0705 -0.0285
 1245ERGO    C116685  15.264  17.427   7.488 -0.1139 -0.1126 -0.0895
 1245ERGO    C216686  15.132  17.254   7.781 -0.1783  0.2499 -0.1246
 1246ERGO   ROH16687  12.649  12.789   6.387  0.2568  0.0339  0.0523
 1246ERGO    R116688  12.727  12.941   6.612  0.0226  0.0562  0.1221
 1246ERGO    R216689  12.548  13.022   6.806 -0.1354 -0.1745  0.0853
 1246ERGO    R316690  12.723  12.899   6.974 -0.0669 -0.0477  0.1074
 1246ERGO    R416691  12.538  13.042   7.151 -0.2045 -0.2181  0.0854
 1246ERGO    R516692  12.756  13.056   7.152 -0.2214 -0.0437  0.1268
 1246ERGO    C116693  12.696  12.937   7.509 -0.1804 -0.1246  0.1062
 1246ERGO    C216694  12.847  12.914   7.766  0.3630  0.1666  0.1759
 1247ERGO   ROH16695  10.306  11.231   6.727  0.0445  0.0095 -0.2074
 1247ERGO    R116696  10.108  11.192   6.926 -0.0193 -0.0566 -0.2859
 1247ERGO    R216697   9.980  10.950   6.962  0.3357 -0.2118 -0.0816
 1247ERGO    R316698  10.065  10.980   7.218  0.1259  0.2262 -0.0522
 1247ERGO    R416699   9.809  10.840   7.242  0.4601 -0.4625 -0.0993
 1247ERGO    R516700   9.866  11.025   7.343 -0.0854 -0.2069 -0.2039
 1247ERGO    C116701   9.790  10.805   7.645  0.3356 -0.1973 -0.0820
 1247ERGO    C216702   9.823  10.720   8.004 -0.1079  0.2002 -0.1048
 1248ERGO   ROH16703   5.756   4.897   5.724 -0.0383 -0.3438  0.1208
 1248ERGO    R116704   5.765   4.915   6.006 -0.0832 -0.0530  0.1069
 1248ERGO    R216705   5.908   4.737   6.162 -0.3201 -0.0549  0.3277
 1248ERGO    R316706   6.021   4.964   6.260 -0.0821 -0.0744  0.1104
 1248ERGO    R416707   6.042   4.771   6.479 -0.2839  0.1061  0.2966
 1248ERGO    R516708   5.954   4.970   6.490 -0.0779  0.2130  0.1094
 1248ERGO    C116709   6.225   5.003   6.755 -0.0395  0.1815  0.0745
 1248ERGO    C216710   6.347   5.026   7.111  0.0247  0.2065 -0.1911
 1249ERGO   ROH16711  16.206  16.625   6.228  0.1502 -0.2574 -0.0386
 1249ERGO    R116712  16.058  16.497   6.432  0.1979 -0.3706 -0.0737
 1249ERGO    R216713  16.149  16.271   6.563  0.4347 -0.1852  0.0972
 1249ERGO    R316714  16.104  16.421   6.785  0.0796 -0.1345 -0.0084
 1249ERGO    R416715  16.113  16.146   6.883  0.2499 -0.0710  0.1222
 1249ERGO    R516716  15.954  16.290   6.917  0.0839 -0.2136 -0.0925
 1249ERGO    C116717  16.050  16.214   7.278 -0.1913  0.0428  0.0375
 1249ERGO    C216718  16.078  15.993   7.577  0.2335  0.1840  0.0266
 1250ERGO   ROH16719  15.986  15.399   6.011 -0.0064  0.0746  0.1895
 1250ERGO    R116720  15.766  15.369   6.187  0.0427  0.0623  0.2489
 1250ERGO    R216721  15.653  15.124   6.242 -0.0033  0.0700  0.1875
 1250ERGO    R316722  15.700  15.197   6.500  0.0985 -0.0454  0.2022
 1250ERGO    R416723  15.556  14.942   6.520 -0.1220  0.0710  0.1472
 1250ERGO    R516724  15.503  15.129   6.618  0.0549  0.0911  0.2101
 1250ERGO    C116725  15.544  14.905   6.924 -0.0956 -0.0368  0.1376
 1250ERGO    C216726  15.428  14.648   7.216 -0.0089  0.0575 -0.1265
 1251ERGO   ROH16727  10.797   7.288   6.416  0.1084 -0.1283  0.0135
 1251ERGO    R116728  10.660   7.346   6.657 -0.1283  0.0974 -0.1683
 1251ERGO    R216729  10.389   7.299   6.689 -0.0609 -0.4090 -0.2112
 1251ERGO    R316730  10.472   7.158   6.906  0.1524  0.2109  0.1337
 1251ERGO    R416731  10.193   7.224   6.963 -0.1044 -0.4603 -0.2573
 1251ERGO    R516732  10.365   7.264   7.091 -0.3202  0.2604 -0.1569
 1251ERGO    C116733  10.157   7.048   7.327  0.0705  0.0919  0.0395
 1251ERGO    C216734  10.043   6.742   7.436 -0.0175  0.1957  0.0900
 1252ERGO   ROH16735  12.960   2.635   6.457  0.0595 -0.1001  0.0274
 1252ERGO    R116736  12.858   2.459   6.654 -0.0957 -0.0081  0.0305
 1252ERGO    R216737  13.016   2.353   6.855 -0.1961 -0.1172  0.0511
 1252ERGO    R316738  12.825   2.459   7.017 -0.1292  0.0419  0.0280
 1252ERGO    R416739  12.993   2.298   7.195 -0.2915 -0.1155  0.0453
 1252ERGO    R516740  12.777   2.285   7.174 -0.3033  0.0735  0.0127
 1252ERGO    C116741  12.800   2.366   7.546 -0.2843  0.0348  0.0203
 1252ERGO    C216742  12.695   2.297   7.852 -0.2446  0.2349  0.1572
 1253ERGO   ROH16743   5.545  11.078   6.079 -0.0718 -0.3166  0.0223
 1253ERGO    R116744   5.592  10.966   6.334  0.1415 -0.2051  0.0326
 1253ERGO    R216745   5.843  10.962   6.451  0.1860  0.0720 -0.0613
 1253ERGO    R316746   5.713  11.084   6.657  0.1525 -0.0114 -0.0412
 1253ERGO    R416747   5.943  10.953   6.782  0.1348 -0.0628 -0.0478
 1253ERGO    R516748   5.734  10.931   6.840  0.1242 -0.0858 -0.0966
 1253ERGO    C116749   5.880  11.062   7.167  0.0736 -0.2196 -0.0211
 1253ERGO    C216750   5.929  10.957   7.371 -0.1000 -0.0220 -0.0568
 1254ERGO   ROH16751   6.111   5.214   5.657  0.0008 -0.0925  0.1176
 1254ERGO    R116752   6.205   5.167   5.920  0.0756 -0.0582  0.0978
 1254ERGO    R216753   6.459   5.237   6.003  0.0405  0.1156  0.0683
 1254ERGO    R316754   6.324   5.368   6.199 -0.0271 -0.0050  0.1029
 1254ERGO    R416755   6.568   5.270   6.329  0.0905  0.2151  0.0416
 1254ERGO    R516756   6.363   5.237   6.396  0.1385  0.0318  0.0933
 1254ERGO    C116757   6.505   5.413   6.703  0.0562  0.1598  0.0586
 1254ERGO    C216758   6.689   5.418   6.927 -0.1389 -0.0732 -0.1494
 1255ERGO   ROH16759   2.894  10.381   6.008  0.0142 -0.1474  0.0121
 1255ERGO    R116760   2.701  10.332   6.210  0.0092 -0.0830  0.0227
 1255ERGO    R216761   2.763  10.208   6.449  0.0054  0.0045  0.0680
 1255ERGO    R316762   2.651  10.431   6.556 -0.0070  0.0379 -0.0134
 1255ERGO    R416763   2.664  10.242   6.779  0.0813  0.1471  0.0777
 1255ERGO    R516764   2.487  10.348   6.710  0.0449  0.0829  0.0682
 1255ERGO    C116765   2.500  10.470   7.071  0.1140  0.2614  0.0068
 1255ERGO    C216766   2.520  10.634   7.367  0.1228 -0.0483  0.1268
 1256ERGO   ROH16767   1.521   7.947   5.868  0.2092 -0.1770  0.0074
 1256ERGO    R116768   1.520   8.064   6.126  0.0427 -0.1641  0.0013
 1256ERGO    R216769   1.287   8.102   6.270 -0.0360 -0.2828 -0.0940
 1256ERGO    R316770   1.422   7.963   6.462 -0.0367 -0.1995 -0.0318
 1256ERGO    R416771   1.279   8.173   6.609 -0.0621 -0.1523 -0.1212
 1256ERGO    R516772   1.492   8.131   6.618 -0.0586 -0.1329 -0.0918
 1256ERGO    C116773   1.400   8.084   6.985 -0.0780  0.0018 -0.0787
 1256ERGO    C216774   1.393   8.294   7.311  0.1291 -0.0369 -0.0445
 1257ERGO   ROH16775   4.331   0.865   6.174  0.0885 -0.1836  0.1906
 1257ERGO    R116776   4.404   0.958   6.431  0.1539 -0.1055  0.1439
 1257ERGO    R216777   4.612   1.136   6.471  0.0046  0.1028  0.0116
 1257ERGO    R316778   4.421   1.280   6.600 -0.0611 -0.0823  0.1253
 1257ERGO    R416779   4.660   1.304   6.769  0.0369  0.1857 -0.0402
 1257ERGO    R516780   4.462   1.238   6.833  0.1453 -0.0167  0.1040
 1257ERGO    C116781   4.509   1.538   7.064 -0.0060  0.0601  0.0363
 1257ERGO    C216782   4.504   1.767   7.350  0.2596 -0.0247 -0.1535
 1258ERGO   ROH16783   7.048   6.244   6.045  0.0402  0.0877  0.0029
 1258ERGO    R116784   7.095   6.106   6.288 -0.1488  0.0421  0.0181
 1258ERGO    R216785   7.324   6.143   6.439 -0.1037 -0.2273  0.0441
 1258ERGO    R316786   7.146   6.195   6.637 -0.0697  0.0110  0.0107
 1258ERGO    R416787   7.406   6.201   6.770 -0.0947 -0.0816  0.0151
 1258ERGO    R516788   7.234   6.083   6.828 -0.1646  0.0770  0.0804
 1258ERGO    C116789   7.285   6.284   7.148 -0.0576  0.2268 -0.0332
 1258ERGO    C216790   7.236   6.469   7.377 -0.0173 -0.2365  0.0586
 1259ERGO   ROH16791  13.650   9.131   6.095 -0.1800 -0.0973  0.0705
 1259ERGO    R116792  13.577   9.067   6.361 -0.0547  0.0508  0.1420
 1259ERGO    R216793  13.574   8.808   6.457 -0.1984  0.0832  0.2301
 1259ERGO    R316794  13.736   8.912   6.649  0.0142  0.0206  0.0878
 1259ERGO    R416795  13.627   8.668   6.769 -0.1749  0.1928  0.2757
 1259ERGO    R516796  13.621   8.868   6.854  0.0776  0.2472  0.1747
 1259ERGO    C116797  13.810   8.684   7.130  0.0384  0.1981  0.1686
 1259ERGO    C216798  14.068   8.528   7.417  0.0197  0.1037  0.3045
 1260ERGO   ROH16799   9.752  12.306   6.809  0.1682  0.0243  0.0196
 1260ERGO    R116800   9.819  12.323   7.083  0.2804  0.1792 -0.0160
 1260ERGO    R216801   9.921  12.552   7.198 -0.1365  0.4085 -0.0871
 1260ERGO    R316802   9.713  12.521   7.370  0.0112 -0.0196  0.0264
 1260ERGO    R416803   9.925  12.641   7.532 -0.0722  0.2231 -0.0366
 1260ERGO    R516804   9.815  12.459   7.577  0.2397  0.0184 -0.0703
 1260ERGO    C116805   9.731  12.663   7.888  0.1039 -0.2868  0.0992
 1260ERGO    C216806   9.806  12.796   8.150  0.0120  0.2542  0.2825
 1261ERGO   ROH16807  16.186   6.824   6.255 -0.2369 -0.2607  0.1056
 1261ERGO    R116808  16.123   6.819   6.531 -0.3533  0.1123  0.0904
 1261ERGO    R216809  16.305   6.739   6.723 -0.6368 -0.2672  0.1997
 1261ERGO    R316810  16.247   6.981   6.833  0.0011 -0.0065  0.0176
 1261ERGO    R416811  16.373   6.830   7.050 -0.7035 -0.3563  0.2400
 1261ERGO    R516812  16.180   6.930   7.057 -0.4254  0.2805 -0.0235
 1261ERGO    C116813  16.358   7.109   7.343 -0.1436 -0.1634  0.0926
 1261ERGO    C216814  16.604   7.215   7.544  0.0449 -0.2643 -0.1830
 1262ERGO   ROH16815  18.283  15.447   6.375  0.0184  0.0859  0.1137
 1262ERGO    R116816  18.506  15.350   6.520  0.0432  0.2248  0.1696
 1262ERGO    R216817  18.546  15.409   6.787 -0.1016  0.1874  0.2009
 1262ERGO    R316818  18.560  15.138   6.811  0.1044  0.1905  0.1334
 1262ERGO    R416819  18.635  15.241   7.076 -0.0395  0.1821  0.1785
 1262ERGO    R516820  18.749  15.101   6.953  0.1003  0.3024  0.1691
 1262ERGO    C116821  18.700  14.889   7.266  0.1901  0.1819  0.1021
 1262ERGO    C216822  18.859  14.713   7.509 -0.1727 -0.3073 -0.5512
 1263ERGO   ROH16823   8.098   3.865   6.260 -0.1836  0.1579  0.0618
 1263ERGO    R116824   8.214   3.972   6.495 -0.0528  0.0497  0.0478
 1263ERGO    R216825   8.101   3.937   6.746  0.0236  0.0341  0.0778
 1263ERGO    R316826   8.348   3.842   6.807  0.0064 -0.0854 -0.0328
 1263ERGO    R416827   8.240   3.939   7.062  0.1218 -0.1305  0.0373
 1263ERGO    R516828   8.431   3.994   6.973  0.1172 -0.1738 -0.0037
 1263ERGO    C116829   8.552   3.850   7.305  0.1629 -0.3386 -0.0900
 1263ERGO    C216830   8.758   3.921   7.566 -0.2274  0.1140  0.2443
 1264ERGO   ROH16831   4.076  16.589   6.318  0.1503 -0.0688  0.0845
 1264ERGO    R116832   4.136  16.418   6.536  0.1163 -0.0952  0.0726
 1264ERGO    R216833   4.038  16.461   6.790  0.1836 -0.0534  0.0888
 1264ERGO    R316834   3.948  16.206   6.765  0.0679 -0.0154  0.1083
 1264ERGO    R416835   3.944  16.258   7.054  0.1971 -0.0237  0.1168
 1264ERGO    R516836   4.042  16.091   6.953  0.0922 -0.0620  0.0706
 1264ERGO    C116837   3.805  15.900   7.183  0.0964  0.0292  0.1514
 1264ERGO    C216838   3.595  15.608   7.249  0.0105  0.2765 -0.3292
 1265ERGO   ROH16839   3.672   2.292   6.387  0.0740  0.0298  0.0085
 1265ERGO    R116840   3.667   2.130   6.619 -0.0591  0.0140 -0.0070
 1265ERGO    R216841   3.818   2.188   6.844 -0.1651 -0.0226  0.0628
 1265ERGO    R316842   3.577   2.174   6.969 -0.2240 -0.0073 -0.0435
 1265ERGO    R416843   3.773   2.136   7.183 -0.2953  0.2931  0.0991
 1265ERGO    R516844   3.606   2.005   7.136 -0.2191  0.1634  0.1419
 1265ERGO    C116845   3.521   2.092   7.497 -0.4265  0.4913  0.0205
 1265ERGO    C216846   3.440   2.148   7.921  0.3147 -0.0007  0.0684
 1266ERGO   ROH16847   7.148   2.425   5.963 -0.0093 -0.3082  0.3535
 1266ERGO    R116848   7.194   2.499   6.232 -0.0275 -0.1578  0.3153
 1266ERGO    R216849   7.303   2.744   6.302 -0.0581 -0.1099  0.1869
 1266ERGO    R316850   7.080   2.761   6.458 -0.0639 -0.0483  0.1725
 1266ERGO    R416851   7.288   2.906   6.607 -0.0562 -0.0046  0.1318
 1266ERGO    R516852   7.163   2.743   6.682 -0.0680  0.0228  0.1831
 1266ERGO    C116853   7.071   3.016   6.931 -0.0605  0.1146  0.0863
 1266ERGO    C216854   7.121   3.054   7.263  0.2591  0.2671 -0.3317
 1267ERGO   ROH16855   7.638  14.543   6.278 -0.1922 -0.3530  0.1722
 1267ERGO    R116856   7.700  14.728   6.483 -0.0547 -0.3183  0.1004
 1267ERGO    R216857   7.505  14.870   6.620  0.0556 -0.0259 -0.0399
 1267ERGO    R316858   7.627  14.763   6.838 -0.1434 -0.0564  0.0583
 1267ERGO    R416859   7.540  15.029   6.925  0.0492  0.0546 -0.0809
 1267ERGO    R516860   7.741  14.948   6.939 -0.0278 -0.1201  0.0454
 1267ERGO    C116861   7.675  15.022   7.307 -0.1415  0.0729 -0.0124
 1267ERGO    C216862   7.690  14.968   7.647 -0.1544  0.0996 -0.1474
 1268ERGO   ROH16863  13.934   2.705   6.509 -0.1568  0.1299 -0.0002
 1268ERGO    R116864  13.980   2.570   6.753  0.1652  0.0842 -0.0813
 1268ERGO    R216865  14.201   2.621   6.912  0.0750  0.4867 -0.0750
 1268ERGO    R316866  14.013   2.662   7.104 -0.0111 -0.0411 -0.0302
 1268ERGO    R416867  14.257   2.595   7.252  0.1143  0.2381 -0.0985
 1268ERGO    R516868  14.063   2.499   7.272  0.2771 -0.1326 -0.1963
 1268ERGO    C116869  14.114   2.619   7.630  0.0560 -0.4022 -0.0703
 1268ERGO    C216870  13.951   2.672   7.922 -0.0281 -0.0825  0.3262
 1269ERGO   ROH16871  17.441  13.987   6.139  0.2613 -0.0714  0.0444
 1269ERGO    R116872  17.332  13.888   6.381  0.2437 -0.1952 -0.0133
 1269ERGO    R216873  17.488  13.838   6.604  0.1754  0.0488  0.0888
 1269ERGO    R316874  17.309  14.003   6.726 -0.1355 -0.1852 -0.0373
 1269ERGO    R416875  17.384  13.810   6.933  0.4213  0.2319  0.1851
 1269ERGO    R516876  17.182  13.858   6.868  0.2619 -0.3029  0.2190
 1269ERGO    C116877  17.156  13.948   7.238  0.2725  0.1186  0.1227
 1269ERGO    C216878  17.006  14.069   7.567  0.1620 -0.2646  0.1541
 1270ERGO   ROH16879  17.142   2.634   7.771  0.0636 -0.0627  0.1964
 1270ERGO    R116880  17.390   2.503   7.729  0.1346 -0.0037  0.4169
 1270ERGO    R216881  17.538   2.537   7.498 -0.0210 -0.5173  0.2252
 1270ERGO    R316882  17.735   2.603   7.674  0.0330  0.1133 -0.0453
 1270ERGO    R416883  17.877   2.505   7.437 -0.0280 -0.4520  0.1478
 1270ERGO    R516884  17.903   2.435   7.641  0.1304  0.1315  0.3417
 1270ERGO    C116885  18.259   2.548   7.565  0.0184  0.1781 -0.1511
 1270ERGO    C216886  18.551   2.705   7.721  0.4373 -0.0775 -0.0015
 1271ERGO   ROH16887  12.739   6.246   6.437 -0.2838 -0.1897  0.0280
 1271ERGO    R116888  12.759   6.315   6.711 -0.1867 -0.0569 -0.0120
 1271ERGO    R216889  12.544   6.301   6.884 -0.1003 -0.0766  0.0941
 1271ERGO    R316890  12.713   6.147   7.031  0.0386  0.0656  0.0870
 1271ERGO    R416891  12.564   6.303   7.229 -0.2526 -0.2289  0.1049
 1271ERGO    R516892  12.781   6.288   7.212 -0.2228  0.0620  0.1905
 1271ERGO    C116893  12.734   6.158   7.568 -0.2108 -0.1842  0.1046
 1271ERGO    C216894  12.679   6.057   7.923 -0.0111  0.1356  0.4362
 1272ERGO   ROH16895   1.383  14.761   6.164  0.0302  0.0485  0.0204
 1272ERGO    R116896   1.570  14.847   6.358  0.0779 -0.0295  0.0084
 1272ERGO    R216897   1.508  14.865   6.627  0.0925  0.0254  0.0038
 1272ERGO    R316898   1.727  14.707   6.655  0.0152 -0.0816  0.0187
 1272ERGO    R416899   1.674  14.806   6.925  0.1300  0.0745 -0.0063
 1272ERGO    R516900   1.862  14.819   6.817  0.1152 -0.0750 -0.0628
 1272ERGO    C116901   1.976  14.622   7.124  0.0792  0.0026  0.0017
 1272ERGO    C216902   2.208  14.685   7.438  0.1828  0.0392  0.3288
 1273ERGO   ROH16903   5.581  15.658   6.721  0.0288 -0.0527  0.1474
 1273ERGO    R116904   5.598  15.730   6.995 -0.0973  0.0431  0.1302
 1273ERGO    R216905   5.373  15.772   7.152 -0.1704 -0.1381  0.0708
 1273ERGO    R316906   5.492  15.587   7.312 -0.0153  0.0271  0.1520
 1273ERGO    R416907   5.373  15.780   7.497 -0.1153  0.0565  0.0680
 1273ERGO    R516908   5.580  15.714   7.495 -0.0664  0.1929  0.0674
 1273ERGO    C116909   5.484  15.611   7.849  0.0623  0.3248  0.1425
 1273ERGO    C216910   5.536  15.276   7.970  0.2374  0.1396 -0.3064
 1274ERGO   ROH16911   6.773   7.587   6.091  0.0006  0.0901  0.1997
 1274ERGO    R116912   6.787   7.709   6.346 -0.1125  0.1487  0.1788
 1274ERGO    R216913   6.571   7.718   6.518 -0.1320  0.0080  0.1637
 1274ERGO    R316914   6.746   7.604   6.692 -0.0503  0.1788  0.1958
 1274ERGO    R416915   6.510   7.669   6.854 -0.1903 -0.1382  0.1317
 1274ERGO    R516916   6.717   7.727   6.895 -0.2698  0.1023  0.2139
 1274ERGO    C116917   6.638   7.532   7.214 -0.1476 -0.0632  0.1432
 1274ERGO    C216918   6.609   7.593   7.399  0.4305  0.1536  0.0452
 1275ERGO   ROH16919   1.854  11.032   5.830  0.0564  0.2865  0.0114
 1275ERGO    R116920   1.716  11.045   6.077  0.0039  0.2437 -0.0160
 1275ERGO    R216921   1.750  10.856   6.276  0.0460  0.2720 -0.0001
 1275ERGO    R316922   1.806  11.074   6.428 -0.0772  0.3044  0.0008
 1275ERGO    R416923   1.718  10.870   6.620  0.2393  0.1758  0.0234
 1275ERGO    R516924   1.638  11.072   6.599  0.0234  0.1050  0.1039
 1275ERGO    C116925   1.751  11.082   6.963  0.2362  0.1502  0.0379
 1275ERGO    C216926   1.632  11.002   7.314  0.1791  0.0267 -0.0064
 1276ERGO   ROH16927  11.990  16.562   6.018 -0.1841 -0.0723  0.0014
 1276ERGO    R116928  11.769  16.510   6.186 -0.1250 -0.0293  0.0935
 1276ERGO    R216929  11.778  16.325   6.390 -0.0608  0.0048  0.1222
 1276ERGO    R316930  11.695  16.535   6.541  0.0095  0.0362  0.1176
 1276ERGO    R416931  11.647  16.299   6.709 -0.0476  0.0568  0.1319
 1276ERGO    R516932  11.501  16.452   6.656 -0.0071  0.0966  0.1339
 1276ERGO    C116933  11.493  16.481   7.037  0.0260  0.1165  0.1331
 1276ERGO    C216934  11.572  16.432   7.380 -0.0283  0.1496  0.3965
 1277ERGO   ROH16935   8.100   8.904   6.182 -0.0992 -0.2229  0.1067
 1277ERGO    R116936   8.212   8.809   6.424 -0.0152 -0.1007  0.1163
 1277ERGO    R216937   8.324   8.978   6.613  0.1064 -0.0105 -0.0359
 1277ERGO    R316938   8.149   8.854   6.780  0.1511  0.1308  0.1194
 1277ERGO    R416939   8.364   8.948   6.955  0.2871  0.1276 -0.0435
 1277ERGO    R516940   8.288   8.745   6.941  0.2004  0.1495  0.0904
 1277ERGO    C116941   8.224   8.815   7.311  0.4343  0.3406  0.0980
 1277ERGO    C216942   8.032   8.701   7.593 -0.0152 -0.1483  0.5594
 1278ERGO   ROH16943  14.799   0.169   6.085  0.1488  0.0789  0.1431
 1278ERGO    R116944  14.892   0.188   6.352  0.0145  0.1045  0.1887
 1278ERGO    R216945  14.790   0.371   6.533 -0.2225 -0.0168  0.1817
 1278ERGO    R316946  14.750   0.149   6.685 -0.1028 -0.0836  0.1182
 1278ERGO    R416947  14.867   0.344   6.869 -0.2703 -0.0505  0.1903
 1278ERGO    R516948  14.938   0.142   6.832 -0.1263  0.0065  0.1529
 1278ERGO    C116949  14.873   0.121   7.207 -0.1858 -0.1327  0.1356
 1278ERGO    C216950  14.612   0.098   7.531 -0.0745  0.0106  0.0753
 1279ERGO   ROH16951   7.697   7.883   6.342  0.1617 -0.0767  0.0835
 1279ERGO    R116952   7.762   8.004   6.589 -0.0057 -0.0586  0.1189
 1279ERGO    R216953   7.575   8.135   6.744 -0.1375 -0.1667  0.0455
 1279ERGO    R316954   7.664   7.965   6.937 -0.1315 -0.1296  0.0771
 1279ERGO    R416955   7.471   8.138   7.074  0.1043  0.1131  0.1245
 1279ERGO    R516956   7.677   8.100   7.134  0.1246 -0.0194 -0.0073
 1279ERGO    C116957   7.494   7.980   7.447  0.2506  0.3107  0.2002
 1279ERGO    C216958   7.490   7.917   7.745  0.0677 -0.1191 -0.2498
 1280ERGO   ROH16959   3.804  10.697   6.117 -0.3073 -0.1718 -0.1880
 1280ERGO    R116960   3.725  10.800   6.368 -0.2049 -0.1602 -0.1600
 1280ERGO    R216961   3.525  10.684   6.520 -0.0506 -0.2339 -0.0101
 1280ERGO    R316962   3.717  10.681   6.712  0.0717 -0.0920 -0.1278
 1280ERGO    R416963   3.469  10.742   6.856  0.1423 -0.0977 -0.0005
 1280ERGO    R516964   3.655  10.857   6.862  0.1151 -0.0412 -0.1684
 1280ERGO    C116965   3.618  10.773   7.232  0.3696  0.1148 -0.1053
 1280ERGO    C216966   3.424  10.949   7.465 -0.0904  0.2533 -0.1548
 1281ERGO   ROH16967   9.555  16.092   6.264 -0.0554  0.1504  0.0035
 1281ERGO    R116968   9.466  16.095   6.533 -0.0910 -0.0699 -0.0040
 1281ERGO    R216969   9.565  15.921   6.724  0.0958 -0.0355 -0.0688
 1281ERGO    R316970   9.616  16.151   6.859 -0.1941 -0.0292  0.0375
 1281ERGO    R416971   9.653  15.939   7.058  0.1300 -0.0886 -0.0750
 1281ERGO    R516972   9.525  16.114   7.077 -0.1090 -0.2679  0.0369
 1281ERGO    C116973   9.753  16.166   7.379 -0.1223 -0.1137  0.0212
 1281ERGO    C216974   9.744  16.175   7.751 -0.0737  0.1350  0.2610
 1282ERGO   ROH16975   6.490  13.854   6.131  0.1254  0.2340 -0.0352
 1282ERGO    R116976   6.530  13.875   6.411 -0.0433  0.1060 -0.0016
 1282ERGO    R216977   6.347  13.994   6.579 -0.1511  0.0025 -0.0597
 1282ERGO    R316978   6.362  13.758   6.712 -0.2065 -0.0545 -0.1493
 1282ERGO    R416979   6.393  13.963   6.920  0.0128 -0.1224 -0.0907
 1282ERGO    R516980   6.528  13.796   6.880 -0.0892 -0.1894 -0.2214
 1282ERGO    C116981   6.435  13.723   7.243  0.0564 -0.2486 -0.1929
 1282ERGO    C216982   6.546  13.736   7.526 -0.2461  0.1418  0.2225
 1283ERGO   ROH16983   3.409   1.081   6.472 -0.0804  0.1018 -0.0086
 1283ERGO    R116984   3.514   1.141   6.728 -0.2158  0.0778  0.0542
 1283ERGO    R216985   3.377   1.085   6.962 -0.1998 -0.2620 -0.0089
 1283ERGO    R316986   3.606   0.954   7.026 -0.0298 -0.0011 -0.0504
 1283ERGO    R416987   3.490   1.031   7.283 -0.1025 -0.1835 -0.0290
 1283ERGO    R516988   3.692   1.073   7.215 -0.1545  0.0723 -0.0386
 1283ERGO    C116989   3.771   0.876   7.531  0.1136  0.1072 -0.0797
 1283ERGO    C216990   4.013   0.705   7.754 -0.3225 -0.0994  0.2465
 1284ERGO   ROH16991  14.212  15.168   6.164  0.0049  0.2807 -0.0069
 1284ERGO    R116992  14.126  15.322   6.385 -0.0926  0.2224 -0.0028
 1284ERGO    R216993  13.863  15.403   6.417 -0.1580  0.0168  0.0255
 1284ERGO    R316994  13.889  15.283   6.659 -0.0307  0.0437  0.0247
 1284ERGO    R416995  13.682  15.485   6.700 -0.1814 -0.1216  0.0504
 1284ERGO    R516996  13.863  15.460   6.817 -0.1478  0.0237  0.0245
 1284ERGO    C116997  13.601  15.419   7.092 -0.0754 -0.1769  0.0642
 1284ERGO    C216998  13.298  15.489   7.221 -0.1859 -0.1769  0.0106
 1285ERGO   ROH16999   4.993  13.650   6.467  0.0786 -0.0517 -0.1400
 1285ERGO    R117000   5.093  13.390   6.515  0.0422 -0.0493 -0.0500
 1285ERGO    R217001   5.358  13.341   6.577  0.0301 -0.0622 -0.0095
 1285ERGO    R317002   5.251  13.214   6.792 -0.0064  0.0166  0.0199
 1285ERGO    R417003   5.539  13.161   6.810  0.0305  0.2898  0.2720
 1285ERGO    R517004   5.379  13.012   6.811  0.1637  0.1456  0.2778
 1285ERGO    C117005   5.543  12.936   7.147 -0.0035  0.5690  0.4634
 1285ERGO    C217006   5.843  12.997   7.417 -0.0733 -0.1431  0.0683
 1286ERGO   ROH17007   4.100   6.161   5.659  0.2112  0.0055  0.0057
 1286ERGO    R117008   3.947   6.145   5.896  0.1085  0.1203 -0.0513
 1286ERGO    R217009   3.927   5.913   6.045 -0.1419  0.1267 -0.0699
 1286ERGO    R317010   4.011   6.073   6.247 -0.0808  0.0459 -0.0312
 1286ERGO    R417011   3.872   5.853   6.381 -0.3364  0.1648 -0.0940
 1286ERGO    R517012   3.833   6.065   6.408 -0.1565  0.2005 -0.1051
 1286ERGO    C117013   3.919   5.968   6.766 -0.3923  0.1111 -0.0716
 1286ERGO    C217014   3.796   5.925   7.119 -0.2761  0.0616  0.3089
 1287ERGO   ROH17015  17.611  13.538   6.101 -0.2374 -0.3296  0.0323
 1287ERGO    R117016  17.805  13.651   6.273 -0.2274 -0.1203 -0.1126
 1287ERGO    R217017  17.824  13.582   6.540 -0.1404  0.1172 -0.0564
 1287ERGO    R317018  18.083  13.530   6.475 -0.1403  0.1379 -0.0734
 1287ERGO    R417019  18.068  13.483   6.764 -0.1775 -0.0996 -0.1092
 1287ERGO    R517020  18.209  13.614   6.660 -0.1490 -0.0299  0.0118
 1287ERGO    C117021  18.453  13.377   6.833 -0.1987 -0.2065 -0.1559
 1287ERGO    C217022  18.764  13.360   7.062 -0.0774  0.0311  0.2159
 1288ERGO   ROH17023  18.063   0.519   6.208 -0.0193  0.1937  0.1478
 1288ERGO    R117024  18.008   0.603   6.472  0.1523  0.0482  0.2317
 1288ERGO    R217025  17.761   0.571   6.591  0.1513  0.2232  0.2808
 1288ERGO    R317026  17.905   0.445   6.784  0.0780 -0.0849  0.1406
 1288ERGO    R417027  17.709   0.605   6.931  0.1344 -0.1818  0.3237
 1288ERGO    R517028  17.925   0.607   6.959  0.1327 -0.3113  0.3493
 1288ERGO    C117029  17.814   0.507   7.310  0.0557 -0.7068  0.2171
 1288ERGO    C217030  17.877   0.283   7.662 -0.1984  0.2818 -0.0624
 1289ERGO   ROH17031   8.448   3.513   6.255  0.4070 -0.1244 -0.2036
 1289ERGO    R117032   8.441   3.535   6.537  0.1311 -0.1542 -0.2060
 1289ERGO    R217033   8.532   3.335   6.704  0.2335 -0.0534 -0.1480
 1289ERGO    R317034   8.684   3.535   6.808 -0.1036  0.1283  0.0132
 1289ERGO    R417035   8.685   3.325   7.013  0.5236 -0.2096 -0.2919
 1289ERGO    R517036   8.630   3.534   7.042  0.0877 -0.3500  0.0723
 1289ERGO    C117037   8.917   3.506   7.292  0.3759 -0.1299 -0.2243
 1289ERGO    C217038   8.998   3.440   7.624  0.0954  0.3740  0.1080
 1290ERGO   ROH17039  17.556  14.923   6.362 -0.1856  0.1458  0.1577
 1290ERGO    R117040  17.570  15.016   6.629 -0.0220  0.1580  0.1457
 1290ERGO    R217041  17.454  14.881   6.840  0.1327  0.1514  0.2274
 1290ERGO    R317042  17.704  14.894   6.945  0.2015  0.1873  0.0644
 1290ERGO    R417043  17.528  14.852   7.176  0.3912 -0.2099  0.1459
 1290ERGO    R517044  17.675  15.011   7.152  0.2693 -0.0806  0.2315
 1290ERGO    C117045  17.806  14.848   7.471  0.6067 -0.3866 -0.0546
 1290ERGO    C217046  17.843  14.642   7.718 -0.1658 -0.0551  0.1865
 1291ERGO   ROH17047   5.810   9.372   6.114  0.1138 -0.0415 -0.0407
 1291ERGO    R117048   6.008   9.397   6.315  0.0679  0.3181 -0.0330
 1291ERGO    R217049   6.032   9.623   6.473 -0.4025  0.3381  0.0284
 1291ERGO    R317050   6.014   9.443   6.676 -0.0342  0.2367 -0.0212
 1291ERGO    R417051   6.025   9.704   6.809 -0.2404  0.2012  0.0656
 1291ERGO    R517052   6.154   9.533   6.848 -0.0063  0.3364 -0.0967
 1291ERGO    C117053   6.004   9.583   7.195  0.1998  0.0262  0.0407
 1291ERGO    C217054   6.070   9.826   7.390  0.2326  0.2743 -0.0443
 1292ERGO   ROH17055   5.517  15.045   6.217  0.1123  0.0146 -0.0201
 1292ERGO    R117056   5.516  15.026   6.499  0.1437  0.0670 -0.0177
 1292ERGO    R217057   5.546  15.247   6.663 -0.0271  0.1193 -0.0647
 1292ERGO    R317058   5.314  15.156   6.772  0.0530 -0.0481 -0.0275
 1292ERGO    R417059   5.435  15.322   6.981 -0.2074  0.3611 -0.1803
 1292ERGO    R517060   5.369  15.116   7.002  0.0472  0.2906  0.0423
 1292ERGO    C117061   5.153  15.281   7.270 -0.2372  0.3446 -0.2128
 1292ERGO    C217062   5.041  15.408   7.539 -0.0723 -0.0642  0.0795
 1293ERGO   ROH17063  16.645  14.750   6.301  0.0546  0.1317  0.0084
 1293ERGO    R117064  16.495  14.780   6.540  0.0265  0.0621 -0.0005
 1293ERGO    R217065  16.522  14.609   6.755 -0.0013 -0.0028 -0.0485
 1293ERGO    R317066  16.566  14.839   6.892 -0.0149 -0.0443  0.0263
 1293ERGO    R417067  16.409  14.672   7.075 -0.0732 -0.0833 -0.0575
 1293ERGO    R517068  16.363  14.876   7.013 -0.0414 -0.0616 -0.0123
 1293ERGO    C117069  16.385  14.926   7.390 -0.1279 -0.1691  0.0075
 1293ERGO    C217070  16.565  14.852   7.734  0.1512 -0.1601 -0.0548
 1294ERGO   ROH17071   9.461   5.284   6.053 -0.2483 -0.1209  0.1623
 1294ERGO    R117072   9.530   5.150   6.292 -0.2618 -0.1817  0.1329
 1294ERGO    R217073   9.648   5.279   6.506  0.0341 -0.2987  0.0516
 1294ERGO    R317074   9.439   5.174   6.644 -0.0181 -0.0281  0.1865
 1294ERGO    R417075   9.671   5.130   6.817 -0.0258 -0.0903  0.1584
 1294ERGO    R517076   9.529   4.979   6.749 -0.1611 -0.0225  0.3104
 1294ERGO    C117077   9.489   4.944   7.127 -0.1096  0.2851  0.3473
 1294ERGO    C217078   9.433   4.669   7.325  0.0358  0.0934  0.2510
 1295ERGO   ROH17079  15.100  11.945   6.163 -0.0784  0.1092  0.1365
 1295ERGO    R117080  15.144  12.074   6.411 -0.0255  0.1259  0.1200
 1295ERGO    R217081  15.221  11.938   6.638 -0.2341  0.0960  0.1834
 1295ERGO    R317082  15.423  12.120   6.640 -0.0469 -0.1073  0.1923
 1295ERGO    R417083  15.345  12.092   6.922 -0.0668 -0.0337  0.1816
 1295ERGO    R517084  15.359  12.278   6.808  0.1223 -0.0464  0.1940
 1295ERGO    C117085  15.606  12.353   7.088  0.2062 -0.3002  0.1890
 1295ERGO    C217086  15.710  12.282   7.424 -0.1826  0.0046 -0.1654
 1296ERGO   ROH17087   2.109   0.096   6.451 -0.0355  0.2849  0.0072
 1296ERGO    R117088   2.090   0.348   6.579 -0.1851  0.2843 -0.0099
 1296ERGO    R217089   1.855   0.440   6.692 -0.1923  0.0643  0.1726
 1296ERGO    R317090   2.011   0.470   6.913 -0.0368  0.2432  0.0401
 1296ERGO    R417091   1.802   0.673   6.941 -0.2438  0.0083  0.2123
 1296ERGO    R517092   2.017   0.707   6.950 -0.2723  0.2513  0.0291
 1296ERGO    C117093   1.917   0.837   7.294 -0.1280  0.1438  0.1111
 1296ERGO    C217094   1.764   1.172   7.422 -0.2579  0.1047 -0.1946
 1297ERGO   ROH17095   5.250  16.021   6.802  0.0086  0.2083  0.0465
 1297ERGO    R117096   5.078  16.068   7.021  0.0002  0.1508  0.0527
 1297ERGO    R217097   5.162  16.197   7.251 -0.0286  0.1596  0.0591
 1297ERGO    R317098   4.950  16.359   7.198 -0.0719  0.1072  0.0718
 1297ERGO    R417099   4.969  16.354   7.491 -0.1475 -0.0072  0.0742
 1297ERGO    R517100   4.792  16.309   7.371 -0.1002 -0.0196  0.0096
 1297ERGO    C117101   4.658  16.598   7.581 -0.2572 -0.1532  0.0950
 1297ERGO    C217102   4.587  17.017   7.747 -0.1996  0.3723 -0.0504
 1298ERGO   ROH17103   5.569   1.787   6.376 -0.1153 -0.0248  0.0614
 1298ERGO    R117104   5.721   1.737   6.609 -0.0896  0.1275  0.0782
 1298ERGO    R217105   5.618   1.766   6.864 -0.1935 -0.1115  0.0641
 1298ERGO    R317106   5.703   1.510   6.893  0.1886  0.0022 -0.0004
 1298ERGO    R417107   5.746   1.632   7.156 -0.1652 -0.0384  0.0855
 1298ERGO    R517108   5.894   1.526   7.036  0.0794  0.2408  0.1261
 1298ERGO    C117109   5.901   1.314   7.353  0.2100  0.1110  0.0374
 1298ERGO    C217110   6.108   1.361   7.623  0.0390 -0.2153  0.0405
 1299ERGO   ROH17111  17.712  16.811   6.012  0.1634 -0.0432 -0.1033
 1299ERGO    R117112  17.605  16.812   6.274  0.2543  0.1737 -0.0654
 1299ERGO    R217113  17.544  16.581   6.411 -0.1150  0.2900 -0.0251
 1299ERGO    R317114  17.705  16.688   6.602  0.1495  0.0222 -0.0893
 1299ERGO    R417115  17.589  16.451   6.729 -0.1686  0.1849 -0.0597
 1299ERGO    R517116  17.586  16.655   6.807  0.1883  0.1889 -0.0362
 1299ERGO    C117117  17.766  16.477   7.092  0.0485 -0.1278 -0.1403
 1299ERGO    C217118  17.759  16.444   7.482  0.2663  0.0087  0.0654
 1300ERGO   ROH17119  15.152   7.115   6.129 -0.1090 -0.0979 -0.0015
 1300ERGO    R117120  15.121   7.215   6.391 -0.1665  0.0142 -0.0505
 1300ERGO    R217121  15.027   7.061   6.599 -0.1203  0.0748  0.0158
 1300ERGO    R317122  15.256   7.140   6.721 -0.1597  0.2224 -0.0046
 1300ERGO    R417123  15.053   7.145   6.933 -0.1363  0.0538  0.0224
 1300ERGO    R517124  15.186   7.309   6.876 -0.2589  0.1546  0.0247
 1300ERGO    C117125  15.285   7.268   7.242 -0.1826  0.1802  0.0072
 1300ERGO    C217126  15.397   7.405   7.547 -0.0269 -0.1355 -0.1252
 1301ERGO   ROH17127   5.032   5.793   6.086  0.1224  0.1179  0.0564
 1301ERGO    R117128   5.057   5.868   6.357  0.0078  0.0801  0.0780
 1301ERGO    R217129   4.853   5.834   6.540 -0.0005 -0.1269  0.0305
 1301ERGO    R317130   5.045   5.701   6.680  0.0817 -0.0005  0.0400
 1301ERGO    R417131   4.845   5.777   6.881 -0.1274 -0.3765 -0.0121
 1301ERGO    R517132   5.059   5.819   6.888 -0.1754 -0.1262  0.1344
 1301ERGO    C117133   5.020   5.618   7.211 -0.1241 -0.4032 -0.0281
 1301ERGO    C217134   5.122   5.548   7.573 -0.0579  0.1142  0.0533
 1302ERGO   ROH17135   8.056   6.927   5.920  0.1486 -0.0866 -0.1995
 1302ERGO    R117136   8.112   6.855   6.188 -0.0024 -0.1611 -0.1870
 1302ERGO    R217137   8.256   7.019   6.359  0.0764 -0.2985 -0.1242
 1302ERGO    R317138   8.038   6.989   6.519 -0.0035 -0.1324 -0.1980
 1302ERGO    R417139   8.230   7.139   6.682  0.0173 -0.1772 -0.1731
 1302ERGO    R517140   8.130   6.954   6.737 -0.1029 -0.1096 -0.1499
 1302ERGO    C117141   8.010   7.181   7.020 -0.0921  0.0493 -0.2707
 1302ERGO    C217142   7.837   7.258   7.436 -0.0721  0.0487 -0.2209
 1303ERGO   ROH17143  10.609   0.823   6.081 -0.0101  0.0918  0.0900
 1303ERGO    R117144  10.579   1.036   6.265 -0.2251  0.1805 -0.0413
 1303ERGO    R217145  10.349   1.189   6.278 -0.4428 -0.1178 -0.0504
 1303ERGO    R317146  10.356   1.117   6.540 -0.2258  0.0537 -0.0078
 1303ERGO    R417147  10.207   1.369   6.537 -0.2877 -0.0024 -0.0462
 1303ERGO    R517148  10.382   1.324   6.659 -0.1913  0.1248 -0.1535
 1303ERGO    C117149  10.130   1.407   6.933  0.0064  0.2259 -0.0037
 1303ERGO    C217150  10.018   1.449   7.287 -0.0783  0.0120  0.1762
 1304ERGO   ROH17151   6.537  11.610   6.232  0.0144 -0.0021  0.0976
 1304ERGO    R117152   6.506  11.570   6.510  0.0604  0.0402  0.1086
 1304ERGO    R217153   6.696  11.440   6.663  0.1205  0.1345  0.1110
 1304ERGO    R317154   6.684  11.667   6.812  0.0613  0.1569  0.0714
 1304ERGO    R417155   6.869  11.492   6.958 -0.2069  0.0659  0.3209
 1304ERGO    R517156   6.692  11.590   7.039 -0.2579  0.1726  0.0940
 1304ERGO    C117157   6.958  11.736   7.270 -0.4530  0.0471  0.4059
 1304ERGO    C217158   7.180  11.803   7.520  0.3127  0.0329  0.1019
 1305ERGO   ROH17159  10.839  11.604   6.557  0.0882  0.3081 -0.1605
 1305ERGO    R117160  11.024  11.596   6.771 -0.0394 -0.0344 -0.0567
 1305ERGO    R217161  11.120  11.824   6.894  0.2705 -0.2093  0.0336
 1305ERGO    R317162  11.031  11.702   7.119 -0.0581 -0.1042 -0.0345
 1305ERGO    R417163  11.187  11.929   7.216  0.1775 -0.3103  0.0866
 1305ERGO    R517164  11.212  11.721   7.274 -0.1398 -0.3513  0.0988
 1305ERGO    C117165  11.141  11.876   7.615 -0.1851 -0.2705  0.0536
 1305ERGO    C217166  11.198  11.987   7.976 -0.1045 -0.0548 -0.0052
 1306ERGO   ROH17167  10.447  15.603   6.531  0.1753 -0.2098 -0.1306
 1306ERGO    R117168  10.522  15.723   6.776  0.0985 -0.2443 -0.0901
 1306ERGO    R217169  10.449  15.618   7.021  0.0573 -0.3018 -0.1283
 1306ERGO    R317170  10.717  15.627   7.069  0.0447 -0.2678 -0.0613
 1306ERGO    R417171  10.593  15.654   7.333 -0.0327  0.0265 -0.1212
 1306ERGO    R517172  10.740  15.789   7.244  0.0020 -0.0766 -0.2257
 1306ERGO    C117173  10.927  15.684   7.560 -0.0968  0.2495 -0.0540
 1306ERGO    C217174  10.982  15.621   7.989  0.0161 -0.0989 -0.0553
 1307ERGO   ROH17175  15.796  11.114   6.152 -0.2995  0.0588  0.0033
 1307ERGO    R117176  15.861  11.258   6.387 -0.2422  0.0446 -0.0042
 1307ERGO    R217177  15.708  11.244   6.616 -0.1192 -0.0682  0.0697
 1307ERGO    R317178  15.945  11.177   6.732 -0.0255  0.0173 -0.0596
 1307ERGO    R417179  15.765  11.234   6.957  0.0204 -0.2001  0.0436
 1307ERGO    R517180  15.961  11.322   6.922 -0.0408 -0.0598  0.0058
 1307ERGO    C117181  16.021  11.164   7.264  0.1896 -0.1967 -0.0929
 1307ERGO    C217182  16.137  11.130   7.545  0.0555  0.1061  0.0644
 1308ERGO   ROH17183  12.662   2.804   6.183 -0.1934  0.0079 -0.0422
 1308ERGO    R117184  12.539   2.881   6.426 -0.1156  0.0866 -0.0265
 1308ERGO    R217185  12.442   2.697   6.609 -0.1619  0.1453  0.0130
 1308ERGO    R317186  12.603   2.833   6.781 -0.0685  0.0948 -0.0346
 1308ERGO    R417187  12.402   2.707   6.952 -0.0128  0.1060  0.0317
 1308ERGO    R517188  12.454   2.918   6.947  0.0185  0.0955  0.0403
 1308ERGO    C117189  12.530   2.841   7.313  0.1618  0.0358 -0.0020
 1308ERGO    C217190  12.737   2.854   7.615 -0.1078  0.1885 -0.3758
 1309ERGO   ROH17191   9.112  14.013   6.774 -0.1479 -0.0800  0.1356
 1309ERGO    R117192   9.264  14.092   6.999 -0.1362 -0.0304  0.1124
 1309ERGO    R217193   9.154  14.225   7.214 -0.1376 -0.0290  0.1183
 1309ERGO    R317194   9.266  14.021   7.356 -0.0857  0.0012  0.1174
 1309ERGO    R417195   9.226  14.237   7.552  0.2398  0.1361  0.0345
 1309ERGO    R517196   9.413  14.131   7.510  0.1395  0.0184 -0.1078
 1309ERGO    C117197   9.374  14.054   7.881  0.5082  0.2605 -0.0152
 1309ERGO    C217198   9.428  14.088   8.200 -0.0345 -0.0540 -0.0488
 1310ERGO   ROH17199   3.458  12.727   6.032  0.0205 -0.2748 -0.0688
 1310ERGO    R117200   3.494  12.701   6.311  0.0303 -0.2085 -0.0644
 1310ERGO    R217201   3.452  12.910   6.486  0.1030 -0.1488 -0.1209
 1310ERGO    R317202   3.288  12.731   6.609  0.0584 -0.0660 -0.0580
 1310ERGO    R417203   3.349  12.932   6.816  0.0818  0.0134 -0.1370
 1310ERGO    R517204   3.374  12.715   6.832  0.0395  0.0132 -0.0429
 1310ERGO    C117205   3.135  12.777   7.123  0.0277  0.1857 -0.0874
 1310ERGO    C217206   3.184  12.865   7.532  0.1937  0.1600 -0.0268
 1311ERGO   ROH17207   4.383  11.684   6.252  0.1491  0.1587  0.0751
 1311ERGO    R117208   4.255  11.644   6.502  0.0559 -0.0379 -0.0026
 1311ERGO    R217209   4.288  11.413   6.650  0.2397 -0.0301 -0.0356
 1311ERGO    R317210   4.360  11.588   6.846 -0.0693  0.0137  0.0453
 1311ERGO    R417211   4.208  11.379   6.985  0.0594 -0.1793 -0.0918
 1311ERGO    R517212   4.171  11.594   6.993 -0.1750 -0.2153 -0.0733
 1311ERGO    C117213   4.229  11.522   7.363 -0.3356 -0.2248 -0.0486
 1311ERGO    C217214   4.298  11.682   7.641  0.0303 -0.2749  0.3048
 1312ERGO   ROH17215  15.118   4.246   6.365  0.1282  0.1210 -0.0364
 1312ERGO    R117216  15.065   4.383   6.608  0.2695  0.0834  0.0165
 1312ERGO    R217217  14.843   4.331   6.763  0.1758  0.3004 -0.0397
 1312ERGO    R317218  15.028   4.294   6.959  0.1046 -0.0266 -0.0282
 1312ERGO    R417219  14.775   4.337   7.102  0.1286  0.1686 -0.0463
 1312ERGO    R517220  14.961   4.446   7.132  0.2469 -0.0573  0.0531
 1312ERGO    C117221  14.909   4.306   7.483  0.0342 -0.2150 -0.0393
 1312ERGO    C217222  14.918   4.099   7.773  0.2961  0.0527  0.0719
 1313ERGO   ROH17223   8.189   2.342   6.216  0.0806 -0.1430 -0.1186
 1313ERGO    R117224   8.296   2.467   6.446 -0.1075 -0.0310 -0.0899
 1313ERGO    R217225   8.137   2.582   6.640 -0.2787 -0.1857 -0.1344
 1313ERGO    R317226   8.277   2.419   6.806 -0.1602 -0.0451 -0.0947
 1313ERGO    R417227   8.098   2.571   6.983 -0.1770 -0.0406 -0.1173
 1313ERGO    R517228   8.315   2.553   7.002 -0.1639  0.0641 -0.1684
 1313ERGO    C117229   8.207   2.411   7.339 -0.0065  0.1758 -0.0701
 1313ERGO    C217230   7.918   2.439   7.640 -0.1026 -0.1081  0.0420
 1314ERGO   ROH17231   4.814  10.142   6.118  0.0163  0.2138  0.0670
 1314ERGO    R117232   4.666  10.155   6.359  0.1120  0.0456  0.1374
 1314ERGO    R217233   4.472   9.970   6.424 -0.0429  0.1400 -0.0353
 1314ERGO    R317234   4.618   9.944   6.652  0.0176 -0.2918 -0.1149
 1314ERGO    R417235   4.378   9.782   6.699 -0.3209  0.1978 -0.0886
 1314ERGO    R517236   4.455   9.941   6.827  0.0876 -0.0257 -0.0417
 1314ERGO    C117237   4.461   9.649   7.073 -0.4259 -0.1737 -0.1944
 1314ERGO    C217238   4.587   9.372   7.169  0.0504 -0.1654 -0.0121
 1315ERGO   ROH17239  15.496  14.708   5.869 -0.1932  0.1082 -0.1322
 1315ERGO    R117240  15.411  14.798   6.123 -0.2464  0.2349 -0.1946
 1315ERGO    R217241  15.154  14.884   6.172 -0.3936 -0.1981 -0.1831
 1315ERGO    R317242  15.163  14.698   6.370  0.0500  0.0335  0.0310
 1315ERGO    R417243  14.965  14.895   6.462 -0.4735 -0.3394 -0.2280
 1315ERGO    R517244  15.140  14.825   6.572 -0.2984  0.2189 -0.1126
 1315ERGO    C117245  14.864  14.726   6.816 -0.1036 -0.2043 -0.0533
 1315ERGO    C217246  14.850  14.669   7.148  0.0482 -0.0505  0.2251
 1316ERGO   ROH17247   3.054  12.463   6.207 -0.0109  0.0684 -0.1978
 1316ERGO    R117248   2.879  12.535   6.417 -0.0361 -0.0432 -0.1791
 1316ERGO    R217249   2.820  12.364   6.627  0.1042 -0.0778 -0.1623
 1316ERGO    R317250   2.902  12.575   6.778 -0.0182 -0.0150 -0.1844
 1316ERGO    R417251   2.699  12.440   6.941  0.0967 -0.1379 -0.1513
 1316ERGO    R517252   2.702  12.651   6.886 -0.0519 -0.1415 -0.1623
 1316ERGO    C117253   2.705  12.682   7.267 -0.0226 -0.1140 -0.1657
 1316ERGO    C217254   2.730  12.784   7.591 -0.3216  0.2397 -0.1277
 1317ERGO   ROH17255  15.499  12.278   6.129  0.3062  0.2436 -0.1030
 1317ERGO    R117256  15.601  12.489   6.288  0.2635  0.1770  0.0148
 1317ERGO    R217257  15.469  12.585   6.510  0.1719  0.1239 -0.0168
 1317ERGO    R317258  15.706  12.534   6.633  0.1062  0.0490  0.0808
 1317ERGO    R417259  15.559  12.701   6.823  0.1662  0.2860 -0.0747
 1317ERGO    R517260  15.760  12.737   6.747  0.2131  0.0959 -0.0501
 1317ERGO    C117261  15.834  12.721   7.121  0.1013  0.3100 -0.0170
 1317ERGO    C217262  15.912  12.815   7.388 -0.0911  0.3812  0.0124
 1318ERGO   ROH17263  10.806   9.222   6.515 -0.0351  0.2470  0.1690
 1318ERGO    R117264  10.864   8.968   6.624 -0.0152  0.2009  0.0561
 1318ERGO    R217265  11.032   8.933   6.842  0.0752  0.1050 -0.0194
 1318ERGO    R317266  10.817   8.801   6.944  0.0995  0.0977  0.0177
 1318ERGO    R417267  11.039   8.729   7.120  0.1149  0.1269 -0.0059
 1318ERGO    R517268  10.906   8.592   7.018  0.1164  0.1129  0.0250
 1318ERGO    C117269  10.843   8.486   7.379  0.1608  0.1328  0.0369
 1318ERGO    C217270  10.632   8.480   7.732  0.2682 -0.1221 -0.5808
 1319ERGO   ROH17271   2.881   8.422   5.790  0.0170 -0.0755 -0.1398
 1319ERGO    R117272   2.807   8.377   6.060 -0.0475 -0.0182 -0.1471
 1319ERGO    R217273   2.917   8.173   6.212 -0.1218 -0.0196 -0.0924
 1319ERGO    R317274   2.975   8.376   6.383 -0.1121 -0.0049 -0.1137
 1319ERGO    R417275   2.986   8.134   6.548 -0.1694  0.0171 -0.0787
 1319ERGO    R517276   2.868   8.314   6.588 -0.1467  0.0402 -0.1184
 1319ERGO    C117277   3.080   8.302   6.905 -0.1881  0.0523 -0.0907
 1319ERGO    C217278   3.357   8.272   7.094  0.0156 -0.0387 -0.1819
 1320ERGO   ROH17279  16.591   7.034   6.233 -0.0521  0.1925 -0.0210
 1320ERGO    R117280  16.509   7.101   6.496 -0.0115  0.0660  0.0258
 1320ERGO    R217281  16.655   7.031   6.720  0.0111 -0.0707 -0.0222
 1320ERGO    R317282  16.641   7.297   6.773  0.0510 -0.0949  0.1085
 1320ERGO    R417283  16.776   7.183   7.006 -0.0854 -0.2315  0.1050
 1320ERGO    R517284  16.599   7.309   7.008 -0.0495 -0.1960  0.0902
 1320ERGO    C117285  16.833   7.521   7.222 -0.1041 -0.3477  0.3017
 1320ERGO    C217286  17.196   7.751   7.369  0.1974  0.1636  0.3939
 1321ERGO   ROH17287  15.537   0.894   6.485  0.0504 -0.0121 -0.2690
 1321ERGO    R117288  15.704   1.055   6.646  0.0209 -0.1852 -0.0574
 1321ERGO    R217289  15.749   1.323   6.594  0.3033 -0.2015  0.0436
 1321ERGO    R317290  15.666   1.354   6.851  0.0532 -0.1964 -0.0371
 1321ERGO    R417291  15.853   1.576   6.805  0.2450 -0.3089  0.1994
 1321ERGO    R517292  15.862   1.430   6.967 -0.0198 -0.3430  0.1827
 1321ERGO    C117293  15.836   1.752   7.169 -0.0237 -0.3666  0.2144
 1321ERGO    C217294  15.975   2.052   7.413 -0.1221  0.2704 -0.0539
 1322ERGO   ROH17295   8.400  10.392   6.341 -0.1528  0.1801  0.0068
 1322ERGO    R117296   8.494  10.376   6.608 -0.2244  0.1361  0.0291
 1322ERGO    R217297   8.324  10.344   6.824 -0.2655 -0.1086 -0.0408
 1322ERGO    R317298   8.486  10.132   6.877 -0.1015  0.0029 -0.0859
 1322ERGO    R417299   8.420  10.241   7.140 -0.3908 -0.2479 -0.0463
 1322ERGO    R517300   8.619  10.203   7.063 -0.2963 -0.0030  0.0613
 1322ERGO    C117301   8.627   9.983   7.374 -0.3099 -0.2246 -0.0919
 1322ERGO    C217302   8.775   9.925   7.691  0.1980 -0.3287  0.4161
 1323ERGO   ROH17303  17.637   8.366   6.359 -0.1647 -0.0921  0.0724
 1323ERGO    R117304  17.666   8.527   6.590 -0.0702 -0.1142  0.0764
 1323ERGO    R217305  17.541   8.773   6.616 -0.0058 -0.0865  0.1234
 1323ERGO    R317306  17.447   8.663   6.846  0.0242 -0.0791  0.1394
 1323ERGO    R417307  17.495   8.945   6.912  0.0252 -0.0747  0.1216
 1323ERGO    R517308  17.572   8.771   7.019  0.0425 -0.0684  0.1199
 1323ERGO    C117309  17.379   8.942   7.301  0.0717 -0.0610  0.1356
 1323ERGO    C217310  17.565   9.094   7.632 -0.0593 -0.2816 -0.6092
 1324ERGO   ROH17311  17.333   7.809   6.284  0.1180 -0.0410  0.0448
 1324ERGO    R117312  17.310   7.976   6.512  0.1060  0.0139  0.0046
 1324ERGO    R217313  17.342   7.881   6.769 -0.0766  0.0386  0.0422
 1324ERGO    R317314  17.526   8.080   6.786  0.0372 -0.0698  0.0895
 1324ERGO    R417315  17.418   8.057   7.057 -0.1595  0.1098  0.0205
 1324ERGO    R517316  17.429   8.238   6.937  0.0364  0.0522 -0.0425
 1324ERGO    C117317  17.636   8.347   7.239 -0.1008  0.0496  0.0522
 1324ERGO    C217318  17.782   8.568   7.559  0.1126  0.1909  0.2326
 1325ERGO   ROH17319   5.090  12.072   6.492 -0.0936 -0.2227 -0.1233
 1325ERGO    R117320   5.130  11.963   6.750 -0.1939 -0.0860 -0.0494
 1325ERGO    R217321   5.377  11.961   6.873 -0.1823 -0.2890 -0.0808
 1325ERGO    R317322   5.242  12.085   7.074 -0.0124  0.0162 -0.1479
 1325ERGO    R417323   5.445  11.923   7.210 -0.2871 -0.2699 -0.0565
 1325ERGO    R517324   5.230  11.921   7.248 -0.3047  0.0961 -0.0830
 1325ERGO    C117325   5.358  12.017   7.594 -0.1887  0.0275 -0.1052
 1325ERGO    C217326   5.661  12.041   7.788  0.1607  0.1878  0.2944
 1326ERGO   ROH17327   7.743  11.086   6.485 -0.0656  0.0449 -0.1130
 1326ERGO    R117328   7.684  11.141   6.756 -0.0830  0.0603 -0.1200
 1326ERGO    R217329   7.520  11.349   6.834 -0.1069  0.0499 -0.1440
 1326ERGO    R317330   7.386  11.152   6.965 -0.0934  0.0470 -0.1341
 1326ERGO    R417331   7.299  11.400   7.095 -0.0015  0.0361 -0.0507
 1326ERGO    R517332   7.381  11.224   7.193  0.0043  0.0012 -0.1173
 1326ERGO    C117333   7.044  11.245   7.369  0.0725  0.0252  0.0130
 1326ERGO    C217334   6.838  11.229   7.630  0.1707  0.1826  0.2333
 1327ERGO   ROH17335  16.607  16.771   6.097 -0.1464 -0.2178 -0.1827
 1327ERGO    R117336  16.605  16.694   6.369  0.2147 -0.1369 -0.1525
 1327ERGO    R217337  16.672  16.866   6.572  0.0631  0.0596 -0.2606
 1327ERGO    R317338  16.430  16.793   6.672  0.2666 -0.3594 -0.0490
 1327ERGO    R417339  16.569  16.923   6.898  0.0770  0.2969 -0.2954
 1327ERGO    R517340  16.478  16.723   6.897  0.5318  0.0750  0.0373
 1327ERGO    C117341  16.282  16.887   7.181  0.2762  0.0414 -0.1171
 1327ERGO    C217342  16.136  16.726   7.445 -0.0938 -0.0853  0.0543
 1328ERGO   ROH17343  16.556  12.336   6.334  0.0272  0.2684  0.1599
 1328ERGO    R117344  16.524  12.177   6.567 -0.0139  0.1439  0.0688
 1328ERGO    R217345  16.723  12.150   6.756 -0.0704  0.0849  0.1101
 1328ERGO    R317346  16.527  12.231   6.927 -0.1346 -0.0442  0.1014
 1328ERGO    R417347  16.753  12.159   7.101 -0.1436 -0.0706  0.1227
 1328ERGO    R517348  16.548  12.084   7.115 -0.1353 -0.1341  0.0395
 1328ERGO    C117349  16.586  12.241   7.461 -0.2464 -0.2822  0.1218
 1328ERGO    C217350  16.895  12.187   7.662 -0.2037  0.1931  0.0259
 1329ERGO   ROH17351   7.706   4.751   6.219  0.0154 -0.0042  0.0753
 1329ERGO    R117352   7.642   4.791   6.491 -0.0487  0.0769  0.0482
 1329ERGO    R217353   7.384   4.837   6.578 -0.0883 -0.0442 -0.0117
 1329ERGO    R317354   7.436   4.626   6.742  0.0172  0.0595  0.0925
 1329ERGO    R417355   7.218   4.772   6.875 -0.1327 -0.0367 -0.0342
 1329ERGO    R517356   7.410   4.715   6.963 -0.1134  0.1378  0.0492
 1329ERGO    C117357   7.170   4.536   7.201 -0.0596  0.0651  0.0506
 1329ERGO    C217358   7.097   4.458   7.452 -0.0715  0.0152 -0.0895
 1330ERGO   ROH17359   2.953   9.356   5.919 -0.0111 -0.1315 -0.1206
 1330ERGO    R117360   3.101   9.291   6.151  0.0285  0.0444 -0.0965
 1330ERGO    R217361   3.103   9.451   6.376 -0.1796  0.0601 -0.1090
 1330ERGO    R317362   3.028   9.222   6.501  0.0561 -0.0172 -0.1019
 1330ERGO    R417363   3.091   9.409   6.719 -0.2293  0.0935 -0.1056
 1330ERGO    R517364   3.173   9.209   6.692  0.0208  0.1826 -0.0561
 1330ERGO    C117365   3.013   9.169   7.036 -0.0369  0.0404 -0.0969
 1330ERGO    C217366   3.167   9.193   7.336  0.5715 -0.0002  0.2598
 1331ERGO   ROH17367  10.021   1.462   6.034  0.2198  0.1146  0.0872
 1331ERGO    R117368   9.952   1.666   6.217 -0.0962 -0.0054  0.1064
 1331ERGO    R217369   9.825   1.613   6.457  0.2080 -0.2611  0.2155
 1331ERGO    R317370  10.034   1.751   6.562 -0.0080  0.2365  0.0287
 1331ERGO    R417371   9.831   1.751   6.774  0.1625 -0.2519  0.2131
 1331ERGO    R517372   9.932   1.925   6.690 -0.3151  0.0016  0.1209
 1331ERGO    C117373  10.032   1.960   7.057 -0.0667  0.2206  0.0364
 1331ERGO    C217374  10.165   1.971   7.320  0.2182 -0.1498 -0.2518
 1332ERGO   ROH17375   9.138  17.447   6.320 -0.2234 -0.0240  0.0254
 1332ERGO    R117376   9.256  17.429   6.577 -0.2433 -0.0486  0.0335
 1332ERGO    R217377   9.529  17.409   6.615 -0.2465 -0.1029  0.0519
 1332ERGO    R317378   9.490  17.625   6.775 -0.2174 -0.0950  0.0474
 1332ERGO    R417379   9.765  17.541   6.831 -0.2134 -0.0918  0.0084
 1332ERGO    R517380   9.606  17.571   6.977 -0.1871 -0.0828  0.0304
 1332ERGO    C117381   9.865  17.820   7.107 -0.1669 -0.0779 -0.0213
 1332ERGO    C217382  10.179  18.171   7.205 -0.6530 -0.0891  0.1414
 1333ERGO   ROH17383  11.164   2.426   5.918 -0.2376 -0.0825  0.0173
 1333ERGO    R117384  11.300   2.469   6.163 -0.1417 -0.0058 -0.0496
 1333ERGO    R217385  11.243   2.683   6.328 -0.1776 -0.0377 -0.0292
 1333ERGO    R317386  11.209   2.489   6.515  0.0220 -0.0506 -0.0028
 1333ERGO    R417387  11.214   2.740   6.667 -0.1204 -0.0245 -0.0255
 1333ERGO    R517388  11.339   2.564   6.702  0.0251  0.0666 -0.0463
 1333ERGO    C117389  11.165   2.590   7.041  0.1003 -0.0290  0.0015
 1333ERGO    C217390  10.982   2.531   7.368 -0.0092 -0.1864  0.3561
 1334ERGO   ROH17391  11.361  16.623   6.254 -0.0220  0.1810  0.0475
 1334ERGO    R117392  11.171  16.665   6.459 -0.0590  0.0041  0.0518
 1334ERGO    R217393  11.047  16.456   6.592  0.1063 -0.1139  0.0289
 1334ERGO    R317394  11.141  16.585   6.813  0.0044 -0.0617  0.0419
 1334ERGO    R417395  11.022  16.338   6.916 -0.0706 -0.0180  0.0508
 1334ERGO    R517396  10.978  16.541   6.982 -0.0851  0.0028 -0.0295
 1334ERGO    C117397  11.095  16.390   7.311 -0.2691  0.0871  0.0757
 1334ERGO    C217398  11.069  16.184   7.588 -0.1126 -0.0057 -0.0530
 1335ERGO   ROH17399   0.427  13.803   5.770  0.0765 -0.1022 -0.1163
 1335ERGO    R117400   0.458  13.797   6.052 -0.0532  0.1277 -0.0962
 1335ERGO    R217401   0.642  13.634   6.178 -0.3544 -0.0304  0.1387
 1335ERGO    R317402   0.724  13.868   6.290 -0.0440 -0.0403 -0.0527
 1335ERGO    R417403   0.833  13.661   6.465 -0.5379 -0.0600  0.2659
 1335ERGO    R517404   0.710  13.830   6.526 -0.3068  0.2282 -0.0140
 1335ERGO    C117405   1.020  13.896   6.737 -0.3535 -0.0866  0.1604
 1335ERGO    C217406   1.215  13.959   6.964 -0.0067 -0.2800  0.0312
 1336ERGO   ROH17407  16.534   4.889   6.112 -0.1797 -0.2575  0.1588
 1336ERGO    R117408  16.533   4.821   6.387 -0.1670 -0.0731  0.2063
 1336ERGO    R217409  16.638   4.986   6.581 -0.0920  0.0279  0.0860
 1336ERGO    R317410  16.392   4.960   6.692 -0.0881  0.1774  0.1307
 1336ERGO    R417411  16.576   4.976   6.921 -0.0212 -0.1035  0.0951
 1336ERGO    R517412  16.428   4.820   6.884 -0.1626  0.0430  0.0453
 1336ERGO    C117413  16.308   4.945   7.223  0.0236 -0.0396  0.1424
 1336ERGO    C217414  16.317   4.976   7.641 -0.2892 -0.0783  0.0113
 1337ERGO   ROH17415  15.339  17.121   6.368 -0.1355 -0.1080  0.0135
 1337ERGO    R117416  15.382  17.164   6.644  0.1018 -0.2238 -0.0026
 1337ERGO    R217417  15.183  17.253   6.815  0.3634  0.1794  0.1167
 1337ERGO    R317418  15.250  17.031   6.956 -0.0186  0.0121  0.0464
 1337ERGO    R417419  15.078  17.183   7.136  0.1175  0.1513  0.0326
 1337ERGO    R517420  15.277  17.108   7.180 -0.0154 -0.1488  0.0945
 1337ERGO    C117421  15.080  16.934   7.456 -0.3842 -0.0221 -0.0824
 1337ERGO    C217422  14.905  16.736   7.592  0.0631  0.0427 -0.0124
 1338ERGO   ROH17423   5.089  14.249   6.544  0.0622 -0.0019 -0.0392
 1338ERGO    R117424   4.946  14.247   6.788 -0.0362 -0.0968 -0.0954
 1338ERGO    R217425   4.929  14.023   6.949  0.1179 -0.0906 -0.0591
 1338ERGO    R317426   5.024  14.192   7.140 -0.1189  0.0417 -0.0562
 1338ERGO    R417427   4.934  13.956   7.288  0.2145 -0.0805 -0.0593
 1338ERGO    R517428   4.876  14.162   7.325 -0.0746 -0.1654 -0.0571
 1338ERGO    C117429   5.027  14.076   7.664  0.0484  0.0495 -0.0566
 1338ERGO    C217430   5.174  14.125   7.913  0.1863  0.3104 -0.1290
 1339ERGO   ROH17431  13.235  10.143   6.037  0.0968 -0.0914 -0.0279
 1339ERGO    R117432  13.269  10.078   6.311  0.0763 -0.1353 -0.0360
 1339ERGO    R217433  13.094  10.164   6.507  0.0828 -0.1368 -0.0322
 1339ERGO    R317434  13.081   9.899   6.565  0.0398 -0.1428 -0.0674
 1339ERGO    R417435  13.009  10.032   6.815  0.0997 -0.1597 -0.0370
 1339ERGO    R517436  13.164   9.882   6.789  0.0688 -0.1876 -0.0797
 1339ERGO    C117437  12.947   9.706   7.049  0.0691 -0.1789 -0.0730
 1339ERGO    C217438  13.034   9.542   7.279  0.1824 -0.0796  0.1699
 1340ERGO   ROH17439   3.278   1.938   6.504  0.0634 -0.1156 -0.0396
 1340ERGO    R117440   3.210   2.046   6.757  0.3338  0.0737 -0.0435
 1340ERGO    R217441   3.007   1.942   6.913  0.0966  0.5571 -0.0165
 1340ERGO    R317442   3.203   1.928   7.101  0.0900  0.1190 -0.0305
 1340ERGO    R417443   2.954   1.893   7.251  0.0233  0.4909 -0.0369
 1340ERGO    R517444   3.110   2.039   7.292  0.2925  0.1997  0.0262
 1340ERGO    C117445   3.106   1.852   7.625 -0.0255  0.0411 -0.0618
 1340ERGO    C217446   3.186   1.716   7.920  0.1471 -0.1903 -0.0138
 1341ERGO   ROH17447  18.087   3.589   6.031  0.1056  0.1838 -0.1431
 1341ERGO    R117448  18.311   3.553   6.201  0.0276  0.0972 -0.0568
 1341ERGO    R217449  18.409   3.754   6.363  0.1164  0.0983 -0.1056
 1341ERGO    R317450  18.377   3.568   6.558 -0.0791  0.1973 -0.0418
 1341ERGO    R417451  18.544   3.777   6.680  0.1245  0.0643 -0.1071
 1341ERGO    R517452  18.589   3.563   6.670 -0.0915  0.0183 -0.0311
 1341ERGO    C117453  18.593   3.615   7.048 -0.0543  0.1375 -0.0481
 1341ERGO    C217454  18.757   3.492   7.394  0.3986 -0.0444  0.0912
 1342ERGO   ROH17455   5.672  11.491   6.234  0.0896  0.0954 -0.0881
 1342ERGO    R117456   5.899  11.414   6.384  0.0856  0.1846 -0.0335
 1342ERGO    R217457   6.039  11.591   6.544 -0.0536  0.2283  0.0480
 1342ERGO    R317458   5.992  11.405   6.736 -0.0185  0.1651 -0.0069
 1342ERGO    R417459   6.225  11.554   6.833  0.0257  0.1007 -0.0208
 1342ERGO    R517460   6.210  11.338   6.809 -0.0070  0.1133 -0.0947
 1342ERGO    C117461   6.289  11.357   7.181  0.1049 -0.0330 -0.1125
 1342ERGO    C217462   6.378  11.497   7.428 -0.4482  0.2491 -0.1332
 1343ERGO   ROH17463  13.370   3.397   6.360 -0.0331  0.2293  0.0260
 1343ERGO    R117464  13.450   3.430   6.630 -0.1770  0.4102  0.0481
 1343ERGO    R217465  13.272   3.497   6.830 -0.3844  0.0507 -0.0096
 1343ERGO    R317466  13.371   3.274   6.949  0.0523  0.2547  0.0323
 1343ERGO    R417467  13.267   3.437   7.170 -0.3173  0.0824 -0.0021
 1343ERGO    R517468  13.468   3.354   7.153 -0.1363  0.4818  0.0399
 1343ERGO    C117469  13.356   3.191   7.480  0.1317  0.2924  0.0416
 1343ERGO    C217470  13.223   3.068   7.748  0.1873  0.3660 -0.1173
 1344ERGO   ROH17471  12.028  10.141   6.465  0.0163  0.2774 -0.1519
 1344ERGO    R117472  12.125  10.096   6.727 -0.0125  0.2044 -0.1546
 1344ERGO    R217473  12.118  10.290   6.925 -0.1116  0.1196 -0.0807
 1344ERGO    R317474  11.988  10.097   7.064 -0.0669  0.0196 -0.1737
 1344ERGO    R417475  12.149  10.236   7.265 -0.2301  0.0864 -0.0742
 1344ERGO    R517476  12.147  10.022   7.226 -0.0904  0.0853 -0.1136
 1344ERGO    C117477  12.044  10.023   7.594 -0.2572 -0.0267 -0.1577
 1344ERGO    C217478  11.831  10.092   7.987 -0.0013 -0.1961  0.0965
 1345W        W17479  13.568   3.388   5.404  0.1204  0.1945 -0.0819
 1346W        W17480   0.537   3.887  14.743 -0.5211  0.1438  0.1698
 1347W        W17481  13.765   8.864   5.522 -0.1071  0.1850 -0.0689
 1348W        W17482  11.508   3.745   5.002  0.0708 -0.2055 -0.2174
 1349W        W17483  11.975   9.528   0.673  0.2638  0.0481 -0.0008
 1350W        W17484  13.688   1.284  11.071 -0.0805  0.2602 -0.1068
 1351W        W17485  10.458  13.881   2.792  0.0202  0.0935  0.0249
 1352W        W17486  10.743   6.776   4.125 -0.0702  0.1851 -0.0172
 1353W        W17487   1.577   5.161  13.365  0.1369  0.0945 -0.0647
 1354W        W17488  14.039  16.748  12.157  0.0690 -0.3257  0.1110
 1355W        W17489  13.501  10.815   2.076  0.3674  0.2753  0.1612
 1356W        W17490  15.905   4.277   9.724 -0.1511  0.0634 -0.3112
 1357W        W17491  12.590  13.002  14.951  0.0621 -0.0897  0.3366
 1358W        W17492  17.419  14.124  11.244 -0.1242  0.1139  0.0644
 1359W        W17493   0.315   2.099   2.604  0.0121  0.0836 -0.1016
 1360W        W17494   5.161   8.319   4.485 -0.1947  0.0366  0.2572
 1361W        W17495   5.291   5.620   0.740 -0.1676 -0.2774  0.0731
 1362W        W17496   0.418   0.130  14.278  0.0353  0.1925 -0.1410
 1363W        W17497   9.329  15.183   2.991 -0.1705  0.0417 -0.0115
 1364W        W17498   9.964  17.146  11.996 -0.0300  0.3330  0.1811
 1365W        W17499  16.690   2.785   2.605  0.1143 -0.1066 -0.0565
 1366W        W17500   8.309   6.703  14.253 -0.1112  0.2388  0.2061
 1367W        W17501   0.897  15.129   0.151  0.0842  0.1055 -0.0015
 1368W        W17502   3.139  17.450  14.842  0.3004  0.3464  0.1332
 1369W        W17503   4.063  14.204  13.805  0.1007  0.2389  0.0750
 1370W        W17504   6.101   7.431  12.996 -0.1956 -0.2451  0.3138
 1371W        W17505  11.626  14.429  14.909  0.1316  0.0885 -0.3259
 1372W        W17506   2.896   4.482   1.683  0.1323  0.1328 -0.0475
 1373W        W17507   4.975  10.398  13.401 -0.1627 -0.2519 -0.1764
 1374W        W17508   7.315   7.102   2.128  0.1525 -0.0080 -0.1884
 1375W        W17509   8.304  13.834   3.467  0.2120 -0.1221 -0.2106
 1376W        W17510   5.975  18.039  11.291  0.1832 -0.2840 -0.0120
 1377W        W17511  16.695   0.200   3.585  0.3430  0.1731 -0.1199
 1378W        W17512  15.727  17.774   4.708 -0.1344  0.0722  0.3582
 1379W        W17513   5.645  12.424  12.497 -0.1185  0.0534 -0.2091
 1380W        W17514   5.405   4.871  14.732 -0.0119  0.2657  0.3463
 1381W        W17515   4.350  11.405   0.811  0.0041  0.0135 -0.0645
 1382W        W17516  11.987  12.799   2.295  0.0046  0.0313 -0.1324
 1383W        W17517   3.336   4.422  14.941  0.0491 -0.1553 -0.0472
 1384W        W17518   0.436  16.615  14.747 -0.1685  0.1196 -0.2588
 1385W        W17519   7.268   8.010   0.674  0.0665  0.1659 -0.0184
 1386W        W17520   4.378   3.998   5.235 -0.0100  0.0651  0.2236
 1387W        W17521   2.563  11.957  13.678 -0.1962  0.0185  0.2726
 1388W        W17522   5.784  15.738   1.220 -0.1306  0.0159 -0.0174
 1389W        W17523  17.767   7.666  14.973 -0.0428  0.1922 -0.0779
 1390W        W17524  16.906   6.928  15.881  0.3824 -0.1338  0.0014
 1391W        W17525  15.277   5.397  11.639  0.0004  0.0453  0.0762
 1392W        W17526  12.264  13.577   5.206 -0.3633  0.0646  0.3334
 1393W        W17527  13.718  10.691  13.803 -0.2482  0.2270 -0.1909
 1394W        W17528   3.668   6.470   2.189  0.0425  0.1244  0.0668
 1395W        W17529  12.142   5.094   1.297 -0.2950 -0.0811 -0.2337
 1396W        W17530   7.550   5.374  10.931  0.2146 -0.3256 -0.0161
 1397W        W17531  12.700  10.643  10.258  0.0694 -0.2292  0.3201
 1398W        W17532  15.378   2.641   5.545 -0.2429  0.4466 -0.1795
 1399W        W17533  12.511   7.566  13.088  0.1654  0.1316 -0.0648
 1400W        W17534  11.578   7.769   1.877  0.1749 -0.0877 -0.0492
 1401W        W17535   7.990   0.927   4.103  0.1344 -0.1550 -0.1485
 1402W        W17536   4.038  14.166   5.460  0.0114 -0.0787  0.1287
 1403W        W17537   5.706  14.638  11.006  0.2255 -0.4755  0.2817
 1404W        W17538   3.365  15.494   5.141 -0.2065 -0.0429 -0.4105
 1405W        W17539   2.601   9.451  10.994 -0.1769  0.0786  0.2059
 1406W        W17540   6.943   5.804  10.452  0.0363  0.0719  0.0601
 1407W        W17541   0.862   3.184   1.469 -0.0058  0.0919 -0.0572
 1408W        W17542   3.123   6.771   2.683  0.2533 -0.0441 -0.1321
 1409W        W17543   8.883  14.157   4.642  0.4233  0.0807 -0.0866
 1410W        W17544  14.989   1.447  13.574 -0.0114 -0.0665 -0.3067
 1411W        W17545   4.228  15.155   2.491 -0.0403  0.0496  0.0158
 1412W        W17546  16.768   8.079   2.457 -0.1892  0.2197  0.3285
 1413W        W17547  15.851  16.891   5.172  0.3793  0.0713  0.3397
 1414W        W17548   5.738  15.874   4.331  0.1560  0.0072  0.0011
 1415W        W17549   1.148  18.158  10.844 -0.2263  0.1225  0.1083
 1416W        W17550   8.475   1.327  14.760  0.0457  0.0924 -0.1644
 1417W        W17551  11.757  15.613  14.428 -0.1915  0.1617  0.0061
 1418W        W17552   2.224  18.089   3.886  0.0954 -0.1324  0.1622
 1419W        W17553   8.698  14.184  14.379  0.3637 -0.1947  0.0953
 1420W        W17554   4.010   0.689  14.940 -0.0904  0.2367  0.0046
 1421W        W17555  11.318  11.859   3.990 -0.1216 -0.1920  0.4064
 1422W        W17556   8.314   1.371   3.334  0.0084 -0.1199 -0.0009
 1423W        W17557  11.509  11.235  11.849 -0.0094  0.0199 -0.0766
 1424W        W17558  10.085  11.135  11.872  0.1445  0.1391  0.0003
 1425W        W17559  15.709   0.072   4.500  0.2338  0.1338 -0.1194
 1426W        W17560  15.554   2.470  11.086 -0.1547 -0.0889  0.2991
 1427W        W17561   3.267  15.266   5.574 -0.1679 -0.1323  0.0518
 1428W        W17562  17.195  10.290  12.197 -0.0531 -0.0771  0.1605
 1429W        W17563   3.955   9.048  12.129  0.0442  0.0680 -0.1474
 1430W        W17564  17.469  12.838   0.797 -0.0631 -0.0332  0.1497
 1431W        W17565  13.052   2.097   5.059 -0.0427  0.1229 -0.2426
 1432W        W17566  13.386   9.876   2.954  0.4053  0.0275  0.1252
 1433W        W17567  11.289  16.764   4.898  0.4465 -0.0596  0.1820
 1434W        W17568   6.029  11.009   3.305  0.0090  0.2200  0.1659
 1435W        W17569  14.843  16.578   1.794 -0.3454 -0.1556 -0.0213
 1436W        W17570  12.167   7.114  11.437  0.4234  0.1304  0.1556
 1437W        W17571  10.378   5.861   0.492  0.0275  0.0338 -0.1967
 1438W        W17572  11.328   3.775  12.392  0.2289 -0.2352  0.1483
 1439W        W17573  14.151   8.785   2.866 -0.0393 -0.0106  0.1399
 1440W        W17574  13.264   0.054   0.394 -0.0179  0.1279 -0.0726
 1441W        W17575   6.153  14.704   4.240 -0.3506  0.2791 -0.1578
 1442W        W17576  12.206   5.829  10.099  0.0900 -0.0052  0.0682
 1443W        W17577   9.799   4.919  14.473  0.0761 -0.4256  0.0067
 1444W        W17578  11.619  12.788   5.432  0.0712  0.3210  0.1581
 1445W        W17579   4.298   3.266   1.204  0.0003  0.1992 -0.0864
 1446W        W17580   3.690   0.208   2.072  0.0899 -0.1450  0.2477
 1447W        W17581   1.966   5.015  15.132  0.0301 -0.1411  0.0475
 1448W        W17582   6.740   4.579   4.439 -0.0421  0.1763 -0.4702
 1449W        W17583   2.743  17.328   4.063  0.2307  0.0561  0.1271
 1450W        W17584  18.273   3.635  11.629  0.0515  0.0119  0.2270
 1451W        W17585   2.743   3.557   3.762  0.0160  0.2271 -0.0162
 1452W        W17586  16.780  14.423  13.555 -0.0990 -0.1318 -0.0149
 1453W        W17587  15.881   5.951  11.585 -0.0457  0.1875  0.0337
 1454W        W17588  12.343   5.623  15.050  0.3071  0.0075 -0.0125
 1455W        W17589  13.074   9.450   2.857 -0.0317  0.0654  0.3305
 1456W        W17590  12.339   4.197  11.406  0.0395  0.2492 -0.1777
 1457W        W17591   4.929   2.042   1.369 -0.0217  0.1726  0.0513
 1458W        W17592  16.393   2.682  12.728  0.2989 -0.0283 -0.0225
 1459W        W17593   1.697  12.853  10.903 -0.1180  0.0551 -0.1091
 1460W        W17594   5.496  13.367   5.649  0.0035 -0.4858  0.0720
 1461W        W17595   9.669   4.325   3.941 -0.1728 -0.3331  0.1360
 1462W        W17596  13.238   7.805   1.972  0.0032  0.1037  0.0141
 1463W        W17597   0.966   8.156  14.776  0.0461  0.2862 -0.1121
 1464W        W17598  17.257   7.960  11.467 -0.2139  0.4850  0.0610
 1465W        W17599  13.103   2.288  13.403 -0.0691  0.2468  0.1691
 1466W        W17600   8.661   2.015  15.708  0.3071  0.1456 -0.3142
 1467W        W17601  11.942  11.677   3.249 -0.0108 -0.2188 -0.2455
 1468W        W17602  10.453  13.666  15.708 -0.0545  0.0093 -0.0638
 1469W        W17603   7.089   0.447   2.062 -0.1164 -0.1036 -0.3408
 1470W        W17604   7.684   5.189  13.019 -0.0759 -0.3937 -0.1382
 1471W        W17605   7.453   9.870   2.651  0.0003  0.1949 -0.2004
 1472W        W17606   6.426   7.409   4.656 -0.0359 -0.1345  0.3020
 1473W        W17607  11.242  10.162   1.265  0.1737 -0.0626 -0.0555
 1474W        W17608   9.615   3.438   5.325  0.1282 -0.0306  0.4339
 1475W        W17609   4.670  16.547   1.918 -0.0497  0.0317  0.0842
 1476W        W17610  13.304  12.273   1.246  0.0331  0.2339  0.1131
 1477W        W17611   0.506   7.183   5.233 -0.3124  0.2287 -0.2627
 1478W        W17612   6.772  11.710  12.265  0.1903 -0.0199  0.2890
 1479W        W17613  16.636   7.358   0.025 -0.3554  0.0654 -0.0909
 1480W        W17614  17.344   2.542  14.912 -0.1974  0.0881  0.1547
 1481W        W17615  13.657   8.832   1.914  0.1121 -0.0375  0.3533
 1482W        W17616   7.316  10.829   2.306 -0.1483 -0.0458 -0.3066
 1483W        W17617  14.255  11.398   2.203  0.0862 -0.0753 -0.3476
 1484W        W17618  13.280   6.008  15.196 -0.0095  0.0781 -0.0119
 1485W        W17619   9.929  13.169  12.375  0.0227 -0.0636  0.1493
 1486W        W17620   3.019  15.464  12.949 -0.0399  0.0495  0.0710
 1487W        W17621  17.352   7.271   0.344  0.0639  0.0333 -0.3801
 1488W        W17622  13.939  13.051  12.157  0.0355  0.0414 -0.0723
 1489W        W17623   1.901   6.861  12.911 -0.1255 -0.2174  0.1921
 1490W        W17624  14.684  16.576  12.934  0.0992  0.1229  0.0819
 1491W        W17625  17.402  17.041   4.335  0.0360  0.1110 -0.2909
 1492W        W17626  10.202  11.544   2.838 -0.4467 -0.4118  0.1187
 1493W        W17627   5.888  10.279   0.611 -0.0835 -0.0575 -0.0309
 1494W        W17628   1.431   6.556   0.713 -0.1343  0.2262  0.0676
 1495W        W17629   7.697   9.450   1.938  0.0009  0.2974  0.1566
 1496W        W17630  15.869   4.839   1.405  0.0725  0.0336  0.0032
 1497W        W17631   7.723   8.847   2.704 -0.2560 -0.0392  0.1207
 1498W        W17632   5.864  11.395   2.978  0.1448  0.4195  0.2996
 1499W        W17633  12.128  15.160  11.265 -0.0242  0.0498 -0.2202
 1500W        W17634   7.638  16.114   1.800  0.1665  0.0215 -0.0770
 1501W        W17635  13.118  12.023   2.070  0.1033 -0.1217 -0.2956
 1502W        W17636  14.023  10.901  15.774 -0.1536 -0.2288  0.2362
 1503W        W17637   0.766  18.359   2.667 -0.1143  0.1682  0.4054
 1504W        W17638   0.574  13.500  15.398 -0.3909  0.0939 -0.2050
 1505W        W17639   0.518  10.970  13.470 -0.0955  0.1521 -0.0169
 1506W        W17640   4.635   2.814  10.547  0.1638  0.0377  0.1065
 1507W        W17641  17.483   5.233  15.184  0.4078  0.1289  0.1160
 1508W        W17642   4.210   1.531  11.312  0.0118  0.0461  0.1870
 1509W        W17643  10.148  15.587   5.229  0.0098  0.2044 -0.2105
 1510W        W17644  13.864   1.076  13.753  0.0700 -0.3010 -0.0196
 1511W        W17645   3.998  14.203   3.097  0.2308 -0.0183  0.1329
 1512W        W17646   8.249  12.011  13.506  0.4200 -0.0629  0.0118
 1513W        W17647   7.802  14.670  15.328 -0.4133  0.0403 -0.0766
 1514W        W17648   5.635   6.939   4.893 -0.0582  0.0308 -0.1141
 1515W        W17649  10.805  13.392   9.938  0.3776  0.0239 -0.0028
 1516W        W17650   0.984   9.529   5.438  0.3259  0.1123 -0.3213
 1517W        W17651  14.941  12.950   5.049  0.0965 -0.1115  0.3503
 1518W        W17652   6.193   6.474  15.159 -0.2122  0.0102  0.1730
 1519W        W17653   6.799   5.499  12.114 -0.1068  0.3797  0.0431
 1520W        W17654   8.094  15.644   6.322 -0.1115 -0.0201 -0.1259
 1521W        W17655   9.727   1.401   4.590 -0.1515  0.1911 -0.1284
 1522W        W17656   0.049   4.117   2.925  0.0784  0.0025  0.0359
 1523W        W17657   7.310  11.294  11.585  0.2207 -0.2152 -0.3277
 1524W        W17658  14.236   5.067   2.315 -0.0699 -0.0275 -0.0806
 1525W        W17659   6.060   0.235   3.151 -0.2493  0.1263 -0.2541
 1526W        W17660   7.324   4.165   3.559 -0.1069 -0.1370  0.2261
 1527W        W17661   3.318   8.724   0.127  0.1108  0.0011  0.0146
 1528W        W17662  17.048   9.726   0.566 -0.0469  0.0479  0.1415
 1529W        W17663   3.193   8.988   3.022 -0.0920  0.0915 -0.0110
 1530W        W17664   0.909   8.406   3.052  0.2487 -0.1922 -0.0653
 1531W        W17665   8.720   5.248  14.637  0.1382  0.0670  0.2028
 1532W        W17666  12.278   1.933   2.335 -0.1916 -0.2492  0.0214
 1533W        W17667  18.007  11.836   5.401 -0.0924  0.1896 -0.0554
 1534W        W17668   1.787   2.971   4.126 -0.0905 -0.0132  0.2142
 1535W        W17669   1.820  15.659   2.703 -0.1449 -0.1364 -0.2113
 1536W        W17670   9.466  15.348   0.494 -0.1437 -0.1988  0.0347
 1537W        W17671   2.873   6.376   9.804  0.5371 -0.1257  0.2091
 1538W        W17672  11.680  14.500  10.031  0.1143  0.1142  0.1622
 1539W        W17673  13.752  12.237  11.927  0.2624 -0.0295  0.3827
 1540W        W17674  15.913  12.332   1.847  0.3648  0.0064 -0.0376
 1541W        W17675  11.757   3.563  11.437 -0.1016  0.1404 -0.2129
 1542W        W17676   1.404   6.178   5.595  0.1117 -0.0449  0.0113
 1543W        W17677  15.282   7.067  13.482  0.3792 -0.0144  0.0953
 1544W        W17678   4.620   3.567   4.877 -0.4558 -0.2288  0.0856
 1545W        W17679   2.821  15.018  11.765  0.2592 -0.0284  0.0282
 1546W        W17680  16.331   2.925   0.078  0.0055 -0.1857  0.2029
 1547W        W17681  16.926   9.255  13.639  0.0243 -0.2077 -0.2023
 1548W        W17682  12.966   8.774   1.015  0.1440 -0.0584  0.1353
 1549W        W17683   9.245   7.570   0.315 -0.1393 -0.2728 -0.0204
 1550W        W17684  15.875   3.233   4.542  0.0048 -0.3759  0.0900
 1551W        W17685   7.795   6.129  13.705 -0.2148  0.2366  0.0787
 1552W        W17686   4.016   2.829   4.040 -0.1541  0.0045 -0.0806
 1553W        W17687  18.161  15.660  13.493  0.0470 -0.1362  0.0078
 1554W        W17688   4.176   7.557   0.805 -0.2033 -0.2837  0.0004
 1555W        W17689  10.673   6.323  13.792 -0.0639 -0.3161 -0.1414
 1556W        W17690  17.741   5.432   2.138  0.0993  0.2928  0.1952
 1557W        W17691   7.990  16.653  13.569  0.1110 -0.3578 -0.1573
 1558W        W17692   5.514   4.276  12.136 -0.2208  0.0342  0.1805
 1559W        W17693  14.509  11.347   1.365  0.0799  0.1231  0.1179
 1560W        W17694   3.077   4.841  15.079  0.0034 -0.0539 -0.0177
 1561W        W17695   4.783   8.646  11.415  0.1966  0.1997 -0.1301
 1562W        W17696  13.158   0.856  15.704  0.0881 -0.0303  0.0776
 1563W        W17697   1.327  11.099  14.588 -0.2865 -0.0089 -0.0705
 1564W        W17698   8.565   2.130  11.770  0.1239 -0.0351  0.1065
 1565W        W17699   1.361  10.131   3.270 -0.4707  0.2920 -0.0762
 1566W        W17700   6.388  16.146  11.841  0.1148  0.1197  0.1499
 1567W        W17701   5.912   3.569   1.810  0.0717  0.1575  0.1187
 1568W        W17702   9.395  17.034   6.004  0.0090 -0.0560  0.0102
 1569W        W17703   9.652  12.498   0.220  0.3173  0.0034 -0.2530
 1570W        W17704  14.538  15.386  14.421 -0.1616  0.1586  0.3562
 1571W        W17705  11.341  16.092   1.436  0.0270 -0.1535 -0.0283
 1572W        W17706   1.876   3.563   5.015  0.1030 -0.0653 -0.1860
 1573W        W17707  14.263  11.672   4.436 -0.0574  0.2194  0.0379
 1574W        W17708  14.801   8.852  13.070 -0.0825 -0.1390 -0.4809
 1575W        W17709   6.962   9.000  13.161  0.2933 -0.0051  0.2441
 1576W        W17710   6.557  18.230  11.192 -0.0106 -0.0734 -0.1684
 1577W        W17711  12.659  16.455  12.036  0.1975  0.3294 -0.0889
 1578W        W17712   7.236  17.359   3.511 -0.0218 -0.1401 -0.1059
 1579W        W17713   1.478   6.959   1.827 -0.2777  0.1283 -0.0948
 1580W        W17714  15.366  13.135   0.616 -0.0033  0.1522  0.0562
 1581W        W17715   5.632  18.216   0.875  0.4274  0.0892  0.0287
 1582W        W17716   9.524   9.655   1.373  0.1390  0.1433 -0.1828
 1583W        W17717   3.907   9.686  13.430 -0.3386  0.0885  0.1192
 1584W        W17718   0.910  14.525  14.123 -0.1802 -0.0876 -0.2647
 1585W        W17719  16.993  14.922   4.196 -0.2378  0.3246  0.0611
 1586W        W17720  10.064  13.859   3.442  0.1383  0.2051  0.0568
 1587W        W17721   0.276  14.704  15.886 -0.0792 -0.1120  0.4785
 1588W        W17722  13.149  15.212   3.057  0.1794  0.1190  0.0858
 1589W        W17723   4.556  13.730  10.807  0.0232  0.2901  0.0674
 1590W        W17724   8.521  11.975  10.620  0.2238 -0.0026  0.0686
 1591W        W17725   0.281   6.426   2.928 -0.0467  0.0467 -0.0016
 1592W        W17726  14.479  16.244  14.987  0.0083 -0.1700  0.3020
 1593W        W17727   0.413  10.106   3.475 -0.0620 -0.1074  0.1098
 1594W        W17728   3.997   9.145   3.716  0.2404 -0.0584  0.2459
 1595W        W17729   1.140   8.301   0.774 -0.0725 -0.2403  0.2961
 1596W        W17730  12.151  13.712   2.461 -0.3811 -0.0824 -0.0659
 1597W        W17731  11.627  12.101   0.763 -0.3063 -0.1557  0.1187
 1598W        W17732   2.970   3.673   0.036 -0.2033  0.1856 -0.2945
 1599W        W17733   8.661  14.696  13.803  0.0389  0.3297  0.3104
 1600W        W17734  17.548   3.645  11.084 -0.0832 -0.1221  0.1365
 1601W        W17735   3.536   8.819  11.756 -0.0531  0.0069 -0.2493
 1602W        W17736   9.770   8.981   1.552  0.0436  0.1539  0.2130
 1603W        W17737  12.035  15.173   2.198 -0.0702 -0.0230  0.0648
 1604W        W17738   2.612  18.081   5.051  0.1099  0.2908 -0.1516
 1605W        W17739  11.883  17.952   1.706 -0.1929 -0.0081 -0.0067
 1606W        W17740   4.690   0.998  11.797 -0.2679  0.3000  0.1674
 1607W        W17741   9.786   0.323   1.082 -0.2458 -0.0334  0.2455
 1608W        W17742   2.870  18.015  13.474 -0.0803  0.1243  0.2738
 1609W        W17743   8.201  11.893  10.266  0.2325  0.0398 -0.3388
 1610W        W17744  15.175   2.978  14.898 -0.0859 -0.3074  0.1842
 1611W        W17745   6.886  16.609   1.771  0.0140  0.0105 -0.0687
 1612W        W17746  15.690   2.486  13.934 -0.0156  0.1596  0.0720
 1613W        W17747  11.129   6.704  12.975 -0.0302 -0.0030  0.1810
 1614W        W17748   6.511   0.186   5.224 -0.1572 -0.2835 -0.2863
 1615W        W17749   6.791  14.861   1.566  0.1085  0.0387 -0.0512
 1616W        W17750  14.431  13.289  12.185 -0.0139 -0.0419  0.5459
 1617W        W17751   8.878   4.500   3.275 -0.0619 -0.2133 -0.2220
 1618W        W17752  16.649   7.030   4.411 -0.1175  0.0473  0.0018
 1619W        W17753   9.765   0.993  11.192 -0.1196  0.3921 -0.2501
 1620W        W17754  11.217   0.722   0.501 -0.2334  0.2453 -0.0940
 1621W        W17755   9.260   9.589   4.510 -0.0479  0.2072  0.0429
 1622W        W17756   3.450  10.190   2.696 -0.1816 -0.3153  0.1091
 1623W        W17757   9.641  10.905  11.257 -0.0276  0.0223  0.0357
 1624W        W17758  14.746   5.102   2.396 -0.2006  0.0528 -0.1056
 1625W        W17759  14.382  16.891  11.362  0.0421 -0.2025  0.0517
 1626W        W17760   8.463  17.071   3.612  0.1896  0.1784 -0.1037
 1627W        W17761  10.235   9.489  10.282  0.3205  0.1104 -0.0037
 1628W        W17762   8.920   8.187   2.782  0.0122  0.2363  0.0086
 1629W        W17763  10.582  16.052   4.683 -0.2658  0.0551 -0.3479
 1630W        W17764  10.343   7.663   1.678  0.0068 -0.4847  0.1766
 1631W        W17765  18.370  14.304  12.987 -0.0973 -0.0015  0.0226
 1632W        W17766   3.453   4.127   5.288  0.0196 -0.0161  0.2921
 1633W        W17767   3.315  10.978  12.336 -0.2017 -0.1588  0.0376
 1634W        W17768  13.628   8.232  11.251  0.1148  0.1210 -0.0413
 1635W        W17769   3.910   3.654  15.186 -0.1761  0.1788 -0.0707
 1636W        W17770  15.044  11.809   4.341  0.1042  0.3572 -0.2297
 1637W        W17771   2.718   6.135   0.805  0.0734  0.0456 -0.1057
 1638W        W17772  11.680   1.049   2.298  0.0198 -0.0103 -0.2208
 1639W        W17773   4.218  11.491   5.790  0.1191 -0.1623  0.2759
 1640W        W17774  11.774  15.865   1.658  0.2743 -0.0319  0.0127
 1641W        W17775  12.197  17.825  15.500 -0.3100  0.2983  0.1279
 1642W        W17776  12.725  17.189   5.192  0.3433  0.0642  0.0604
 1643W        W17777   3.890  10.507  13.873  0.3885  0.2317 -0.2647
 1644W        W17778  13.400   1.929   3.833 -0.0257 -0.0032 -0.2075
 1645W        W17779  14.273  12.834   3.817  0.1898  0.3259 -0.0344
 1646W        W17780  14.596   4.651   2.571 -0.2860 -0.1449  0.1804
 1647W        W17781   2.924  11.216  15.223 -0.3874 -0.1685  0.1613
 1648W        W17782  10.736   3.433   4.367 -0.0342  0.0575  0.1394
 1649W        W17783  11.350   2.672  14.537 -0.1244  0.2016 -0.3303
 1650W        W17784  12.732   3.559  14.291 -0.0752  0.1385  0.0427
 1651W        W17785  17.294   3.314  11.697  0.3181 -0.1895 -0.2471
 1652W        W17786  18.385   1.835  12.796 -0.1627 -0.1464  0.2157
 1653W        W17787   0.929   1.673   5.429 -0.1561  0.2039 -0.1676
 1654W        W17788   4.624  14.363  13.660 -0.3317 -0.0311  0.0176
 1655W        W17789   2.315   8.722   0.088  0.0346 -0.0011 -0.0609
 1656W        W17790   6.556   7.532  14.380 -0.1409  0.0774  0.1749
 1657W        W17791   0.261  12.775  15.000 -0.1279  0.2109  0.0444
 1658W        W17792  14.130  10.653  12.104 -0.1772  0.2755 -0.0642
 1659W        W17793  17.769  15.454   5.155 -0.0463  0.0736 -0.1405
 1660W        W17794   8.167   6.242   3.453 -0.0050  0.0957 -0.0826
 1661W        W17795   7.299  11.833   0.609 -0.0762  0.2585 -0.1556
 1662W        W17796  16.767  11.815  15.809  0.1588  0.0218  0.0172
 1663W        W17797  13.061  13.699   0.470  0.1080  0.0580  0.1105
 1664W        W17798  12.555  11.112   4.522  0.0592 -0.3198 -0.1531
 1665W        W17799  17.503  14.801  12.433 -0.1768 -0.1020  0.1193
 1666W        W17800  17.106  10.464   4.339 -0.1797 -0.1936 -0.2533
 1667W        W17801   1.357   4.673  14.443 -0.1668 -0.1926 -0.1012
 1668W        W17802  13.919   0.322   4.008 -0.0626 -0.0115 -0.4135
 1669W        W17803   6.643  18.384   3.514 -0.1540 -0.0006 -0.1121
 1670W        W17804  11.024  11.852  12.809 -0.0181 -0.0046  0.2221
 1671W        W17805   6.277  15.220  12.619 -0.4225 -0.2327  0.0792
 1672W        W17806   0.213  17.733   1.817  0.2590 -0.4148 -0.2269
 1673W        W17807  11.573   4.904   3.035  0.1658  0.2334 -0.1698
 1674W        W17808  14.140   3.465   1.973  0.1949  0.0883 -0.1091
 1675W        W17809   1.241  14.761  13.885 -0.5207 -0.3471 -0.0379
 1676W        W17810   0.426   9.876   4.297 -0.0380  0.1171 -0.2189
 1677W        W17811  15.755   9.826  14.031 -0.5241 -0.3115 -0.0914
 1678W        W17812  17.860   4.162   1.267 -0.1809 -0.2219  0.1145
 1679W        W17813   4.010   4.306   3.162 -0.1475  0.2164  0.0592
 1680W        W17814   1.074  13.910  11.551  0.1713 -0.1373  0.0097
 1681W        W17815  11.253  10.841   5.486 -0.0523  0.0555  0.0522
 1682W        W17816   9.825   2.151  12.118  0.0681 -0.0371  0.1670
 1683W        W17817   1.248   0.661   0.496 -0.3549  0.1181 -0.2046
 1684W        W17818  14.755   4.178   0.330 -0.0897 -0.0100  0.2390
 1685W        W17819  12.922  13.305  15.484  0.0571 -0.0955  0.2792
 1686W        W17820  16.979   8.277  14.123 -0.3349 -0.5062 -0.1623
 1687W        W17821   7.718  18.321   5.797  0.1837 -0.0306 -0.0166
 1688W        W17822  15.658  13.846   0.438 -0.1951  0.0369 -0.0590
 1689W        W17823   7.096  16.185  13.588 -0.3128  0.0819  0.5486
 1690W        W17824  13.981  11.593  13.868  0.0394  0.1329  0.1490
 1691W        W17825  10.555   5.879   5.544 -0.1566 -0.1235 -0.0461
 1692W        W17826   3.261  17.537   2.101 -0.1853 -0.1172  0.0401
 1693W        W17827   6.598  10.690  10.700  0.3216 -0.0679  0.1388
 1694W        W17828   0.932   5.937  12.358 -0.0474  0.0094 -0.2744
 1695W        W17829  14.781   4.575   0.055  0.0005  0.0430 -0.0832
 1696W        W17830   0.586  10.441   1.220  0.0254  0.3052 -0.1356
 1697W        W17831  10.453   5.178   2.554  0.0319 -0.0879 -0.2599
 1698W        W17832  12.114   7.459   1.705 -0.2881  0.0050  0.1708
 1699W        W17833  14.191  14.871  13.483  0.1140 -0.3073  0.1842
 1700W        W17834   2.833  13.425  15.227 -0.2850  0.2989 -0.3821
 1701W        W17835  14.404   4.260  11.774 -0.1831 -0.1854  0.1789
 1702W        W17836   6.697   2.695  14.903  0.0491  0.0407  0.1097
 1703W        W17837  10.310  14.893  11.762 -0.0303  0.0009  0.1765
 1704W        W17838   7.846   1.372  15.367 -0.0866  0.1085 -0.1686
 1705W        W17839   8.053  10.134  15.582  0.1370  0.0673 -0.2333
 1706W        W17840   4.777  10.868   0.029  0.2664  0.0068 -0.0202
 1707W        W17841  17.374   4.848  12.815  0.1007  0.0610  0.0796
 1708W        W17842   6.478   3.395   2.579 -0.2037 -0.0077 -0.3344
 1709W        W17843  10.241  14.509  12.829 -0.1144 -0.1347  0.2270
 1710W        W17844   2.818  18.411   2.314 -0.0594 -0.2659  0.2908
 1711W        W17845   0.064  13.391   2.054 -0.2260  0.1840  0.1281
 1712W        W17846  16.236  15.890   2.127  0.1375  0.0670  0.3090
 1713W        W17847   3.053  16.885   3.429  0.3151  0.0536  0.0754
 1714W        W17848   8.370  18.461   5.119 -0.0666  0.1610  0.1510
 1715W        W17849   9.621   3.467   4.343  0.0843 -0.1453 -0.0811
 1716W        W17850  12.666   6.426   3.239 -0.2450  0.0170  0.0879
 1717W        W17851  12.956  16.868  15.362  0.1625  0.0833 -0.0072
 1718W        W17852   9.026   7.447  11.662 -0.2378 -0.3250 -0.0222
 1719W        W17853   1.326   4.135   1.211 -0.1952  0.0779  0.0769
 1720W        W17854  14.263  10.226   4.099 -0.0492  0.1953  0.0359
 1721W        W17855   2.174   0.098   0.673  0.0285 -0.0368  0.1120
 1722W        W17856   2.055   6.500   4.727 -0.3612 -0.4708  0.0081
 1723W        W17857  16.795   3.218  10.863 -0.4533 -0.1669 -0.4397
 1724W        W17858   8.235  13.849  14.085  0.0051 -0.0913  0.2810
 1725W        W17859   0.839  11.806  13.943  0.0722  0.2064 -0.2063
 1726W        W17860  16.360  10.691  14.040 -0.0014  0.0040  0.0908
 1727W        W17861  13.397   7.573  14.896  0.1183 -0.0117 -0.0692
 1728W        W17862   5.392  17.082  15.406 -0.1840 -0.3331  0.1675
 1729W        W17863  10.854  11.011  14.759  0.1700 -0.1179  0.0436
 1730W        W17864  16.799  13.190   2.730  0.0719 -0.3273  0.1805
 1731W        W17865  17.731  13.810   5.662 -0.1716  0.0577 -0.1416
 1732W        W17866   3.553   9.280   3.174  0.3748 -0.0885 -0.4240
 1733W        W17867  17.357  12.676  15.690  0.3661 -0.0545 -0.0234
 1734W        W17868  12.732   8.537  14.419  0.1176  0.1082 -0.0677
 1735W        W17869  12.927   4.202   0.764 -0.0426 -0.0046  0.1092
 1736W        W17870   3.000  15.034   3.393 -0.0493  0.0342 -0.5369
 1737W        W17871   5.105   7.921  12.864  0.1787  0.2380  0.0058
 1738W        W17872   7.612  13.530   0.477  0.3203 -0.0992  0.1318
 1739W        W17873   8.065  12.516  12.757  0.1489 -0.3224  0.0251
 1740W        W17874  11.916   4.498  12.331 -0.0079 -0.0896 -0.2911
 1741W        W17875   3.003   0.924   4.042  0.3017 -0.1353 -0.1530
 1742W        W17876  13.747   7.951  13.770 -0.1392  0.4642 -0.2921
 1743W        W17877   0.976  16.803   3.534  0.1835  0.0723  0.0970
 1744W        W17878   8.596   1.888  14.409  0.0098  0.2802 -0.0466
 1745W        W17879   0.710  11.788  12.499 -0.2094  0.0670 -0.0730
 1746W        W17880   9.619  14.170   0.902 -0.0166  0.1427 -0.0517
 1747W        W17881  15.717   2.970   3.213 -0.2352 -0.0100 -0.1100
 1748W        W17882   7.819  17.602  15.194  0.0110  0.2143  0.2581
 1749W        W17883   1.508  15.876   0.423 -0.0581 -0.1987 -0.1712
 1750W        W17884   4.217   2.370  11.244 -0.3051 -0.3106  0.0563
 1751W        W17885   8.167  11.620   5.747  0.1242  0.1199  0.1647
 1752W        W17886   3.333  13.631  13.466  0.0000 -0.3605  0.2552
 1753W        W17887   0.152   0.377  15.127 -0.1573  0.1732  0.0298
 1754W        W17888  12.633  14.089   3.101  0.0326  0.1605  0.0862
 1755W        W17889  16.907   6.521   1.130  0.1381 -0.3034  0.0108
 1756W        W17890  16.973   8.851   4.091  0.0657 -0.3942  0.1021
 1757W        W17891  13.966   2.953  14.182 -0.1582 -0.0186 -0.0457
 1758W        W17892  17.628   2.217   2.138 -0.1975 -0.0297 -0.0576
 1759W        W17893  11.516   3.811  15.383  0.0443  0.3219 -0.1001
 1760W        W17894   2.346  11.193   2.899  0.1818  0.0973 -0.2877
 1761W        W17895  13.277  15.774  15.686  0.2224 -0.2431  0.1152
 1762W        W17896  11.355   8.153  11.251 -0.2835  0.0294  0.1013
 1763W        W17897   8.188  14.691  13.705  0.1354 -0.1179 -0.2167
 1764W        W17898  11.062   4.178   0.143 -0.2204  0.1787 -0.0734
 1765W        W17899   7.365   7.614  12.043  0.3585 -0.2499 -0.1669
 1766W        W17900   1.898   0.711   2.993  0.1102 -0.1702 -0.0702
 1767W        W17901   0.299   3.696   4.774  0.1123 -0.0835  0.0725
 1768W        W17902   4.730  13.115  12.244  0.0654 -0.0664 -0.0975
 1769W        W17903  17.282  12.313   2.440 -0.0501  0.4029  0.0715
 1770W        W17904   4.656   7.543  14.067  0.1673  0.2575 -0.1206
 1771W        W17905   3.643  16.567  12.409 -0.0950  0.2171  0.0497
 1772W        W17906  15.311  16.012   4.891 -0.0211  0.1317  0.0054
 1773W        W17907   0.124   9.476   4.367 -0.0513  0.0677  0.2139
 1774W        W17908   1.712  14.430   4.199 -0.0669 -0.0707  0.0386
 1775W        W17909  10.438   4.240   3.301 -0.0713 -0.1043  0.2418
 1776W        W17910  17.949  16.276  11.248 -0.3316 -0.0536 -0.1478
 1777W        W17911   2.006   9.061   0.917  0.0154  0.0614  0.1507
 1778W        W17912   7.774   4.177   0.816 -0.0193  0.0713  0.0253
 1779W        W17913  12.024  13.513  12.288 -0.3066  0.1483  0.1005
 1780W        W17914   5.272  14.004   0.889 -0.2056 -0.2494  0.1039
 1781W        W17915  18.274  11.163   4.806 -0.1159  0.1608  0.0829
 1782W        W17916   4.848   0.518  15.255  0.1786 -0.1010 -0.1034
 1783W        W17917   2.497   1.747   3.624 -0.0862 -0.0109  0.0000
 1784W        W17918  12.290   1.932  11.561  0.0858  0.0296  0.1030
 1785W        W17919   4.257   8.854  11.816  0.0179  0.1441 -0.0512
 1786W        W17920  10.607   4.538  13.413  0.0337  0.0626 -0.1138
 1787W        W17921   2.825  11.818  12.521 -0.0839 -0.1549 -0.1417
 1788W        W17922  16.661   8.186  12.409 -0.0286  0.1948 -0.1454
 1789W        W17923   8.188   3.358  12.274  0.1611 -0.1338  0.1518
 1790W        W17924  17.685  15.412   6.295  0.1739  0.0248  0.1692
 1791W        W17925   4.190   0.308   5.909 -0.2003 -0.2194 -0.3251
 1792W        W17926   2.390   3.089  15.599  0.3642  0.0826  0.5004
 1793W        W17927   8.550   7.432   2.094 -0.2529  0.1053 -0.0904
 1794W        W17928   8.030  13.446  15.353 -0.1555 -0.1908  0.1863
 1795W        W17929  11.857   3.922   0.665  0.1765 -0.4179  0.2519
 1796W        W17930   1.124   2.162   0.290 -0.3190  0.0605 -0.2176
 1797W        W17931   4.625   4.756   1.090  0.0436 -0.2403  0.2678
 1798W        W17932   3.152   2.845   0.723 -0.0715  0.1124 -0.0639
 1799W        W17933  13.419   3.972   3.297  0.2595  0.2133  0.4292
 1800W        W17934  16.051   0.186  15.196 -0.0428 -0.1274  0.1524
 1801W        W17935   9.764   9.768  15.578  0.1010  0.0308  0.0439
 1802W        W17936   8.253   8.526  14.948 -0.2452 -0.0781  0.0895
 1803W        W17937   7.142   4.035  12.362  0.1394 -0.2718  0.0552
 1804W        W17938  14.946   1.285   4.874 -0.1056 -0.0847 -0.1450
 1805W        W17939  12.589  17.560   4.341 -0.2933 -0.1994 -0.2602
 1806W        W17940   3.796   5.844   1.883  0.1316  0.1568  0.3267
 1807W        W17941   8.971   3.770  15.292 -0.1298  0.0423  0.1951
 1808W        W17942  11.343   3.712  14.615 -0.0349  0.2054  0.1340
 1809W        W17943  12.537  10.971  13.344 -0.1163  0.1370  0.2038
 1810W        W17944   9.850   6.399  13.447  0.0913  0.0900 -0.0599
 1811W        W17945  10.140   2.922  13.165  0.3278  0.2014  0.2408
 1812W        W17946  11.356   0.068  12.776 -0.1321 -0.1458  0.1179
 1813W        W17947   3.644  16.454  12.919 -0.2851 -0.1324  0.1956
 1814W        W17948  12.111   7.795   4.910  0.0862 -0.2069 -0.2412
 1815W        W17949  15.280   7.653  11.248 -0.2944  0.0200 -0.1759
 1816W        W17950  15.621  14.243   2.120  0.0400 -0.0974  0.0721
 1817W        W17951  15.375  15.386   4.223 -0.0280  0.1009  0.0209
 1818W        W17952  12.168  13.900   4.821  0.4479 -0.0105  0.2859
 1819W        W17953  16.479  13.895   2.088 -0.0124 -0.1972 -0.0803
 1820W        W17954   3.107   8.552   1.454  0.0397 -0.3801 -0.0048
 1821W        W17955   0.348   6.911  15.309  0.0505  0.2279  0.0132
 1822W        W17956   2.267   9.981  15.299  0.0026  0.0564 -0.0067
 1823W        W17957   0.719   9.804   3.865 -0.1391  0.1593 -0.0859
 1824W        W17958   0.705  14.702  11.018  0.0765  0.1607  0.1532
 1825W        W17959   9.310   3.566  12.336  0.0893 -0.0949 -0.1008
 1826W        W17960   5.605  17.876   3.929 -0.0604  0.1176  0.3635
 1827W        W17961   1.322  10.368  12.294 -0.1295  0.1833  0.2713
 1828W        W17962   4.564  12.577  11.703  0.1258 -0.1988 -0.1424
 1829W        W17963  17.542  17.062  10.863  0.2694 -0.1810  0.0546
 1830W        W17964  13.244  13.250  15.110  0.0010 -0.1860  0.0667
 1831W        W17965  16.347   6.834  10.675 -0.1288 -0.1703  0.0903
 1832W        W17966  16.989  14.336  13.128 -0.4513 -0.1312  0.1497
 1833W        W17967  16.658   1.387  12.798 -0.0131 -0.1426  0.3147
 1834W        W17968   7.055  10.817   2.721  0.0418 -0.1533  0.1029
 1835W        W17969  16.536   7.289  10.823 -0.0706 -0.0356  0.1304
 1836W        W17970  12.004   4.755   2.899 -0.0400  0.5237  0.0985
 1837W        W17971  16.320   0.345   1.896 -0.0211 -0.0503 -0.1131
 1838W        W17972   0.932   5.291   4.708  0.1081 -0.3390 -0.1852
 1839W        W17973   8.443   9.025  14.755  0.1140 -0.3240  0.4358
 1840W        W17974   7.122   3.217   4.616 -0.2336 -0.0053  0.0584
 1841W        W17975  16.024  14.453   5.091  0.1851  0.0199 -0.0074
 1842W        W17976   2.240   0.630  12.681  0.2670 -0.0525  0.0803
 1843W        W17977  14.123  15.955   4.532  0.0893  0.0165 -0.1137
 1844W        W17978   8.450   7.638   0.348 -0.0057 -0.0241 -0.2880
 1845W        W17979   9.074   7.275   1.823  0.2476  0.1522 -0.0415
 1846W        W17980   6.615  10.589   5.480 -0.0277 -0.0721  0.3824
 1847W        W17981   8.044  16.218  15.765  0.0761 -0.1581  0.1824
 1848W        W17982  16.154   2.637   5.030 -0.0475  0.2075 -0.3754
 1849W        W17983  14.509   8.247  12.357  0.0135  0.0970  0.2097
 1850W        W17984   7.256   8.855   0.911 -0.0458 -0.1427 -0.1427
 1851W        W17985   0.043   4.362   0.397 -0.0578  0.2298 -0.1863
 1852W        W17986   4.419  18.012   5.055  0.2424 -0.1724  0.1088
 1853W        W17987   9.068  16.155   2.029  0.0057  0.0640  0.1683
 1854W        W17988   1.517   4.498   1.493  0.0931  0.2709  0.3540
 1855W        W17989   1.774   1.581  13.417 -0.0729  0.2291 -0.1191
 1856W        W17990  10.857  10.672   5.160 -0.1144 -0.2504 -0.3945
 1857W        W17991  15.002  14.191  10.910 -0.2090  0.0714 -0.0424
 1858W        W17992  14.857  12.468  12.767  0.1576  0.0605 -0.3036
 1859W        W17993  14.652  14.013   0.768  0.0029  0.1865 -0.0754
 1860W        W17994  18.103   7.971   1.182 -0.3515  0.1733  0.2283
 1861W        W17995  12.219  12.994   4.521 -0.0394  0.0727 -0.3671
 1862W        W17996   1.173   0.824   1.438 -0.0038 -0.1548  0.1340
 1863W        W17997  16.749   2.709  11.518 -0.2857 -0.0521 -0.0804
 1864W        W17998   7.483  18.457   4.945  0.2180  0.3915  0.0778
 1865W        W17999   3.424  10.886  11.851  0.0174 -0.2252 -0.0791
 1866W        W18000   8.112  16.307   2.191 -0.2481  0.3871 -0.0819
 1867W        W18001  12.938   2.412   0.500 -0.3141  0.4098 -0.3789
 1868W        W18002  11.861   9.654  14.598  0.0448 -0.0532  0.1095
 1869W        W18003   6.803   2.611   1.414 -0.0828 -0.0109 -0.2332
 1870W        W18004  13.779   2.171   4.506  0.3428  0.0909 -0.1864
 1871W        W18005  10.838  17.806  12.932  0.0203  0.0989  0.0037
 1872W        W18006   8.128   2.207  13.450 -0.2092 -0.0639 -0.0617
 1873W        W18007  14.113   1.743  12.494 -0.1259 -0.0134 -0.0399
 1874W        W18008  10.205  15.561  14.817  0.0662  0.1732 -0.0460
 1875W        W18009   9.676  16.480  12.764 -0.0093 -0.1247 -0.1423
 1876W        W18010   7.078   9.548  14.236 -0.1098 -0.1462 -0.1935
 1877W        W18011   9.130   7.108   2.847  0.1067  0.1761  0.0430
 1878W        W18012  15.398   5.837  11.828  0.0131 -0.0719 -0.3610
 1879W        W18013   7.751   5.381  11.972 -0.0005 -0.0044  0.0578
 1880W        W18014   2.100   1.855   0.561 -0.2609 -0.0063  0.3903
 1881W        W18015   2.147   4.486   3.168  0.1696 -0.2141  0.2322
 1882W        W18016  13.154  12.007  15.774  0.1136  0.0753  0.1835
 1883W        W18017  17.306  10.675  13.674 -0.0362 -0.0506 -0.0294
 1884W        W18018   8.871   0.206   1.406 -0.4158 -0.0205  0.4218
 1885W        W18019  17.726   7.915  11.871 -0.0846  0.1530  0.2258
 1886W        W18020  15.699   5.734   3.774  0.0387 -0.2885  0.3158
 1887W        W18021  12.812  10.286   1.537  0.0460  0.0621 -0.0016
 1888W        W18022   2.200  15.441   3.469 -0.0168 -0.0913 -0.0762
 1889W        W18023  12.862  18.352   3.085 -0.2943 -0.1045  0.4512
 1890W        W18024   5.820  18.389  14.326  0.0166  0.0828 -0.1095
 1891W        W18025  11.252  17.174  10.114  0.2368 -0.1435 -0.1188
 1892W        W18026  10.596   1.813  12.596  0.3170 -0.2343  0.1910
 1893W        W18027   4.891  18.432   2.866  0.1908  0.1530 -0.0967
 1894W        W18028   1.881  16.648  11.287  0.1384 -0.0006 -0.3028
 1895W        W18029  17.255   1.878  15.898 -0.2946  0.3982  0.0494
 1896W        W18030  10.688  13.291  15.354  0.1640 -0.0858 -0.0347
 1897W        W18031  13.813   7.644  15.601  0.3662  0.0356 -0.1175
 1898W        W18032  11.280   6.295   1.264 -0.1042 -0.0172  0.2827
 1899W        W18033   7.658  15.955   2.330  0.0620 -0.2063 -0.2775
 1900W        W18034   8.100   1.085  12.242  0.1054  0.1816 -0.0683
 1901W        W18035   5.262  15.925   5.876  0.2791 -0.0402 -0.1687
 1902W        W18036   7.884   7.828   3.032 -0.0876  0.4000  0.1939
 1903W        W18037   0.975  11.056  13.714 -0.1886  0.0829  0.1137
 1904W        W18038   2.438   4.489  12.956 -0.1303 -0.2292  0.1733
 1905W        W18039  12.010  17.427   3.136 -0.0951  0.1990  0.0699
 1906W        W18040   2.514   8.935  10.233 -0.0641 -0.3956  0.0994
 1907W        W18041   6.491  11.290   4.312  0.1058 -0.1027 -0.1827
 1908W        W18042   3.361  15.592  12.289 -0.1862  0.1150 -0.0327
 1909W        W18043   7.512   8.454   2.451  0.2157  0.1755 -0.1728
 1910W        W18044   4.495   7.206   5.128  0.1858 -0.2205 -0.2740
 1911W        W18045   5.056  15.621  15.781 -0.0246  0.2738 -0.1285
 1912W        W18046   0.309   9.188  14.901  0.1734  0.0273 -0.0292
 1913W        W18047   9.835  14.675  11.506 -0.1517  0.1911  0.0254
 1914W        W18048   4.506   6.705  12.417  0.1391  0.1510 -0.0985
 1915W        W18049   4.624   3.138  13.916 -0.0666 -0.1653 -0.0141
 1916W        W18050  11.186   7.810   4.550 -0.0459 -0.0312  0.1373
 1917W        W18051   0.620   7.601   3.478  0.2030 -0.1238 -0.3161
 1918W        W18052  13.128  13.222   0.586  0.1050  0.0117 -0.3458
 1919W        W18053  14.669  12.989  13.457  0.0377  0.1850 -0.5237
 1920W        W18054   6.015  14.930   2.241  0.1912 -0.0937 -0.2313
 1921W        W18055   2.844   3.452   1.887  0.2159 -0.1056  0.0745
 1922W        W18056  18.066  15.930  12.168  0.0232 -0.1508  0.1630
 1923W        W18057   5.149  16.611   4.138  0.0636 -0.0381  0.2912
 1924W        W18058   3.860  17.952   2.847  0.1999 -0.0634 -0.3872
 1925W        W18059   4.904   6.490   0.501 -0.1506 -0.0837 -0.2881
 1926W        W18060   5.392   4.035   0.121 -0.3018  0.0459  0.0921
 1927W        W18061   9.251  13.668   1.889 -0.0372  0.0747 -0.0878
 1928W        W18062   0.532   7.523   2.468  0.0269  0.0036 -0.1071
 1929W        W18063   9.930   4.987   3.484  0.2212 -0.0311 -0.0869
 1930W        W18064   2.566   0.606  14.584  0.2097 -0.2341  0.3973
 1931W        W18065  17.779  18.348  12.844  0.1962  0.0129  0.0702
 1932W        W18066  15.439  10.539  14.720 -0.2005 -0.0633 -0.0370
 1933W        W18067  15.155   8.158  14.486 -0.1729 -0.0886 -0.0643
 1934W        W18068  11.407   7.718  10.941 -0.2516  0.0685 -0.2851
 1935W        W18069  16.276  15.531  13.159  0.1874 -0.2026 -0.0543
 1936W        W18070   4.330  14.346   0.218  0.0366  0.3904  0.2331
 1937W        W18071  13.941   7.624   0.143  0.1838 -0.3029 -0.1363
 1938W        W18072  13.599  11.805  14.089 -0.0678 -0.1075  0.1441
 1939W        W18073   8.753  14.444  13.332 -0.0244  0.1651  0.0309
 1940W        W18074   4.652  11.649   9.832  0.2011 -0.0664  0.1863
 1941W        W18075   1.929  14.548   1.284  0.2051  0.3128  0.0390
 1942W        W18076  17.860   5.449   0.548  0.1413 -0.2369  0.0381
 1943W        W18077   8.173  12.447   2.155  0.1020 -0.0128  0.0484
 1944W        W18078  16.791  14.273   5.081  0.1092 -0.0464  0.2873
 1945W        W18079   3.117  16.530  10.674  0.0772 -0.0184  0.1515
 1946W        W18080   6.648  10.938   4.700  0.0936 -0.0941  0.0181
 1947W        W18081  13.990   7.923  12.147  0.1003 -0.1660 -0.3388
 1948W        W18082   4.375   8.455   2.757 -0.2550 -0.1822  0.2716
 1949W        W18083  14.824  18.179   1.409  0.1163  0.0122 -0.0369
 1950W        W18084  15.720   9.863  12.998 -0.0894 -0.0859 -0.0622
 1951W        W18085   8.295   8.094   2.179 -0.1351 -0.2449  0.0301
 1952W        W18086   9.616  14.249  14.473 -0.0650 -0.3096  0.1963
 1953W        W18087  11.361   9.824   1.603 -0.2080 -0.0750 -0.0122
 1954W        W18088   4.103   3.624   4.913  0.0304 -0.0074  0.0398
 1955W        W18089   1.882   6.971  14.105  0.1375  0.0478  0.3069
 1956W        W18090   7.532  11.817   4.885  0.1352 -0.2552  0.0997
 1957W        W18091  12.320   0.758   2.932  0.0961 -0.0706 -0.2372
 1958W        W18092  16.595   1.959  10.981  0.0299 -0.4193 -0.0754
 1959W        W18093  14.845  13.937  14.741  0.1358  0.4509  0.1034
 1960W        W18094   9.017   3.964   3.965 -0.0348 -0.0870  0.0244
 1961W        W18095   5.027   3.948  13.054  0.2279  0.0192 -0.1916
 1962W        W18096  10.739  16.193   2.024  0.0067 -0.0422 -0.2390
 1963W        W18097  14.153   1.518   5.192 -0.0508  0.0342  0.2714
 1964W        W18098  12.874   9.774   1.445 -0.1043 -0.0105 -0.0212
 1965W        W18099  16.443   5.573  15.728 -0.1105 -0.2191  0.3078
 1966W        W18100   5.118  16.169  11.540  0.0700 -0.2459 -0.0432
 1967W        W18101  12.522   5.021  14.124 -0.1179  0.3059  0.4683
 1968W        W18102  14.411  18.453   0.216  0.0684  0.1423 -0.2646
 1969W        W18103  15.939   1.418   0.737 -0.0679  0.3458 -0.0116
 1970W        W18104   5.895   5.252   0.032  0.1422 -0.1420  0.3441
 1971W        W18105  10.026   8.850   2.211 -0.2285  0.1744  0.0385
 1972W        W18106  13.943   0.009  15.597 -0.3747  0.2593 -0.1553
 1973W        W18107  12.939   0.755   1.366  0.3929  0.0361 -0.0253
 1974W        W18108  15.550   1.819  15.565 -0.0155 -0.0695  0.0142
 1975W        W18109  14.539   1.655   0.730 -0.1879 -0.1097  0.3444
 1976W        W18110   9.211   3.659  14.370  0.0879  0.0783 -0.1618
 1977W        W18111   5.184  12.066   5.938 -0.0005 -0.0689  0.0675
 1978W        W18112   0.514  17.965   2.283 -0.1096 -0.3764  0.0094
 1979W        W18113   3.770  12.290  12.503  0.2681 -0.1609 -0.3479
 1980W        W18114  14.879  17.607   2.426  0.2914 -0.3650 -0.1419
 1981W        W18115  12.396  10.351   5.005 -0.1277 -0.1469  0.0027
 1982W        W18116   0.400  11.312   1.015  0.1478  0.3653 -0.0409
 1983W        W18117  14.480   7.315  12.378  0.0986  0.1732 -0.0114
 1984W        W18118  16.157  15.483   2.508 -0.1416  0.1374  0.0006
 1985W        W18119  15.506   8.334  11.968  0.3204  0.0276 -0.2696
 1986W        W18120   9.443   8.986  13.185  0.1374  0.0828 -0.0804
 1987W        W18121   7.826  11.671  12.686  0.1341 -0.0415 -0.5748
 1988W        W18122   8.420   2.682   5.840 -0.3854  0.0914 -0.0505
 1989W        W18123  12.903  11.004  15.061  0.1528 -0.2572  0.0673
 1990W        W18124  13.526  11.956   0.744 -0.1408 -0.0333  0.0727
 1991W        W18125  18.050  10.680   3.817  0.2088  0.3333 -0.2674
 1992W        W18126   0.459  10.111  14.928 -0.0191 -0.2543 -0.1668
 1993W        W18127  13.730  11.501   1.489  0.1356  0.1027  0.2402
 1994W        W18128   1.099  12.988  15.863 -0.1317  0.2195  0.0503
 1995W        W18129  10.858  16.907   1.585  0.0312 -0.4120  0.4290
 1996W        W18130   5.707  10.569  14.117 -0.1197 -0.1635 -0.0697
 1997W        W18131   2.155  15.200   2.641  0.0648 -0.1538 -0.1586
 1998W        W18132   9.556   8.250  13.327  0.0941  0.0463 -0.0851
 1999W        W18133   7.245  12.438  15.644  0.0003 -0.0669 -0.0057
 2000W        W18134  18.222   0.086  15.338  0.0442 -0.1128 -0.1255
 2001W        W18135  11.141   9.352   3.001  0.0865 -0.1357 -0.1067
 2002W        W18136   1.768   2.136   3.105  0.1627 -0.1528  0.1504
 2003W        W18137  10.317   1.971   1.862  0.1638 -0.0155 -0.1910
 2004W        W18138   9.942  10.081   2.444  0.2578  0.0523 -0.0601
 2005W        W18139   7.231   9.353  14.739 -0.2385 -0.1080 -0.3480
 2006W        W18140  14.049  11.202  15.142  0.1415  0.2066  0.0421
 2007W        W18141  14.093  13.424  14.706  0.1386 -0.0653  0.5184
 2008W        W18142  14.579  18.435  12.958 -0.1138  0.0184  0.2450
 2009W        W18143  10.909   4.005  11.262  0.0762  0.1112  0.0404
 2010W        W18144  13.107  14.404   1.215 -0.0738  0.1711  0.0250
 2011W        W18145   7.279   3.075   2.213  0.1920  0.0175  0.1172
 2012W        W18146  17.756   7.360   2.078 -0.3480  0.1102  0.0894
 2013W        W18147  16.824   1.909   1.714  0.3864  0.1418  0.0823
 2014W        W18148   4.404   8.488   1.840 -0.1157 -0.1090  0.1264
 2015W        W18149  17.167  17.000  12.848 -0.1029  0.2529  0.1297
 2016W        W18150   6.494   2.058  13.935 -0.0102 -0.0194  0.1973
 2017W        W18151   4.547   2.375   5.458  0.0297  0.0638  0.0839
 2018W        W18152  10.470   1.094  11.658  0.0450 -0.2176  0.0333
 2019W        W18153  17.812   0.733  13.190  0.1831  0.0320 -0.1164
 2020W        W18154  18.294   5.195  11.279 -0.0874  0.1907 -0.0528
 2021W        W18155   4.748   5.155   2.942  0.2572 -0.1077  0.1399
 2022W        W18156  13.186   2.121   2.818 -0.2323  0.1158  0.0738
 2023W        W18157  11.727  12.861  13.851 -0.1222  0.0725 -0.3645
 2024W        W18158   3.231   9.528   1.330  0.0229 -0.2743  0.0863
 2025W        W18159   2.737   6.672   2.376  0.5098 -0.3570 -0.2343
 2026W        W18160   1.356   9.811   1.616  0.2760  0.2163  0.2125
 2027W        W18161   4.246   1.084   2.169 -0.3406 -0.2036  0.1758
 2028W        W18162   1.808   5.260  12.574  0.0561  0.0320 -0.0713
 2029W        W18163   0.419   4.515  13.124  0.0506 -0.0366 -0.2301
 2030W        W18164  12.400  15.555  11.224  0.0178 -0.3462 -0.2067
 2031W        W18165   9.840  15.497   2.191  0.0818 -0.3294  0.0186
 2032W        W18166  11.397  14.370   2.347  0.2456 -0.1832  0.1236
 2033W        W18167  13.380  12.998  12.993  0.2872  0.0361  0.0107
 2034W        W18168  11.118   7.409  11.287 -0.2880  0.1288 -0.1354
 2035W        W18169  16.729   8.580  11.875  0.1329  0.0278  0.1117
 2036W        W18170   5.037   6.055   5.612  0.1011 -0.0975 -0.2398
 2037W        W18171   8.753   4.871   0.012  0.0493  0.0999 -0.0097
 2038W        W18172  11.860   8.514   1.621 -0.2169  0.2480  0.1360
 2039W        W18173   8.874   1.149  14.441  0.0958 -0.0128 -0.1330
 2040W        W18174   9.649  14.451  13.953 -0.0374 -0.0610 -0.0224
 2041W        W18175   7.069  17.186   1.093 -0.1031 -0.1911 -0.1076
 2042W        W18176   6.867  10.129   4.606  0.0006  0.1014 -0.1326
 2043W        W18177   5.497   1.771  12.821  0.2516  0.1640  0.0263
 2044W        W18178   3.132  15.100  13.306  0.1941  0.0876 -0.0367
 2045W        W18179  17.404   8.899  12.924 -0.1806  0.0709 -0.0032
 2046W        W18180   6.135  13.861   1.285 -0.0608 -0.0361  0.1317
 2047W        W18181   9.303  15.300   3.520 -0.0735 -0.1128  0.2702
 2048W        W18182   7.388  18.183  14.450  0.0856 -0.0163 -0.1031
 2049W        W18183   3.177   7.072  14.393 -0.1837  0.1361  0.0778
 2050W        W18184  15.002   1.576  12.197  0.3088 -0.0146 -0.0787
 2051W        W18185   4.690   4.289  12.800 -0.2391 -0.1185  0.1324
 2052W        W18186   4.176  18.081  12.534 -0.1887 -0.2924 -0.0637
 2053W        W18187   8.797  15.148   4.683 -0.1756 -0.0033 -0.2348
 2054W        W18188  17.501  16.574  15.058  0.1648 -0.1854 -0.0607
 2055W        W18189   1.714  11.172   3.033  0.0043 -0.2878  0.1047
 2056W        W18190  13.705  12.260   2.035 -0.2738  0.2510 -0.1065
 2057W        W18191   4.132  15.372  11.956  0.0600  0.1904 -0.1488
 2058W        W18192   9.906  13.919   4.549 -0.0900 -0.1571  0.1546
 2059W        W18193   5.450   3.876  14.551  0.1847 -0.3800 -0.0312
 2060W        W18194   5.486  15.734   0.753  0.0778 -0.2259  0.1547
 2061W        W18195   3.072  12.808  15.888  0.0059 -0.3288 -0.1084
 2062W        W18196   0.080   5.854   3.507 -0.2019  0.0442  0.1665
 2063W        W18197   2.736   1.245   5.198  0.4670 -0.1803  0.1067
 2064W        W18198  14.660   4.645  14.369 -0.0263  0.1850 -0.0642
 2065W        W18199   3.031  17.040  12.658  0.0537  0.0396  0.0977
 2066W        W18200   3.307  15.483   0.572  0.2476 -0.0372  0.3167
 2067W        W18201  16.829   9.783  10.974  0.3365 -0.0728 -0.0799
 2068W        W18202   6.059   8.798   4.470  0.0000  0.1553 -0.1821
 2069W        W18203   1.642   4.269   4.523 -0.3161  0.1027 -0.2148
 2070W        W18204  13.985  15.225   5.248  0.1812  0.0498  0.0997
 2071W        W18205   1.939  17.896   4.245 -0.1194  0.1122  0.2003
 2072W        W18206   5.303   9.706   3.073 -0.0552 -0.2368  0.0974
 2073W        W18207   0.594  12.378  14.661  0.1381  0.1065  0.1113
 2074W        W18208   7.056  18.331  14.057  0.2085 -0.3862  0.0159
 2075W        W18209   8.316   1.272  10.548  0.0649  0.0789  0.0395
 2076W        W18210   3.463   8.774  10.759  0.0954 -0.3188  0.2734
 2077W        W18211  14.831   6.982  13.682 -0.1601 -0.1801 -0.0742
 2078W        W18212   7.403   7.335   4.658  0.0928  0.1466 -0.1236
 2079W        W18213   8.427   8.697  13.275  0.1446 -0.3262  0.1218
 2080W        W18214   6.246  11.974   0.865 -0.0134 -0.1784 -0.2005
 2081W        W18215  14.229   0.289  13.188 -0.1006  0.0489  0.0808
 2082W        W18216  18.468   2.217   3.056 -0.1040  0.0221  0.0741
 2083W        W18217  11.768  16.982   9.991  0.0067  0.0004  0.0426
 2084W        W18218  14.377   3.322   4.198 -0.0816  0.3606 -0.3011
 2085W        W18219  16.668  15.411   4.508 -0.0203 -0.0735 -0.0880
 2086W        W18220  11.786  11.979  14.850  0.0714  0.1860 -0.0200
 2087W        W18221  10.796  10.439   4.011 -0.0064  0.0404 -0.1309
 2088W        W18222  12.805   6.991   5.420 -0.1585 -0.0774  0.0632
 2089W        W18223  11.859   5.943   2.944 -0.1189 -0.3246 -0.1184
 2090W        W18224  10.249  17.720  13.842 -0.2636  0.3002  0.1833
 2091W        W18225   2.780  14.350  13.370  0.0037 -0.0183 -0.0849
 2092W        W18226   8.901   0.425   2.349  0.2703  0.0795  0.3421
 2093W        W18227   9.512   7.569   1.612  0.1618  0.1672  0.0248
 2094W        W18228  17.876   4.405  15.219 -0.1545 -0.1312  0.1744
 2095W        W18229   7.784  13.959   1.916  0.2836  0.0194 -0.0689
 2096W        W18230  16.476   4.536   0.869  0.1145 -0.1525  0.2860
 2097W        W18231   7.986   0.118  13.496  0.1093  0.0261 -0.0056
 2098W        W18232   8.061   2.958   0.767  0.3192 -0.0133 -0.2944
 2099W        W18233   5.843  15.787   1.749  0.2248 -0.0559  0.4432
 2100W        W18234   0.744  13.285   0.704  0.1995  0.0652  0.0759
 2101W        W18235   2.573  10.484  12.171 -0.2052  0.0590  0.2079
 2102W        W18236   2.913  17.515  13.328  0.0146  0.1079 -0.1276
 2103W        W18237   5.693  15.712  12.473 -0.3743  0.3241  0.0048
 2104W        W18238  10.957  15.400  13.374 -0.0357  0.1710  0.2551
 2105W        W18239  18.025   6.635   3.698 -0.2311  0.1762  0.2742
 2106W        W18240  17.205  15.486   4.436 -0.0334  0.0331 -0.1594
 2107W        W18241   8.592   5.737   2.789 -0.2753 -0.1231 -0.2557
 2108W        W18242   8.672   4.272   5.472  0.1937 -0.0569 -0.3537
 2109W        W18243   9.949   4.076  13.583 -0.0937  0.0460 -0.1058
 2110W        W18244   8.245   3.249  14.530  0.1455 -0.0157 -0.2641
 2111W        W18245  15.219  18.148  13.712 -0.2180 -0.1194 -0.1175
 2112W        W18246   8.618   3.129   1.233  0.0338 -0.1285 -0.0084
 2113W        W18247   8.682   6.634   2.915  0.1849  0.1387 -0.2531
 2114W        W18248  14.103   9.507  15.706  0.1313  0.2083 -0.0850
 2115W        W18249   9.263   3.468  13.437  0.0988 -0.0284  0.0434
 2116W        W18250  16.299  14.937   2.349 -0.2282  0.2587  0.3368
 2117W        W18251  10.413   0.369   3.811 -0.1390 -0.2263 -0.0671
 2118W        W18252   0.365  14.681   0.938 -0.0915  0.1333 -0.1046
 2119W        W18253  16.123  13.267  13.461 -0.2518 -0.2398  0.0670
 2120W        W18254   6.007  10.752  14.537 -0.2508  0.1064 -0.0155
 2121W        W18255   1.971   1.339  11.080  0.2219 -0.1455 -0.1332
 2122W        W18256   3.775   4.951   5.229  0.0839  0.1412 -0.0723
 2123W        W18257   6.650   4.103   2.336  0.2350 -0.1697 -0.2548
 2124W        W18258  14.996  15.016  13.286 -0.1902  0.0927 -0.2036
 2125W        W18259  14.736  10.736   4.880  0.0034  0.1989  0.3745
 2126W        W18260   2.814  12.668   4.483  0.0072 -0.0029 -0.0563
 2127W        W18261  17.975   4.510   1.661 -0.2109 -0.2419  0.0613
 2128W        W18262  16.859   9.441   1.266 -0.0379 -0.1348  0.2115
 2129W        W18263   0.281   7.742  13.512  0.0984 -0.0522 -0.0573
 2130W        W18264  14.680  17.122   1.560  0.0429  0.0602  0.0541
 2131W        W18265   3.035   8.615  13.163  0.0455  0.0103  0.3970
 2132W        W18266  11.335  10.827  14.710  0.2855  0.0638 -0.1041
 2133W        W18267  15.399   1.026  14.419 -0.2172  0.1789  0.0423
 2134W        W18268  18.447   6.031  11.776 -0.1004  0.2583 -0.4431
 2135W        W18269  10.016   5.749  13.383  0.2302  0.2029  0.2346
 2136W        W18270  10.739   2.098   2.199 -0.0747  0.1697 -0.1909
 2137W        W18271  15.108   9.455   4.908 -0.3261  0.0288  0.2177
 2138W        W18272  10.195  11.869   4.744  0.2408 -0.3852  0.0448
 2139W        W18273  10.471  14.232   0.006 -0.0482 -0.2801  0.1421
 2140W        W18274   8.372   1.628   0.942  0.1962  0.1587  0.0421
 2141W        W18275   4.135   0.441   5.038  0.2728 -0.1509 -0.3599
 2142W        W18276  13.798   8.530   3.611 -0.0653 -0.2463 -0.3908
 2143W        W18277  13.720   9.952   2.396 -0.2019  0.3198 -0.4156
 2144W        W18278  10.905  15.675   4.347 -0.0669 -0.4558  0.0392
 2145W        W18279  16.431   0.855   0.176 -0.5318 -0.1082 -0.0245
 2146W        W18280   5.460   0.550  10.753 -0.0503  0.0187  0.1807
 2147W        W18281  14.991  11.164   4.914  0.0925  0.1216  0.1117
 2148W        W18282  18.010   6.347  12.533 -0.0007  0.2550  0.1534
 2149W        W18283   1.103  15.561  10.580 -0.0363  0.0305 -0.1354
 2150W        W18284   5.262   9.446  15.024 -0.0943  0.1581  0.2197
 2151W        W18285   4.455   0.877  14.056 -0.0570  0.2178  0.3528
 2152W        W18286  10.996  16.917  14.542  0.0450  0.2012  0.3126
 2153W        W18287  17.756  10.240   0.966 -0.3542  0.2809  0.1355
 2154W        W18288   7.455  16.367  14.227 -0.1875 -0.0014 -0.0066
 2155W        W18289   1.266   7.723  14.279 -0.1034  0.0680  0.0356
 2156W        W18290   9.144   4.355   1.001  0.0093  0.0745 -0.0996
 2157W        W18291   4.599  16.540   2.468  0.2553  0.2237  0.1932
 2158W        W18292   2.020  11.128  14.657 -0.2481  0.0336  0.2727
 2159W        W18293   5.129  16.426  11.050 -0.0184 -0.0290  0.0940
 2160W        W18294   3.470  14.289  11.366  0.0557 -0.3394  0.0136
 2161W        W18295   7.991  15.202   4.569 -0.0214  0.1799  0.1060
 2162W        W18296   3.161  18.039  12.539 -0.0840  0.0185  0.0433
 2163W        W18297   0.879   3.461  14.915 -0.2129  0.0184 -0.1135
 2164W        W18298   4.954   1.969   4.372  0.3785  0.0911 -0.3058
 2165W        W18299   9.006  16.554  14.378 -0.0478 -0.0224 -0.0822
 2166W        W18300  17.272  11.436   4.799 -0.1004  0.1776 -0.2336
 2167W        W18301  12.699  15.856   3.399  0.0105  0.1582 -0.0236
 2168W        W18302   0.933   3.805  11.015  0.0387  0.1546 -0.2165
 2169W        W18303  14.627  16.318  12.002  0.0605 -0.0508  0.0663
 2170W        W18304  12.196  12.249   1.529 -0.1248 -0.2333  0.1109
 2171W        W18305  16.278  15.170  15.005 -0.0525 -0.1323  0.0651
 2172W        W18306   2.948   2.182  13.410  0.0931 -0.0837 -0.2696
 2173W        W18307  15.817  16.349   1.229 -0.3445  0.1075 -0.2054
 2174W        W18308   9.590  12.860  14.931  0.1680  0.2606  0.1110
 2175W        W18309  10.826  11.427   1.534 -0.1649 -0.4438 -0.0687
 2176W        W18310   8.260   5.455  15.102  0.1761  0.3734  0.0427
 2177W        W18311   0.137   3.254  11.750 -0.0550 -0.1023  0.1881
 2178W        W18312   2.428   9.227  14.562 -0.0136 -0.1241  0.1126
 2179W        W18313  17.793  16.347  12.321 -0.1973  0.0653  0.1386
 2180W        W18314  10.917  13.882  13.054 -0.0492 -0.6247  0.1669
 2181W        W18315   7.406  15.750   2.861  0.2408 -0.2358  0.0330
 2182W        W18316   1.119   2.322   3.747 -0.2386  0.2866 -0.1175
 2183W        W18317  12.615  12.382   0.990 -0.0621  0.1839 -0.3769
 2184W        W18318  14.144  12.703   5.061 -0.0889 -0.1576  0.3113
 2185W        W18319   7.209   1.771  15.321  0.2009  0.0070 -0.2606
 2186W        W18320   0.311  17.490  13.256 -0.0040 -0.2296  0.2626
 2187W        W18321   5.851   4.127  10.187  0.0158 -0.0210 -0.0391
 2188W        W18322  17.381  14.313  14.244 -0.1476  0.0269  0.1339
 2189W        W18323   2.105  17.369  13.738  0.2359  0.2292 -0.1294
 2190W        W18324   8.747   0.563  14.533  0.0231  0.1919 -0.1104
 2191W        W18325   6.327   6.093   3.615  0.1400 -0.0175  0.0703
 2192W        W18326   2.172  10.045   4.474  0.1406  0.0369 -0.1238
 2193W        W18327  13.462   5.034  14.996 -0.0969  0.2522 -0.0292
 2194W        W18328   2.305  14.677  14.497  0.2728 -0.0246 -0.0064
 2195W        W18329  13.224   2.474   5.303 -0.0802 -0.1874  0.2754
 2196W        W18330   9.533   7.880  11.433 -0.1367 -0.0002  0.1049
 2197W        W18331   5.974   7.033  10.303 -0.1569 -0.0127  0.0401
 2198W        W18332   1.747  11.379  13.427 -0.0848  0.0569 -0.2534
 2199W        W18333  16.263   1.436  11.745  0.0344 -0.1190  0.1911
 2200W        W18334   9.858  10.868  12.220  0.1877  0.0568 -0.0668
 2201W        W18335  17.889  17.511  11.107 -0.1129 -0.1890 -0.0765
 2202W        W18336   5.469   0.039   5.223 -0.2256  0.1462 -0.1402
 2203W        W18337  14.880  11.244  12.937 -0.0847 -0.0906 -0.0083
 2204W        W18338  17.186  10.091   1.709 -0.5515 -0.1135  0.0251
 2205W        W18339   9.243  12.519   0.544  0.0228  0.0223 -0.1259
 2206W        W18340  10.816  13.433  13.543  0.0880  0.1474  0.1036
 2207W        W18341   2.016   4.468  11.316  0.0023 -0.0021  0.2354
 2208W        W18342   2.083  10.639  11.827 -0.0266 -0.1788  0.0444
 2209W        W18343  11.929   0.097  12.205  0.0051 -0.0487 -0.0282
 2210W        W18344  15.763  12.952  12.632  0.3147  0.0272  0.4096
 2211W        W18345   0.214  10.322   3.868  0.1056  0.2183  0.0228
 2212W        W18346  10.459   3.469   4.809 -0.0018 -0.1175 -0.2870
 2213W        W18347  15.616  18.446  13.767 -0.1604  0.1163  0.0757
 2214W        W18348  13.639   8.147   1.618  0.0933  0.1130 -0.0429
 2215W        W18349  14.871  18.141  11.651  0.0252  0.3700  0.1320
 2216W        W18350  13.604  11.419  15.124 -0.1831  0.0239  0.0935
 2217W        W18351  11.048  14.296  12.154  0.0025  0.0692 -0.2434
 2218W        W18352  12.916   3.472   2.375  0.0664 -0.0892  0.0010
 2219W        W18353   5.140  13.724  14.403  0.1981  0.0067  0.2963
 2220W        W18354  10.169  10.406   1.004 -0.2074 -0.3388 -0.2366
 2221W        W18355  12.393   3.520   1.334 -0.0309  0.2106 -0.0837
 2222W        W18356  15.385   8.355   5.312  0.2935 -0.3746  0.2196
 2223W        W18357   9.531  17.634   0.065  0.1023 -0.2766 -0.0681
 2224W        W18358   4.079  16.515  11.771  0.1486 -0.0019 -0.0189
 2225W        W18359   9.609   2.347  15.811  0.0446 -0.4316 -0.1831
 2226W        W18360   3.476  17.790  14.908 -0.2264  0.1553 -0.0392
 2227W        W18361   2.471   2.400  12.902  0.2941 -0.0642  0.3298
 2228W        W18362   6.062  11.486   3.416 -0.0652 -0.1724  0.1129
 2229W        W18363  15.916   2.785  14.520  0.1758  0.0361  0.2059
 2230W        W18364   3.720  11.244   0.878  0.0315  0.0564 -0.2563
 2231W        W18365   7.850   0.368  11.669  0.0563 -0.1774  0.1217
 2232W        W18366   0.962   4.506   1.447 -0.4629 -0.0618  0.0800
 2233W        W18367   0.741   8.531   0.563  0.0399  0.2052  0.0350
 2234W        W18368   5.324   8.832   2.489 -0.0767  0.2282  0.0361
 2235W        W18369   5.155  11.779  11.350 -0.1850 -0.1194  0.2684
 2236W        W18370  16.627   2.692   5.271  0.1615 -0.0553 -0.1471
 2237W        W18371   4.006  17.991  14.049 -0.1635  0.2008  0.0342
 2238W        W18372  13.579  10.231  14.976  0.1275 -0.0062 -0.0609
 2239W        W18373   4.853   9.136  13.848 -0.0236  0.2648  0.0945
 2240W        W18374  16.463   9.860   3.008 -0.0698  0.0611  0.1483
 2241W        W18375  15.351  11.266  13.163 -0.2004 -0.1440 -0.2445
 2242W        W18376  15.943   9.658  13.467  0.1567 -0.1251  0.1399
 2243W        W18377   5.091   4.517  11.278 -0.0366 -0.0045  0.0089
 2244W        W18378   8.203  15.991   5.628  0.0677  0.0452  0.2952
 2245W        W18379   4.216   0.368  14.468 -0.1419  0.2495  0.1729
 2246W        W18380  16.065  13.842  12.811 -0.0110  0.1018  0.0937
 2247W        W18381   8.554   1.370  12.233 -0.4045  0.1166 -0.1353
 2248W        W18382   0.577  16.585  11.549  0.2094 -0.3062 -0.2723
 2249W        W18383   9.185  16.840  15.668 -0.1703  0.0539 -0.1559
 2250W        W18384  16.097  18.075   3.317  0.3158 -0.0128 -0.0211
 2251W        W18385   1.199   6.228  11.056  0.0194  0.0138 -0.2818
 2252W        W18386   9.934  17.741  12.733 -0.1292 -0.4276 -0.0861
 2253W        W18387  12.606  12.593  12.486  0.1403  0.1176  0.0377
 2254W        W18388  16.228  18.269   6.500  0.1041 -0.0931  0.1487
 2255W        W18389   8.880  16.833  13.333  0.0812 -0.1985 -0.0416
 2256W        W18390  16.471  11.801  11.984 -0.2003  0.2229  0.0429
 2257W        W18391   8.066  10.393   4.629 -0.1123  0.0567 -0.1941
 2258W        W18392  16.341  15.713   0.228 -0.0639 -0.2849 -0.0281
 2259W        W18393   5.068  10.638  13.964  0.0397  0.5228 -0.0467
 2260W        W18394   9.534   9.930  12.884  0.2257 -0.1033  0.0198
 2261W        W18395   8.577  10.977  15.803 -0.4274  0.1496 -0.1240
 2262W        W18396   7.462   4.018  10.888 -0.0066  0.1272  0.2400
 2263W        W18397   4.458   9.098   1.599  0.0776 -0.0811 -0.1350
 2264W        W18398   8.668   0.024  12.060 -0.1465 -0.0914  0.1397
 2265W        W18399   5.035  12.942   1.254 -0.0179 -0.2214  0.3498
 2266W        W18400   8.186  17.710  13.904 -0.2050  0.2276 -0.1163
 2267W        W18401   5.140   4.421  13.983 -0.0496  0.1684  0.1170
 2268W        W18402  15.234   5.025   2.504  0.1188 -0.1178  0.0168
 2269W        W18403   5.022  12.422   0.263  0.0978  0.2326  0.1184
 2270W        W18404  17.968  17.672  15.303 -0.1030  0.0585 -0.5044
 2271W        W18405   7.750   3.393  14.381  0.0556  0.1253  0.0392
 2272W        W18406  17.977   1.523  13.562  0.1925  0.2103  0.1306
 2273W        W18407  15.207   1.099   4.367  0.1990  0.0942  0.1623
 2274W        W18408   6.757   1.214  11.399 -0.0219  0.0720  0.2102
 2275W        W18409  11.465   1.027  12.061 -0.0491 -0.0448  0.3319
 2276W        W18410  17.250   8.274   0.291  0.4116 -0.0737 -0.3209
 2277W        W18411  10.055   6.551  15.006  0.1866 -0.0843 -0.1775
 2278W        W18412   5.420   8.301  14.628 -0.2267 -0.0717  0.0648
 2279W        W18413  13.897  11.577  14.794 -0.0991  0.1580 -0.0397
 2280W        W18414  17.930   8.314   4.854  0.3733 -0.0143 -0.1338
 2281W        W18415   1.497  12.261  15.256  0.4576 -0.1301  0.0360
 2282W        W18416  13.665  12.045  14.558  0.0652 -0.2966 -0.0332
 2283W        W18417   7.357  15.349  13.711 -0.0377 -0.0193 -0.0981
 2284W        W18418   9.518  14.648  13.469  0.2550  0.3027 -0.2723
 2285W        W18419  13.928   2.162  13.346  0.2411 -0.1551 -0.0661
 2286W        W18420  10.109  15.709   3.108 -0.2277  0.0238 -0.0610
 2287W        W18421  14.943   7.760   4.711 -0.2330 -0.3809  0.1533
 2288W        W18422   5.827  13.300   0.627  0.0113 -0.3370  0.0000
 2289W        W18423   6.095   7.846   4.446 -0.0488  0.2772 -0.0362
 2290W        W18424  15.251   8.486   5.812  0.0118 -0.3005  0.2149
 2291W        W18425  12.856   4.227   4.679  0.0028  0.0911 -0.3160
 2292W        W18426   9.165  15.983  14.859  0.3435 -0.2125 -0.1290
 2293W        W18427   9.365   5.568   4.756  0.3497  0.2119 -0.1394
 2294W        W18428  18.131   0.302   3.213  0.0651 -0.0384 -0.1058
 2295W        W18429  11.854   6.754   4.086  0.4257 -0.1363 -0.1076
 2296W        W18430   2.271  12.604  13.415 -0.6146 -0.1769  0.3545
 2297W        W18431   8.303  13.609   1.232 -0.2207 -0.0113 -0.0589
 2298W        W18432  15.423  11.524   3.099 -0.0319  0.0699  0.1974
 2299W        W18433  13.624  12.419   2.696 -0.1659  0.0600 -0.1105
 2300W        W18434  15.772  18.135   6.141  0.0683 -0.2053 -0.0908
 2301W        W18435   3.351  11.489   1.772  0.1966 -0.0952  0.2008
 2302W        W18436   2.567  11.721   3.209  0.1898  0.0953 -0.1761
 2303W        W18437   9.120   2.595   3.078  0.0913 -0.0173 -0.2822
 2304W        W18438  14.440  10.187  12.132 -0.1897  0.1120  0.0091
 2305W        W18439   3.779  13.064  14.433  0.1780 -0.1162 -0.1879
 2306W        W18440  17.442   0.915   3.323 -0.0302  0.0556 -0.2643
 2307W        W18441  10.849   3.672  11.649  0.0881  0.3154 -0.0329
 2308W        W18442  16.107   6.069  14.183  0.3201 -0.0554  0.2656
 2309W        W18443   4.000   6.623   3.892  0.0514  0.0319  0.0187
 2310W        W18444   2.188  16.988  12.987  0.1788 -0.3025  0.0018
 2311W        W18445   0.565  15.642  10.840  0.3324 -0.4476  0.1725
 2312W        W18446   2.172   7.214  12.534 -0.1500  0.3657 -0.2045
 2313W        W18447  10.744  14.258  10.950 -0.0741  0.2968  0.2870
 2314W        W18448   9.137   2.038   5.425  0.0676  0.1740  0.0551
 2315W        W18449  14.396   7.856   3.218 -0.3443 -0.1032  0.0952
 2316W        W18450   4.593  12.809  14.592  0.0938 -0.1026  0.3475
 2317W        W18451  15.284   5.148  14.277  0.1063  0.2782  0.1154
 2318W        W18452   3.961  17.848   5.290 -0.0308  0.2840  0.1764
 2319W        W18453  10.561  12.730  14.496  0.1235  0.1927 -0.1701
 2320W        W18454  10.837   1.355   2.403 -0.2991 -0.0639 -0.0057
 2321W        W18455   2.860  10.612   9.455  0.0918 -0.3122 -0.3048
 2322W        W18456  16.499  18.209   1.477  0.3337  0.0170  0.0822
 2323W        W18457   8.162  12.324   2.993 -0.2730  0.0744  0.1555
 2324W        W18458   3.636  12.146  12.917  0.0920 -0.2141 -0.2800
 2325W        W18459   3.897  10.405   2.525 -0.0868  0.0025 -0.0037
 2326W        W18460  17.369  17.419  11.181  0.2316 -0.1583  0.2455
 2327W        W18461  18.235   9.830  13.612 -0.2440  0.1242 -0.1149
 2328W        W18462   5.405   0.502  12.894 -0.2310 -0.0730  0.1962
 2329W        W18463   7.702   1.936  14.605  0.3777 -0.1329  0.1225
 2330W        W18464  10.648   4.617   3.648  0.2469  0.2806  0.0322
 2331W        W18465   2.197   4.860  12.739 -0.3711  0.3699 -0.0224
 2332W        W18466   8.411   9.947   0.108  0.1522 -0.1674  0.1276
 2333W        W18467   6.454  14.667  11.348 -0.0071 -0.0099  0.0109
 2334W        W18468  13.789   4.208   3.456 -0.0387  0.3607  0.0335
 2335W        W18469   9.635   9.303  14.191 -0.0804 -0.0106  0.1167
 2336W        W18470   4.908   3.773   4.449 -0.0321  0.0499  0.0014
 2337W        W18471   6.332  11.418  15.088  0.3243  0.3414  0.0365
 2338W        W18472   8.477  14.873   1.368 -0.4240  0.2028  0.1718
 2339W        W18473  16.547  16.464   2.549  0.1147 -0.0563 -0.0324
 2340W        W18474   0.124  14.377  13.996  0.5708 -0.3777 -0.0941
 2341W        W18475  16.546  11.695  10.023  0.2602 -0.3370 -0.1583
 2342W        W18476   2.506  12.106  14.276 -0.0354  0.0910 -0.1320
 2343W        W18477   0.953  18.209  15.873 -0.0026 -0.1011 -0.0733
 2344W        W18478  10.574   3.228  14.337 -0.1284  0.0748  0.0523
 2345W        W18479  10.282   4.886  13.678 -0.0840  0.4807  0.1849
 2346W        W18480  16.394  17.567  10.239  0.0450 -0.0283  0.0168
 2347W        W18481  13.622  16.050   4.725  0.1009  0.0276  0.1394
 2348W        W18482  15.184  16.389   3.318  0.3054  0.2144  0.0157
 2349W        W18483   0.836   7.330   1.098  0.0636  0.2401  0.0989
 2350W        W18484   0.641  17.177  15.905  0.0081 -0.0385 -0.0799
 2351W        W18485   2.876  16.245   1.001  0.1766  0.0373 -0.1524
 2352W        W18486  16.710  15.479   1.332 -0.0627 -0.0404 -0.2294
 2353W        W18487  10.400  11.593  12.672 -0.2632  0.0494 -0.0339
 2354W        W18488   9.743  12.072   4.949  0.1191 -0.2110  0.3163
 2355W        W18489   3.087   4.521  13.637  0.2577  0.0662  0.3171
 2356W        W18490  17.167  16.969  15.056  0.5218  0.2061 -0.2800
 2357W        W18491  13.211  17.005   5.272  0.0972 -0.3320  0.2464
 2358W        W18492   5.608   7.974   5.040  0.1322 -0.0861  0.4653
 2359W        W18493  17.639  13.481  13.496  0.0134 -0.1767 -0.1603
 2360W        W18494  17.808   5.289   3.425 -0.0415 -0.1914 -0.0879
 2361W        W18495   4.939  10.894   5.540  0.0088  0.2062 -0.1454
 2362W        W18496  13.879   4.455  12.893  0.0087  0.2005  0.0401
 2363W        W18497  11.329   5.383  10.593  0.0930  0.0856  0.2536
 2364W        W18498   2.648   7.840  13.392 -0.0098 -0.0199  0.1339
 2365W        W18499   0.538  12.099   4.516 -0.3095 -0.2403  0.0894
 2366W        W18500  16.389  17.781   3.670 -0.0867  0.0137 -0.1289
 2367W        W18501  12.523  11.892  13.291  0.2419  0.2275  0.0381
 2368W        W18502   9.532   4.497   0.595 -0.1438  0.0917 -0.0098
 2369W        W18503   7.881   8.437  13.647  0.2411 -0.0393 -0.3073
 2370W        W18504   8.608   8.287  14.633 -0.1390 -0.4484 -0.1317
 2371W        W18505  11.567  15.203   1.395  0.0109 -0.0328 -0.0682
 2372W        W18506   7.452   4.002  13.643 -0.2675 -0.1399 -0.1103
 2373W        W18507   1.536   9.041  15.183 -0.1213 -0.1483 -0.0381
 2374W        W18508   9.291   6.146   1.472  0.2316 -0.1417 -0.3148
 2375W        W18509   5.330   6.487   3.068  0.1852  0.2298 -0.1252
 2376W        W18510   3.461  16.744  11.022 -0.2500  0.1162  0.1192
 2377W        W18511  10.855   7.683   0.946 -0.1701 -0.0478 -0.1261
 2378W        W18512   5.721  15.061  15.390 -0.1410  0.1693  0.1959
 2379W        W18513   8.472   9.236   4.080  0.0125 -0.3873 -0.3370
 2380W        W18514   5.574   9.233  15.357 -0.0804 -0.0551 -0.2183
 2381W        W18515  15.638  14.979  14.817 -0.1657 -0.0367  0.1227
 2382W        W18516  17.087  18.095  14.677 -0.1044  0.6479 -0.1657
 2383W        W18517   2.151  10.511  12.972  0.0343  0.0640 -0.2503
 2384W        W18518   4.316   4.370   1.812  0.3763  0.0893 -0.0480
 2385W        W18519  11.275   8.256  11.765 -0.1017  0.3314  0.0428
 2386W        W18520   6.774   3.583  13.471 -0.0506  0.1019 -0.0002
 2387W        W18521   4.210  14.553  13.493 -0.4124  0.0098  0.1643
 2388W        W18522   9.398   0.648  13.189  0.0157 -0.0815 -0.3245
 2389W        W18523  10.520   0.827  13.509 -0.0068 -0.2473  0.1116
 2390W        W18524   4.792   0.185   5.727  0.1530 -0.3323 -0.0774
 2391W        W18525   1.395   0.728  12.560 -0.1793 -0.1287  0.3905
 2392W        W18526  16.334   6.213   4.220 -0.0122  0.0065 -0.2623
 2393W        W18527  12.719   8.482   3.174 -0.0023 -0.2522  0.1082
 2394W        W18528   6.068   9.236   2.901  0.1403  0.3159 -0.2956
 2395W        W18529   7.588  14.324   2.197  0.0822  0.0460 -0.1467
 2396W        W18530   0.084   8.812  10.863 -0.2354 -0.0499 -0.0783
 2397W        W18531   5.368  18.139   4.867  0.0582 -0.0115  0.0426
 2398W        W18532  16.886  18.012  15.203  0.3756  0.0122  0.0562
 2399W        W18533   4.967   3.670  15.195 -0.0260  0.1523  0.1464
 2400W        W18534   3.302  14.614   1.745  0.0651 -0.1318  0.2191
 2401W        W18535   3.150   8.657  12.598  0.0280 -0.0182 -0.2372
 2402W        W18536  13.177   4.435   1.213 -0.0410 -0.4255  0.1797
 2403W        W18537  14.385  17.979  12.890  0.0590  0.1043  0.2415
 2404W        W18538  11.322  13.889  15.309  0.0759 -0.0121 -0.3367
 2405W        W18539  13.597   0.979   3.887 -0.1678 -0.3903  0.0556
 2406W        W18540  18.020  17.859   4.686 -0.0524 -0.1275 -0.0687
 2407W        W18541  12.164   1.203   4.693  0.0519 -0.0968 -0.3235
 2408W        W18542  12.953  16.434  15.073 -0.1847 -0.0143  0.0145
 2409W        W18543   0.196  12.059  12.287 -0.3662 -0.2216  0.0066
 2410W        W18544  16.149   1.727  15.355  0.4442 -0.3341 -0.0628
 2411W        W18545   5.262  17.766   1.625  0.0193  0.0249 -0.2504
 2412W        W18546   0.623  14.790   3.926 -0.0296 -0.1144  0.4210
 2413W        W18547   5.925   5.040   0.993  0.0569  0.3022  0.0869
 2414W        W18548  15.151  17.133  11.801 -0.0921 -0.0517  0.4152
 2415W        W18549  15.487   7.612   3.020  0.1720  0.3131 -0.2599
 2416W        W18550  13.260   3.683  11.727  0.1208  0.1424  0.1794
 2417W        W18551  17.732  16.643   4.113 -0.0822  0.1588  0.1560
 2418W        W18552   8.830   4.952   1.868 -0.0428 -0.1823  0.2083
 2419W        W18553   2.992   4.169   0.947 -0.3466  0.2174 -0.0861
 2420W        W18554   6.290  10.683   1.246  0.0157  0.0687  0.1378
 2421W        W18555  17.929  14.833   4.565  0.0138 -0.0683 -0.0879
 2422W        W18556  10.783  18.286   5.441  0.2077 -0.0459 -0.0891
 2423W        W18557  12.011  15.036   4.117 -0.0181 -0.0330 -0.1621
 2424W        W18558   2.017   1.814  11.212 -0.2196  0.1346  0.1279
 2425W        W18559   7.371  12.683   1.494  0.0820 -0.1284 -0.2580
 2426W        W18560   6.188   0.966  15.032 -0.0169  0.2323 -0.1863
 2427W        W18561  14.337   5.186   0.971  0.2954  0.2590  0.1530
 2428W        W18562   4.290   9.758   0.696 -0.1620  0.0834  0.2528
 2429W        W18563  11.763   8.194  11.604  0.2342 -0.0046  0.2847
 2430W        W18564  16.934   6.255  11.629 -0.3143 -0.0034 -0.0909
 2431W        W18565  13.262   4.789  14.621  0.0902 -0.2071 -0.0795
 2432W        W18566   9.324  15.891  12.220 -0.0310 -0.0611 -0.2854
 2433W        W18567   5.888   8.835   3.151 -0.0126  0.0619  0.3364
 2434W        W18568   9.857  12.441  14.404  0.3288 -0.0730 -0.5217
 2435W        W18569  13.090   3.754  15.331 -0.2197 -0.0727 -0.0461
 2436W        W18570   4.937   3.033  10.887 -0.2037  0.0209 -0.0885
 2437W        W18571   2.361   2.346   4.181  0.1354 -0.3494 -0.4190
 2438W        W18572   3.159   9.551   0.805 -0.0030 -0.3055 -0.3423
 2439W        W18573  10.409   7.634   6.238  0.2374 -0.0341  0.3946
 2440W        W18574   5.608  17.961  14.641  0.3122  0.1848  0.0805
 2441W        W18575  13.150  11.595   4.170  0.0318 -0.0309  0.2469
 2442W        W18576   6.296  11.984  11.633  0.1138  0.0251 -0.1294
 2443W        W18577  15.421   2.191   5.270 -0.0385 -0.2744 -0.0234
 2444W        W18578  16.011  10.759  13.626  0.2068  0.1149  0.1648
 2445W        W18579  11.349   5.563  15.043  0.0511 -0.6774 -0.2878
 2446W        W18580  16.865  15.923   5.798  0.1778  0.1015 -0.0212
 2447W        W18581   0.151  16.103   0.797  0.0969  0.3392  0.0516
 2448W        W18582   5.606  17.379  11.877 -0.0527  0.2284 -0.0815
 2449W        W18583   1.365   6.071  13.166  0.3964 -0.1971  0.0942
 2450W        W18584  15.326  14.666   0.917 -0.0712 -0.1893  0.1679
 2451W        W18585   5.313  18.198  12.385  0.4988  0.0257  0.0989
 2452W        W18586   3.192   8.607  12.103  0.1074  0.1242 -0.1727
 2453W        W18587  13.341   9.152  14.660  0.2679 -0.0442  0.1895
 2454W        W18588   6.488  17.392   1.504 -0.1559 -0.3529 -0.2658
 2455W        W18589   3.798  13.173  12.851 -0.1481 -0.1777  0.1575
 2456W        W18590  17.502   8.800  10.167 -0.1171  0.1265 -0.1590
 2457W        W18591   9.192  18.314   4.553  0.1020  0.1772 -0.2000
 2458W        W18592  16.793   5.107  14.684 -0.3684  0.0835  0.4222
 2459W        W18593   9.889  11.053  15.878  0.0292  0.0832 -0.0298
 2460W        W18594   9.081   1.731  11.554  0.2461  0.1401 -0.2193
 2461W        W18595   4.979   7.104   4.204 -0.1249 -0.2281  0.2373
 2462W        W18596  13.069   0.145   2.600 -0.0602  0.3484  0.3539
 2463W        W18597  11.732  11.077  13.601 -0.0821  0.2014  0.2428
 2464W        W18598  15.560   5.572  14.505  0.2148 -0.2146 -0.0577
 2465W        W18599  10.435  11.587   5.569 -0.1360 -0.2115  0.0490
 2466W        W18600   3.835   1.473  14.174  0.0305  0.0042 -0.1152
 2467W        W18601  13.333  16.343   3.824  0.0416  0.0176  0.0249
 2468W        W18602   9.948   2.553   0.650 -0.0064 -0.0524 -0.0495
 2469W        W18603  12.075   5.604   2.543  0.0545  0.1974 -0.1078
 2470W        W18604  10.644   4.227  12.826 -0.2487 -0.0907  0.2979
 2471W        W18605   6.126   1.241   2.435 -0.0248 -0.1097 -0.0050
 2472W        W18606   3.886   6.444   0.070  0.0774 -0.2305 -0.0276
 2473W        W18607   1.825   7.756   0.300  0.0123  0.3027 -0.0066
 2474W        W18608   5.202   6.736   0.009  0.0287 -0.1571  0.3319
 2475W        W18609  15.358   2.165  12.854  0.0434  0.1632  0.1294
 2476W        W18610   2.323   5.421  11.358 -0.0069  0.1597  0.2478
 2477W        W18611  13.723  12.943  13.477  0.0727  0.2421  0.2442
 2478W        W18612   9.885  14.534   2.549 -0.0018 -0.1072  0.0677
 2479W        W18613  16.025  15.557   0.550  0.2541 -0.0213 -0.0089
 2480W        W18614   9.514   4.238   1.474 -0.0085  0.0475  0.1167
 2481W        W18615  11.075   9.284  15.333  0.0108 -0.2348 -0.0235
 2482W        W18616   1.235   7.683  13.726  0.0522  0.0450  0.0132
 2483W        W18617   0.645   9.026   2.158 -0.1679 -0.1261  0.1381
 2484W        W18618  15.723   0.066  12.293  0.2381 -0.0653  0.1703
 2485W        W18619   2.290   0.726   1.414 -0.0861 -0.0740 -0.0726
 2486W        W18620  15.720  12.124  10.589 -0.0625  0.0439 -0.3711
 2487W        W18621   4.105   7.436   1.358  0.0081  0.1222  0.1055
 2488W        W18622  16.043  12.981  11.859  0.0978 -0.2968  0.0095
 2489W        W18623  12.910   7.242   0.708 -0.1632 -0.1977 -0.1509
 2490W        W18624  16.000  13.986   0.058 -0.1882 -0.1876 -0.0643
 2491W        W18625  11.328  10.823   0.758  0.1343  0.2852  0.0951
 2492W        W18626   0.988   7.165   3.794  0.0335  0.0284  0.2586
 2493W        W18627  17.661   3.189  11.375 -0.4528  0.1657 -0.0666
 2494W        W18628   3.697   3.299   2.360 -0.3101 -0.1303  0.2638
 2495W        W18629  13.805   6.804  11.473  0.1134  0.1267 -0.2269
 2496W        W18630   4.850  11.857  12.807 -0.0228 -0.0740 -0.0501
 2497W        W18631   1.872   1.381   5.279  0.1356 -0.3242 -0.0735
 2498W        W18632  11.153  13.658   4.877 -0.1360  0.1271 -0.1840
 2499W        W18633  16.882  14.282  11.941 -0.0319  0.1879  0.0304
 2500W        W18634   6.944   0.964   2.019  0.0233 -0.1615  0.0463
 2501W        W18635  16.104   1.129  10.232 -0.2189 -0.1463 -0.1528
 2502W        W18636   9.566   6.893  14.079 -0.2085 -0.4309  0.0630
 2503W        W18637   9.369   5.026   4.929  0.1989 -0.0474 -0.0379
 2504W        W18638  15.372   3.411   4.258 -0.0896  0.0227  0.0976
 2505W        W18639  16.006   0.649   0.078 -0.2104 -0.0512 -0.0508
 2506W        W18640  10.184   1.887  14.682 -0.0281 -0.0615  0.0427
 2507W        W18641   3.524   3.353   4.598 -0.2118 -0.1013 -0.2862
 2508W        W18642  13.493   5.079   5.894 -0.1828  0.1452 -0.0117
 2509W        W18643  18.308  15.306   5.057 -0.3257  0.3958 -0.2012
 2510W        W18644  16.594  17.192   4.910  0.1781  0.1321 -0.2535
 2511W        W18645  17.508   6.161  14.175 -0.1004  0.2845  0.2530
 2512W        W18646  11.369  18.284   3.308  0.2793 -0.0316 -0.0672
 2513W        W18647   1.483   9.864   2.714  0.3388 -0.2805  0.2804
 2514W        W18648   8.281   6.893   2.819  0.2801 -0.0803 -0.2090
 2515W        W18649  13.485  13.330  10.087  0.2310 -0.0095  0.0434
 2516W        W18650   0.240   8.727  15.143  0.1701  0.0179 -0.1767
 2517W        W18651  16.945   7.638  11.218  0.0544 -0.0725  0.3137
 2518W        W18652   4.138   5.602  11.185  0.0249 -0.0982  0.0355
 2519W        W18653   7.479  10.090   3.113  0.0607 -0.1966 -0.0975
 2520W        W18654   4.643   3.066  14.441  0.1399 -0.2161  0.1235
 2521W        W18655   2.359   2.484   0.511 -0.0356  0.3896  0.1082
 2522W        W18656   3.155  16.644   0.201  0.0335 -0.0966 -0.4308
 2523W        W18657   5.699  10.787  12.699  0.2978  0.0193 -0.2242
 2524W        W18658   8.471  17.836  14.733 -0.0167 -0.1592  0.1007
 2525W        W18659   9.726  15.795   1.786  0.1363 -0.0752 -0.1017
 2526W        W18660  10.488   0.128  14.042 -0.0512 -0.1264 -0.1108
 2527W        W18661  12.783   1.457   1.514 -0.1751 -0.0788 -0.2210
 2528W        W18662   5.559  14.445   1.640 -0.0194  0.2973  0.3028
 2529W        W18663   9.776  10.740   1.005 -0.2401 -0.1825  0.1478
 2530W        W18664   9.211  14.609  13.062  0.2629  0.0382 -0.0312
 2531W        W18665   4.208   3.224   0.110  0.2333  0.0021 -0.0517
 2532W        W18666  17.482   8.189  14.309  0.0136 -0.1061  0.3229
 2533W        W18667  10.399   5.713   2.084 -0.1654  0.2574  0.1767
 2534W        W18668   9.119  17.382   5.194 -0.1030 -0.4515 -0.1769
 2535W        W18669  13.154   9.029  12.223  0.2366 -0.0152 -0.2958
 2536W        W18670   3.828  16.178  11.113 -0.0704  0.0204 -0.2533
 2537W        W18671   9.107  15.883  13.854  0.0225 -0.0024 -0.2725
 2538W        W18672   1.167  10.492  11.520  0.0536 -0.1784  0.1941
 2539W        W18673  11.158  13.301  12.246  0.3182  0.2748  0.0887
 2540W        W18674  17.434   2.073   3.269  0.1728 -0.0148 -0.2049
 2541W        W18675  17.842   5.953  14.461  0.0144 -0.3517  0.0180
 2542W        W18676  17.720   5.716   3.146 -0.1529  0.0942  0.4486
 2543W        W18677  16.470  12.142   3.772  0.0915  0.0620 -0.1363
 2544W        W18678  12.249  18.391   0.288 -0.0951 -0.1060  0.1111
 2545W        W18679   0.632   5.521  12.316 -0.1129 -0.0022 -0.3318
 2546W        W18680  16.643   2.542   4.264  0.0148 -0.0298 -0.0697
 2547W        W18681   6.694   0.751   3.065  0.2626 -0.0875 -0.0823
 2548W        W18682  11.421  13.739  10.525  0.3231 -0.1038 -0.0207
 2549W        W18683  11.404  16.088  13.115 -0.1579  0.0363 -0.2245
 2550W        W18684   0.837   9.759   3.378 -0.1938 -0.1373 -0.1121
 2551W        W18685   6.814   2.113  12.773  0.2245  0.2690 -0.1477
 2552W        W18686   9.699   0.106   4.664 -0.0640 -0.1603  0.2052
 2553W        W18687   7.962  17.869  14.735 -0.1285 -0.4256  0.0036
 2554W        W18688  10.552   3.250   3.362 -0.0247 -0.0482  0.1350
 2555W        W18689   4.845  15.311  12.386  0.1116 -0.1104  0.1933
 2556W        W18690   9.004  14.168   1.738 -0.0464  0.2442  0.1368
 2557W        W18691   5.584   0.835   1.077 -0.2539 -0.1064  0.0260
 2558W        W18692   1.260  15.942   1.250 -0.3989  0.5175  0.2278
 2559W        W18693   4.638  12.177  13.762  0.1531  0.1169  0.3611
 2560W        W18694  13.708   7.168   5.657 -0.1232  0.0394 -0.0299
 2561W        W18695   6.906   5.321   1.190 -0.0019  0.1653  0.1752
 2562W        W18696   0.256   6.660  13.961  0.0773 -0.0060 -0.1228
 2563W        W18697   7.206  10.506   3.032 -0.1880  0.1293 -0.0983
 2564W        W18698   6.306   3.934   1.899  0.0625  0.0725  0.0095
 2565W        W18699   5.723   9.984   2.887 -0.0955  0.2143  0.0645
 2566W        W18700   0.052   5.841  11.121 -0.0908  0.3423 -0.0769
 2567W        W18701   1.387  11.662  14.586  0.3201 -0.0094 -0.0046
 2568W        W18702  16.244   0.923   2.415 -0.2134  0.1952  0.1526
 2569W        W18703  16.830  13.149   2.234 -0.0040  0.1649  0.0788
 2570W        W18704   5.279   2.381  11.583 -0.0277 -0.1207 -0.1137
 2571W        W18705   3.166  14.638  13.511 -0.1647  0.0058  0.0974
 2572W        W18706   4.886  11.829   4.116 -0.1765  0.0965  0.0396
 2573W        W18707   0.431   1.745  14.332  0.1719  0.0220 -0.0884
 2574W        W18708  12.554  16.651  14.811 -0.1369 -0.0130  0.1962
 2575W        W18709  13.407   6.195   2.636  0.1251 -0.3439 -0.0935
 2576W        W18710   3.495  14.536   4.415 -0.1414 -0.3256  0.0424
 2577W        W18711  10.749  12.819   4.862  0.2853  0.2193  0.1927
 2578W        W18712  15.763  17.566  14.505  0.0679  0.3152 -0.0648
 2579W        W18713  17.414   7.001   3.012 -0.1262 -0.0045 -0.1132
 2580W        W18714   4.763  14.256   1.767 -0.1571  0.1252  0.0594
 2581W        W18715   4.108   7.740   1.737 -0.1662  0.1179 -0.1385
 2582W        W18716   9.287  10.112  15.053 -0.2745  0.1007 -0.2730
 2583W        W18717   9.699  11.192  15.247 -0.1371  0.0238  0.0302
 2584W        W18718   2.592   8.911   0.895  0.3971 -0.2252 -0.0117
 2585W        W18719   3.479  10.768   3.251 -0.1935 -0.0005 -0.1226
 2586W        W18720  15.632   3.753  11.853 -0.0024 -0.0199  0.2867
 2587W        W18721   6.218   7.069  13.460 -0.3484 -0.0840  0.1902
 2588W        W18722   9.564   1.030  15.224  0.0751 -0.1685 -0.2189
 2589W        W18723   9.453   3.267   2.543 -0.1316  0.0379  0.1167
 2590W        W18724  11.415   9.003   5.318 -0.1830 -0.2178  0.2548
 2591W        W18725   0.819  15.351   4.738 -0.1973  0.4194 -0.0700
 2592W        W18726  17.053   6.753   4.105  0.1442 -0.0483 -0.3133
 2593W        W18727  13.001   3.061   2.994 -0.1172  0.3342 -0.1144
 2594W        W18728  17.145   7.514   3.881 -0.1656  0.0841 -0.0785
 2595W        W18729  13.211  13.477  15.858  0.1962  0.3013  0.0522
 2596W        W18730   7.435   0.162  12.875 -0.0159 -0.2609  0.1059
 2597W        W18731   1.502  10.063   2.120 -0.0200  0.1848 -0.0099
 2598W        W18732  17.278  13.419   1.550 -0.0882 -0.3457 -0.0391
 2599W        W18733   1.843   9.943   1.290  0.2121  0.0731  0.4071
 2600W        W18734  10.259  15.334  14.032 -0.0520  0.0270 -0.3463
 2601W        W18735   5.214   4.828   3.788 -0.1791  0.1959 -0.0069
 2602W        W18736   6.812   7.233  15.904  0.3643 -0.4154 -0.2459
 2603W        W18737   0.496  11.265  12.481  0.1376 -0.1475 -0.0463
 2604W        W18738   6.573  14.030  14.165 -0.0824  0.1185 -0.1025
 2605W        W18739  16.111  17.844  13.643  0.2651 -0.1206 -0.0299
 2606W        W18740   5.485   6.207   2.061 -0.2105 -0.2525  0.0408
 2607W        W18741   0.637   6.183  15.815  0.0137  0.0143 -0.0359
 2608W        W18742  14.948  15.237  10.109 -0.0122  0.1349 -0.0621
 2609W        W18743  16.490   9.711   1.973  0.1210 -0.1998  0.0608
 2610W        W18744   2.953   1.341   0.270 -0.0054  0.1828  0.1612
 2611W        W18745   7.832   7.696   1.383  0.0282 -0.2407  0.0930
 2612W        W18746  16.808  16.279   1.263  0.3684 -0.1399  0.0778
 2613W        W18747  10.749  14.152  13.937  0.1002 -0.0946 -0.2404
 2614W        W18748   1.078   8.817   3.963 -0.2275 -0.0730  0.1350
 2615W        W18749   8.627  10.511  12.570 -0.0331 -0.1189 -0.0700
 2616W        W18750  12.743  10.972   1.612 -0.2756 -0.0729  0.1702
 2617W        W18751   7.178   2.541  14.799 -0.0051 -0.0962 -0.1237
 2618W        W18752   6.493  15.648  15.496  0.1364 -0.3129  0.1864
 2619W        W18753  13.510  17.761   1.385 -0.2131  0.0359 -0.1483
 2620W        W18754   2.392   1.507   4.095 -0.0660 -0.1689 -0.2492
 2621W        W18755   0.028   8.819   3.130 -0.1669  0.2216 -0.1081
 2622W        W18756   0.174   5.487   3.914 -0.0464 -0.0318 -0.2306
 2623W        W18757  18.251  15.968   5.497  0.1320  0.1478 -0.0745
 2624W        W18758   2.091   8.544  11.850 -0.0413 -0.1526 -0.0313
 2625W        W18759   1.185   4.149   3.055 -0.2926  0.2334 -0.0690
 2626W        W18760  14.888   8.967   4.871  0.1383 -0.1073  0.0987
 2627W        W18761  17.826   3.792   3.859 -0.0789 -0.3659  0.1779
 2628W        W18762  16.760  13.177  12.867 -0.3317  0.3214 -0.0306
 2629W        W18763   8.567  12.676  15.108  0.4030  0.4032  0.0343
 2630W        W18764  17.882   9.745   5.715 -0.2072  0.3137 -0.0214
 2631W        W18765  13.920   0.889  12.492  0.1349 -0.1523 -0.0742
 2632W        W18766  11.229  13.310  10.764  0.2002 -0.0287 -0.1783
 2633W        W18767   2.843  16.992  13.190  0.2399  0.1543 -0.2362
 2634W        W18768   5.073  11.665   3.208  0.2350  0.1800  0.0132
 2635W        W18769  10.308   3.587  14.789 -0.0287  0.3227 -0.1424
 2636W        W18770  14.686   5.778   1.761 -0.1766 -0.3469  0.2226
 2637W        W18771  12.854   2.035   3.700  0.0574 -0.2467 -0.3187
 2638W        W18772   0.118   0.861  15.202  0.0125  0.0284  0.3352
 2639W        W18773  14.477  16.275   0.062 -0.0803 -0.3668  0.0568
 2640W        W18774   1.649   9.745   0.584 -0.0908  0.0339  0.0170
 2641W        W18775  14.891   0.755   4.931  0.0089 -0.0716 -0.1023
 2642W        W18776   7.939  14.716  11.789 -0.1577  0.0300 -0.1984
 2643W        W18777   2.579   8.303  13.799  0.2565 -0.1082  0.0372
 2644W        W18778   8.108   5.130  14.734 -0.0529  0.2986 -0.2506
 2645W        W18779   8.372  10.124  12.775  0.0472  0.1782 -0.1115
 2646W        W18780   9.473  11.946  11.553 -0.1331 -0.0305 -0.0824
 2647W        W18781   6.946  11.355   2.302 -0.1154  0.0794  0.1097
 2648W        W18782  16.112  17.975  10.949  0.1504  0.0213 -0.2837
 2649W        W18783  17.959  14.961   5.033  0.0561  0.2066  0.0352
 2650W        W18784  10.534  12.527  13.369  0.2395 -0.0079 -0.1078
 2651W        W18785   5.796   0.419   4.169  0.1211 -0.1120 -0.1860
 2652W        W18786  15.240  10.016   2.412 -0.0478  0.0142  0.4236
 2653W        W18787  17.323  14.898   3.178 -0.0999 -0.1549 -0.1069
 2654W        W18788  18.163  13.773  11.599 -0.0758 -0.2018 -0.2032
 2655W        W18789  10.923   8.227  14.044  0.0758 -0.1842  0.4541
 2656W        W18790   4.268   8.044   2.091  0.0319  0.0369  0.1929
 2657W        W18791   2.225   8.805   8.953  0.0011 -0.0077 -0.1463
 2658W        W18792   6.534  11.179   1.219  0.0309  0.3670 -0.0111
 2659W        W18793   8.087   4.143   4.246 -0.3359  0.0040 -0.5732
 2660W        W18794  18.074   2.102  13.498  0.1565 -0.1397 -0.4091
 2661W        W18795  11.712  13.480  13.081  0.2419 -0.3050  0.3552
 2662W        W18796   5.919   8.967  12.361  0.0573 -0.0031  0.1698
 2663W        W18797   6.650  16.647  15.377  0.0884  0.1164  0.2939
 2664W        W18798   4.091   3.134   3.608  0.1014  0.0828  0.1489
 2665W        W18799  11.144  13.621   1.024 -0.1803 -0.1932 -0.2872
 2666W        W18800  12.935  14.793   2.008 -0.1003 -0.2630 -0.0944
 2667W        W18801  17.307   3.897   2.176 -0.0229  0.2047 -0.2082
 2668W        W18802   2.446   6.492   0.966  0.1973 -0.0801  0.3598
 2669W        W18803   6.396   2.882   0.775  0.0225  0.1688  0.1057
 2670W        W18804   8.445   9.140   1.128 -0.2566 -0.1251  0.1717
 2671W        W18805   5.823  14.191   0.748  0.2270 -0.2145  0.2574
 2672W        W18806  14.338   3.475   2.463 -0.0695 -0.2687  0.1016
 2673W        W18807   0.956   9.390  10.027  0.1918  0.0959  0.1863
 2674W        W18808  13.860   8.833  13.207  0.1690 -0.0886  0.1939
 2675W        W18809  14.049   2.161  14.803 -0.0150 -0.0063  0.0456
 2676W        W18810   7.446   9.413   5.053 -0.4243 -0.2051  0.0426
 2677W        W18811   1.947  11.117  10.727 -0.0925  0.1713 -0.2084
 2678W        W18812   6.308  14.935   0.397  0.0682 -0.0832 -0.0001
 2679W        W18813  15.561   4.535   0.062  0.0279  0.3328  0.1820
 2680W        W18814   4.287   6.923  10.931 -0.0457 -0.2390 -0.0095
 2681W        W18815  18.353   8.857  13.180 -0.0079  0.3095  0.2779
 2682W        W18816   7.029   7.118   2.521 -0.0191  0.2413 -0.3820
 2683W        W18817   8.876  14.683   1.575 -0.0148 -0.1770  0.2185
 2684W        W18818  10.268   7.004  14.398 -0.0437 -0.0716  0.0368
 2685W        W18819   2.229   9.079   4.314  0.0545 -0.0433 -0.2824
 2686W        W18820   6.062   9.817  12.589  0.0481 -0.1140  0.0000
 2687W        W18821   3.012   5.872  14.083 -0.0566 -0.2236 -0.2070
 2688W        W18822  12.843   8.738  12.511  0.3019 -0.0559 -0.0136
 2689W        W18823  13.068  16.018   0.317  0.3509 -0.1626  0.0662
 2690W        W18824   4.156  10.051   3.669 -0.0350  0.1831  0.0365
 2691W        W18825   6.456   0.697   5.279  0.0591 -0.1690  0.2677
 2692W        W18826  10.744   6.029  12.445  0.2279  0.1642  0.1916
 2693W        W18827   1.061   0.273  14.892 -0.1156  0.1964 -0.0423
 2694W        W18828  13.659  14.212   0.447  0.4346  0.3830  0.2686
 2695W        W18829   8.529  12.227  15.285 -0.0896  0.0034  0.1650
 2696W        W18830  10.610   4.645  14.036  0.2360  0.2818 -0.1372
 2697W        W18831   3.749   5.268  14.786 -0.0742  0.0946  0.1285
 2698W        W18832   4.039  17.660  15.129  0.0570 -0.1445  0.2629
 2699W        W18833   1.414   9.520  11.540  0.0438 -0.0513  0.0839
 2700W        W18834  12.411   3.781   5.099  0.1753  0.1855  0.0787
 2701W        W18835  15.477   9.193   0.731  0.2648 -0.1161  0.0300
 2702W        W18836   8.540   7.371   5.649  0.2337  0.2297 -0.0972
 2703W        W18837   4.547  18.140  13.955 -0.0176 -0.2433  0.1304
 2704W        W18838  10.845  11.431  14.197  0.0805 -0.1091  0.3059
 2705W        W18839  13.995  15.713   5.432  0.1853 -0.1034 -0.2531
 2706W        W18840   3.259  17.189   3.765  0.2090 -0.0676 -0.1366
 2707W        W18841   1.819   3.359   2.080  0.0125  0.1343 -0.1220
 2708W        W18842  14.722   4.241  13.490 -0.1020 -0.1849 -0.0843
 2709W        W18843   5.184  11.267  11.422 -0.2651 -0.1864  0.0192
 2710W        W18844   6.195   0.176  15.356  0.0760  0.0203 -0.2989
 2711W        W18845   6.886   9.687   4.929 -0.3403  0.1478 -0.1066
 2712W        W18846  17.938  11.793  11.614  0.2417  0.1370  0.1801
 2713W        W18847   0.795  17.670  11.421 -0.1249 -0.1972 -0.1045
 2714W        W18848  12.912  18.295  14.190  0.0098 -0.1257 -0.0731
 2715W        W18849  13.437   9.734   4.229 -0.1120 -0.2391 -0.1105
 2716W        W18850  18.324  17.766  11.758 -0.1628 -0.0910  0.1683
 2717W        W18851   7.415   9.909   0.127  0.0999 -0.0350 -0.2636
 2718W        W18852  11.607  10.630  15.277 -0.1692 -0.1581 -0.2336
 2719W        W18853  16.660  18.110  11.502  0.1994 -0.2434  0.2247
 2720W        W18854  10.150  15.485  15.901 -0.2100 -0.1174  0.2689
 2721W        W18855  16.934   3.396   5.879 -0.3019  0.2655  0.0657
 2722W        W18856   6.241  17.694  13.595 -0.1113  0.1712 -0.0189
 2723W        W18857   4.923   9.338   4.689 -0.0988 -0.0061 -0.1968
 2724W        W18858   6.432  16.420  11.389 -0.0675  0.4147 -0.1961
 2725W        W18859   1.258   2.031   5.207 -0.2604 -0.0016 -0.0964
 2726W        W18860  10.454   6.549  15.528  0.1386  0.2812 -0.1702
 2727W        W18861  10.187  14.569   1.293 -0.0435 -0.1226 -0.1641
 2728W        W18862   9.418   8.775  11.337  0.1349 -0.1802  0.3562
 2729W        W18863   9.738   3.382  11.443 -0.0304  0.2377  0.1071
 2730W        W18864   3.670  10.199   3.808  0.1282  0.3053  0.0029
 2731W        W18865   4.434  11.757   5.334 -0.0063  0.0658  0.2778
 2732W        W18866   7.138   3.895  15.496  0.1620  0.3568 -0.0427
 2733W        W18867   2.196   9.623   1.500 -0.0246  0.0811  0.2553
 2734W        W18868  17.912   4.959  13.448  0.2683  0.1573 -0.0993
 2735W        W18869   1.157  15.915  15.433 -0.1276 -0.0848 -0.4069
 2736W        W18870   5.884  13.007  13.026 -0.0726 -0.0199  0.0871
 2737W        W18871   7.469  10.129   4.225 -0.0396  0.1692 -0.0444
 2738W        W18872   6.130   3.071   2.411  0.0376  0.3754 -0.0611
 2739W        W18873  18.272   8.394   0.762  0.2657  0.0492  0.2874
 2740W        W18874  10.562  16.295  11.093  0.1993 -0.0734 -0.1384
 2741W        W18875  10.820   5.896   3.622 -0.2877  0.1731  0.4860
 2742W        W18876   9.050  11.565   3.855 -0.0733 -0.1667  0.2460
 2743W        W18877   2.917   2.066   3.608 -0.1719 -0.0612 -0.3983
 2744W        W18878  13.183   7.081  12.478 -0.1881 -0.0075 -0.3845
 2745W        W18879  12.093  13.662  11.745 -0.0326 -0.0297  0.3731
 2746W        W18880   7.367   8.881  14.636 -0.0272 -0.0902  0.1823
 2747W        W18881   2.123  18.008  12.482 -0.2109 -0.1223 -0.3288
 2748W        W18882  15.301  14.191  15.456  0.3471  0.3176 -0.2775
 2749W        W18883   4.729  12.994  13.304  0.2500 -0.2655 -0.2119
 2750W        W18884  11.507  16.983   0.967 -0.0576 -0.2208  0.1203
 2751W        W18885   3.887  10.347   1.989 -0.1784  0.0011 -0.0315
 2752W        W18886  10.785   7.613  11.617  0.0760 -0.1113 -0.3572
 2753W        W18887   5.454  16.759   5.355 -0.0732 -0.3166  0.0998
 2754W        W18888   2.188  10.487  12.490  0.2533  0.0626  0.0056
 2755W        W18889   5.488  13.691  13.343 -0.3919  0.1932 -0.0361
 2756W        W18890  14.470  12.439  14.875  0.3689 -0.1250  0.0801
 2757W        W18891   6.270   0.664  11.046  0.1068 -0.1818  0.3103
 2758W        W18892   9.337   5.053  12.859  0.1660 -0.1226 -0.1404
 2759W        W18893   8.016  14.367   4.308 -0.0525  0.0114 -0.0899
 2760W        W18894   3.929   6.235   3.057  0.1861 -0.3058  0.2357
 2761W        W18895  13.352  14.484  13.627  0.0370 -0.0224 -0.2034
 2762W        W18896   3.298   5.366  13.355 -0.3708 -0.1606  0.3429
 2763W        W18897   6.007   1.739   2.430  0.1873  0.1679 -0.0397
 2764W        W18898   5.360  12.063   2.166  0.1775  0.0673  0.1421
 2765W        W18899   4.039   2.831  10.498  0.0764 -0.0348 -0.0934
 2766W        W18900  16.720  17.171  15.618  0.1461 -0.0658  0.1207
 2767W        W18901   2.480  16.007  15.287 -0.0763  0.0924  0.0033
 2768W        W18902  17.027   2.750   0.601 -0.0922 -0.3651  0.2438
 2769W        W18903  14.243  12.892  14.596  0.0014  0.0881 -0.3570
 2770W        W18904   0.653   7.714   4.329  0.1405 -0.0038 -0.0327
 2771W        W18905  10.836   4.372   2.528  0.0206  0.2016 -0.1278
 2772W        W18906  12.322   8.473   0.504  0.3897  0.1794 -0.1561
 2773W        W18907   4.696  11.117  11.686  0.0050 -0.0064  0.0427
 2774W        W18908  10.769   5.086  15.436 -0.4450 -0.2625  0.0224
 2775W        W18909   1.880  15.789  14.773 -0.0126 -0.0817 -0.2915
 2776W        W18910  18.002   1.765  13.110 -0.3057 -0.5142  0.0165
 2777W        W18911  12.185   3.273  13.590  0.0313  0.2076  0.3153
 2778W        W18912  10.513   8.431   1.310  0.2232  0.2180  0.2943
 2779W        W18913   2.756   3.616   3.234 -0.0251  0.0776  0.0758
 2780W        W18914  11.687   1.084  13.879  0.0446 -0.1399  0.2132
 2781W        W18915   3.484   1.617   1.005  0.2778 -0.1983 -0.0362
 2782W        W18916   0.397  11.030  14.527 -0.0069 -0.0327 -0.3455
 2783W        W18917   8.154   8.737   5.341 -0.1734  0.0412 -0.0564
 2784W        W18918   3.245   1.705   3.877  0.0413 -0.2491  0.1055
 2785W        W18919   2.474   8.720  14.908  0.1023 -0.1936 -0.1699
 2786W        W18920  13.093   0.936   3.998 -0.1331  0.1265  0.2209
 2787W        W18921   5.321   3.378  14.988  0.0957  0.1907 -0.1679
 2788W        W18922   1.513   1.906  13.850  0.1957  0.3752 -0.0079
 2789W        W18923   2.500   1.436   4.578  0.2781 -0.0923 -0.1317
 2790W        W18924  16.432   8.259  10.953  0.1350  0.0282 -0.2634
 2791W        W18925   8.553  10.699   2.814 -0.3730 -0.0815 -0.2136
 2792W        W18926  14.326   7.775  11.590  0.1079  0.0547  0.3835
 2793W        W18927   3.241   3.595  15.103 -0.1270  0.1035 -0.1613
 2794W        W18928   6.058  10.308   4.595  0.0846 -0.1764 -0.0488
 2795W        W18929  12.282   3.644  13.197  0.0414 -0.1022  0.0133
 2796W        W18930   8.007   0.581  12.437 -0.0563  0.0992  0.2753
 2797W        W18931  17.302  10.872  14.198 -0.0201  0.0145 -0.2918
 2798W        W18932   4.920   4.794   2.146  0.0888 -0.2554 -0.2123
 2799W        W18933   7.800  12.157   2.634 -0.1700 -0.1154 -0.0721
 2800W        W18934  14.258   6.899  11.124  0.0280  0.1007 -0.0709
 2801W        W18935   2.594  14.216   1.955  0.0583  0.0594 -0.0656
 2802W        W18936   0.591   5.032  12.440 -0.2634  0.4375  0.1939
 2803W        W18937   4.285  10.466   5.877 -0.1776 -0.0588 -0.1690
 2804W        W18938   4.955   1.055   3.472 -0.1729 -0.2171  0.0159
 2805W        W18939   8.396   1.047   4.542  0.0195  0.0181  0.0695
 2806W        W18940   7.094  14.394   1.486 -0.1189 -0.1387  0.1581
 2807W        W18941  15.279   7.314   0.840  0.0809 -0.1017  0.2402
 2808W        W18942   0.911  10.207  15.486 -0.1644  0.0559 -0.0494
 2809W        W18943   4.394  10.635   1.400  0.0578  0.2064  0.2047
 2810W        W18944  10.443   8.000  15.340  0.1731  0.1790  0.3054
 2811W        W18945   7.882   9.987  12.762 -0.0140  0.0169 -0.2225
 2812W        W18946   6.585  17.929  14.803 -0.2089 -0.0214  0.0198
 2813W        W18947   2.872  10.967   2.672 -0.4572  0.0510  0.1011
 2814W        W18948   2.933  14.534  13.924  0.2246 -0.0401  0.0794
 2815W        W18949  12.460   0.607  15.380 -0.0607 -0.0844 -0.2145
 2816W        W18950   5.063   3.376   2.740  0.3288  0.0095  0.1673
 2817W        W18951  18.454   5.454   4.598  0.2169 -0.1464  0.0770
 2818W        W18952  12.613  10.008   4.040 -0.3330  0.2640  0.2348
 2819W        W18953   7.118   4.570  12.491 -0.1663  0.0939 -0.1090
 2820W        W18954   0.953  10.221  10.324  0.2872  0.2538 -0.1586
 2821W        W18955   3.145  15.337  14.243 -0.1087 -0.0840 -0.1294
 2822W        W18956  16.399   8.092   3.854 -0.1687 -0.0834  0.1107
 2823W        W18957   6.666   8.273  14.163 -0.1911 -0.1279  0.0400
 2824W        W18958  15.851  17.240  14.974 -0.2391  0.1166  0.1153
 2825W        W18959   1.603  14.884  11.178 -0.0694  0.0285  0.2139
 2826W        W18960  15.175   6.557  11.305  0.0176  0.1326  0.3419
 2827W        W18961  14.704   7.182   4.465 -0.0692  0.1926 -0.0262
 2828W        W18962  13.078   1.049   0.903  0.0270  0.1029  0.2145
 2829W        W18963   0.882   2.910  13.556 -0.1075 -0.1557  0.2193
 2830W        W18964  12.294   1.256  11.571  0.1117 -0.1758 -0.0077
 2831W        W18965  10.947   9.792  12.149 -0.0850 -0.1928 -0.1543
 2832W        W18966   0.130  17.101  12.013  0.3231  0.1687  0.0333
 2833W        W18967   1.280  17.676  10.938 -0.0244 -0.0033 -0.2992
 2834W        W18968  10.052   4.272  11.341  0.1220  0.0811  0.2314
 2835W        W18969   7.154  16.153   1.552  0.0075 -0.0728 -0.1429
 2836W        W18970  11.163   6.052   4.451 -0.0634  0.1568 -0.1781
 2837W        W18971  10.421   7.646  12.598 -0.0604  0.2504  0.1936
 2838W        W18972   4.723   8.666  12.375 -0.0169  0.0111  0.2082
 2839W        W18973   8.825  13.881  12.475  0.0707  0.0718 -0.1024
 2840W        W18974   8.171   1.993  12.981  0.4478  0.2740 -0.1544
 2841W        W18975  10.886  11.176   1.083  0.0475  0.1612  0.0697
 2842W        W18976   8.885   0.197   4.974  0.5319  0.0347  0.1194
 2843W        W18977   7.600   5.687   2.806  0.3575  0.2029  0.1152
 2844W        W18978  16.687  11.126   1.367 -0.2279 -0.0802 -0.0220
 2845W        W18979   4.201   0.676  13.623  0.1260  0.1235 -0.0303
 2846W        W18980  14.200  11.318   2.747  0.0326 -0.2656 -0.2098
 2847W        W18981   6.326   1.782   1.740  0.2877 -0.1824  0.0068
 2848W        W18982  10.467   3.864  11.133  0.1446 -0.0594 -0.1767
 2849W        W18983  14.012  13.091   4.278  0.2444 -0.3942  0.0347
 2850W        W18984   7.363   7.267  11.513  0.0470  0.1303 -0.0591
 2851W        W18985  13.164  17.454   2.441 -0.2040  0.1546 -0.3219
 2852W        W18986  17.742  14.811  13.711 -0.1086  0.3191 -0.1318
 2853W        W18987   0.481  13.085   1.173 -0.2566 -0.3231  0.5081
 2854W        W18988  14.785  12.475   0.978 -0.0264 -0.1445 -0.0625
 2855W        W18989  14.709  18.450   4.584  0.0836 -0.2512  0.0546
 2856W        W18990   6.940  15.887  15.246 -0.3032  0.0812 -0.0578
 2857W        W18991   2.445  15.855   3.343  0.2399  0.2034  0.2767
 2858W        W18992  14.662   4.816  10.650 -0.0897  0.1243  0.2105
 2859W        W18993   0.255  11.739   4.216 -0.0487  0.2117 -0.2855
 2860W        W18994  10.820  12.346   5.227  0.0210 -0.0002 -0.3340
 2861W        W18995   9.553  16.247   3.620 -0.0104 -0.1636  0.0600
 2862W        W18996  17.899   3.446   0.618 -0.0666 -0.1105  0.0393
 2863W        W18997   5.632   4.298  14.287 -0.1586 -0.0065  0.0672
 2864W        W18998  11.756  16.644   0.067 -0.2110  0.1202  0.0259
 2865W        W18999  12.201   5.533  12.500  0.3082  0.3526 -0.2244
 2866W        W19000  10.236  10.282   3.840  0.1515  0.1192 -0.4408
 2867W        W19001   3.880   0.582  15.696 -0.0271 -0.0234 -0.3096
 2868W        W19002   8.915   1.620  14.825 -0.2772  0.2049  0.0147
 2869W        W19003   1.848  11.635   2.158  0.0486  0.0578  0.1714
 2870W        W19004  18.358   7.189   5.342  0.1044  0.0001 -0.3849
 2871W        W19005   7.096   3.865  11.191  0.3215  0.0796  0.0695
 2872W        W19006   5.034  17.400   3.478  0.2430 -0.1746  0.1275
 2873W        W19007   3.891   8.684   2.800  0.0996  0.0882 -0.0509
 2874W        W19008   3.303   4.948  11.207  0.1737 -0.1641  0.1534
 2875W        W19009   4.646  12.447  15.011 -0.0432  0.0918  0.1202
 2876W        W19010  12.747   2.331   4.117 -0.1799  0.1121  0.1405
 2877W        W19011  15.748  13.384   5.829 -0.0823  0.1444 -0.0070
 2878W        W19012   7.477  15.787  12.889  0.0783 -0.1442 -0.0603
 2879W        W19013  16.227   4.220  13.758  0.2948  0.0109  0.0070
 2880W        W19014   1.376  17.101   1.109 -0.1251 -0.0233  0.0628
 2881W        W19015   3.039   7.978   4.171  0.0249  0.1220 -0.0191
 2882W        W19016  10.771  10.242   2.507 -0.0966  0.3605  0.0929
 2883W        W19017  14.439   0.869  12.415  0.0197 -0.1817 -0.4108
 2884W        W19018   7.917   5.346   0.070 -0.0227 -0.1121 -0.0848
 2885W        W19019   7.569   4.784   3.712 -0.0866 -0.0149 -0.1924
 2886W        W19020   7.412   9.122  14.225 -0.3071 -0.4020  0.0167
 2887W        W19021   1.547  15.080  14.114 -0.3029 -0.1052  0.0413
 2888W        W19022   8.300  12.957  14.019  0.2875  0.1738  0.0828
 2889W        W19023  11.697   6.202   1.628 -0.0728  0.2228  0.0356
 2890W        W19024   7.541  16.431   3.044 -0.0540 -0.0677 -0.1162
 2891W        W19025  10.831   6.484   4.591 -0.4019  0.0750  0.2859
 2892W        W19026   2.131   8.758  14.559 -0.1801 -0.0734 -0.0809
 2893W        W19027   9.041  10.526   4.553  0.4452 -0.0887  0.5196
 2894W        W19028  15.402   7.895   0.863 -0.1580  0.0342 -0.3123
 2895W        W19029  10.958  11.577  13.565 -0.0344 -0.1182  0.2002
 2896W        W19030   2.197  12.298   1.486 -0.0557 -0.0055  0.0679
 2897W        W19031   6.945  15.349   4.406 -0.0046 -0.0916  0.0671
 2898W        W19032  13.262   1.591   1.239  0.2056 -0.3116 -0.1928
 2899W        W19033   2.796   2.841   2.224  0.0682  0.2839  0.0896
 2900W        W19034  16.531  13.123   5.316 -0.1549  0.0311  0.1198
 2901W        W19035  11.150  11.714  15.438 -0.1554 -0.1522  0.0476
 2902W        W19036   3.528  15.991   2.064 -0.2683 -0.1363 -0.1152
 2903W        W19037  18.161  15.552   0.239  0.0496 -0.0192  0.0396
 2904W        W19038   3.632  13.884   1.086  0.0940 -0.1223 -0.2352
 2905W        W19039   2.314   9.849  10.975  0.2830 -0.0422 -0.1967
 2906W        W19040   0.639   3.280  10.549  0.0975  0.2635  0.2115
 2907W        W19041  12.337  17.686  13.555 -0.1484 -0.0841 -0.0642
 2908W        W19042   1.094  16.285   3.279 -0.1024  0.3624 -0.1449
 2909W        W19043   0.050   3.909  13.421  0.1014  0.1223 -0.1746
 2910W        W19044   8.486  11.924   5.936 -0.2428 -0.1153  0.1813
 2911W        W19045   0.744  13.490  14.338  0.0253  0.1440 -0.1807
 2912W        W19046   8.690  15.188   1.683 -0.1006  0.4050 -0.1960
 2913W        W19047   5.528  14.890   2.556  0.1542  0.0496 -0.0481
 2914W        W19048   5.882   4.585   2.452 -0.2897  0.1474  0.2176
 2915W        W19049  18.450   2.543  12.320 -0.0779 -0.0668 -0.0226
 2916W        W19050   6.877  13.631  12.162  0.3042 -0.2634 -0.4699
 2917W        W19051  15.236  11.344   3.609 -0.0760  0.0013 -0.3772
 2918W        W19052  11.229   4.742  14.641  0.1248  0.0406 -0.0857
 2919W        W19053   4.831  15.214  10.660 -0.0072  0.1194  0.1857
 2920W        W19054   2.423  14.745   1.721 -0.0504  0.3183 -0.0096
 2921W        W19055   6.554   8.938   5.146  0.2303  0.1729  0.2596
 2922W        W19056   3.553   1.297  14.551  0.3031  0.3123  0.2006
 2923W        W19057   8.676  12.777   1.294  0.1384 -0.3609 -0.1408
 2924W        W19058   4.826   7.141  14.320 -0.3524 -0.2265  0.0566
 2925W        W19059  15.302  16.961   4.944  0.1552  0.0685 -0.0472
 2926W        W19060   3.398  13.773   3.712  0.0052  0.0721 -0.1307
 2927W        W19061   4.702  14.300  11.471  0.1480 -0.4464 -0.1340
 2928W        W19062  16.934   8.755   3.334 -0.1270 -0.3574 -0.0447
 2929W        W19063  12.880   2.707   4.409  0.2365  0.2237 -0.0181
 2930W        W19064  15.219   0.070   3.736  0.3266 -0.0193 -0.3442
 2931W        W19065  10.386  14.713  14.741  0.2274  0.0830  0.1168
 2932W        W19066  17.675  12.568  15.283  0.3432  0.2468  0.1331
 2933W        W19067   6.067   4.753  10.844  0.0498 -0.1160 -0.0278
 2934W        W19068  11.962  12.487   0.653  0.0430  0.3837 -0.1199
 2935W        W19069   2.419  13.443  13.409  0.2556  0.0073 -0.0007
 2936W        W19070   4.331  17.066  14.140 -0.3708 -0.1828 -0.1715
 2937W        W19071   5.901  10.539  15.190  0.0859 -0.0774 -0.0938
 2938W        W19072  16.606   4.602  11.857  0.3414  0.0945  0.0189
 2939W        W19073  10.031   6.318   0.495 -0.0944 -0.0794 -0.0065
 2940W        W19074  17.753   2.677  15.232  0.1526  0.0789 -0.0121
 2941W        W19075   1.200   9.510   9.599 -0.1270 -0.0365 -0.2641
 2942W        W19076   5.605  10.165  15.090 -0.0090  0.0685  0.1232
 2943W        W19077   4.708  12.682   2.612 -0.4233 -0.1090  0.1491
 2944W        W19078  15.824   4.166  14.699 -0.0631  0.0188  0.1504
 2945W        W19079  15.730  17.190  11.803  0.3860  0.3365  0.0251
 2946W        W19080  11.461  15.265  12.698  0.1132 -0.1104 -0.1939
 2947W        W19081   6.753  13.434  13.827 -0.2058  0.2518 -0.1165
 2948W        W19082   6.268   7.128   0.669 -0.2513 -0.0774 -0.0905
 2949W        W19083   5.219  11.393  15.748  0.0154 -0.0348 -0.0812
 2950W        W19084  13.087   1.333   4.425 -0.1273 -0.4940 -0.0585
 2951W        W19085  15.886  15.808   2.815  0.5769  0.1722 -0.0663
 2952W        W19086  16.436  14.984   2.821  0.1329  0.2760 -0.0789
 2953W        W19087   3.039   9.884   2.628  0.0394 -0.0363  0.2116
 2954W        W19088  15.072  17.993   1.827 -0.2087  0.1787 -0.1024
 2955W        W19089  10.913   8.136   0.198 -0.0178 -0.1375  0.0141
 2956W        W19090   4.675   7.614  12.827  0.1745  0.2384  0.4319
 2957W        W19091  17.212  13.320   0.856 -0.2977 -0.0400 -0.0760
 2958W        W19092  16.839   3.576  13.050  0.2542  0.0211  0.1649
 2959W        W19093   3.643  15.491   3.821 -0.1026  0.2028  0.0365
 2960W        W19094  17.321  15.952  13.976  0.0793  0.0570  0.1647
 2961W        W19095  15.646   1.864  10.828 -0.0722  0.1136 -0.0295
 2962W        W19096  10.921  17.422   4.833 -0.0754  0.2166 -0.1969
 2963W        W19097   7.120  11.885   1.119  0.1351 -0.1740  0.1369
 2964W        W19098   4.138   1.360   3.984 -0.1793  0.1158 -0.0425
 2965W        W19099   8.944   7.596   2.874  0.0363  0.2328 -0.1380
 2966W        W19100  13.925   4.950   2.749  0.0164  0.1050  0.1346
 2967W        W19101  15.878  16.471   3.810 -0.0487  0.0583  0.1679
 2968W        W19102   9.498   3.211   3.927 -0.0117 -0.2998 -0.0369
 2969W        W19103   7.483  13.543  15.020  0.0351  0.1812  0.2358
 2970W        W19104  15.692  11.519   4.392 -0.3478 -0.0527 -0.2696
 2971W        W19105   7.447   5.007   1.990 -0.1724  0.0088  0.1829
 2972W        W19106   0.919  15.523   9.817  0.2109 -0.2500  0.0839
 2973W        W19107  10.088  14.622   5.991  0.4803 -0.0527 -0.0435
 2974W        W19108  14.908  11.615  11.307  0.1684 -0.1887  0.1772
 2975W        W19109   9.226  17.762   4.114 -0.2450  0.1917  0.2786
 2976W        W19110  17.882   6.251   4.140  0.2479 -0.1875  0.0195
 2977W        W19111   7.636  10.329   3.729 -0.0332  0.1526 -0.0717
 2978W        W19112  16.499  17.719   5.079  0.0435 -0.3368 -0.2832
 2979W        W19113   4.433   1.030  11.323  0.0866  0.0104 -0.1036
 2980W        W19114  14.583  15.513   3.219 -0.0618 -0.0228  0.2575
 2981W        W19115  15.341   8.629   4.911 -0.0960  0.2338 -0.3799
 2982W        W19116   0.525   8.256  14.540  0.1405  0.1684 -0.0318
 2983W        W19117  14.564   9.792  15.840 -0.1561 -0.2968  0.0862
 2984W        W19118   9.962   5.994   4.165  0.0258  0.3813  0.0966
 2985W        W19119   8.565   6.874  10.901  0.1106  0.3158  0.0493
 2986W        W19120   9.768   3.507   0.707 -0.0625  0.2279  0.2863
 2987W        W19121   9.275   0.200  13.322  0.0264  0.3797  0.1449
 2988W        W19122  15.038  12.817  13.015 -0.0288 -0.1168 -0.1568
 2989W        W19123   2.698   9.647   1.435  0.0732  0.1197 -0.0166
 2990W        W19124   5.524   8.563   1.288 -0.1250  0.0240 -0.0387
 2991W        W19125   2.641  16.746  12.809 -0.1381 -0.2400 -0.2468
 2992W        W19126  11.369   3.736  10.209  0.0152 -0.1455 -0.2612
 2993W        W19127   0.094  14.268  15.785  0.0956  0.0978  0.0657
 2994W        W19128   6.294  16.881  11.275 -0.0381  0.0175  0.0655
 2995W        W19129   1.172  15.401   0.430  0.3227  0.0203 -0.0400
 2996W        W19130   6.397   2.565   3.652  0.1496 -0.1647  0.2766
 2997W        W19131   1.461  10.925   2.695 -0.1457 -0.2168  0.0760
 2998W        W19132   6.292  14.244  15.418 -0.0437 -0.2109 -0.2566
 2999W        W19133   5.212  17.987   4.228  0.0404 -0.2898 -0.0038
 3000W        W19134  10.908  15.506   2.787 -0.3248  0.1116 -0.0761
 3001W        W19135   1.768   3.854   4.043 -0.2662  0.0710 -0.1647
 3002W        W19136  12.676   0.949   4.305  0.0440 -0.0304  0.1372
 3003W        W19137  13.411  14.049  11.431  0.3076  0.0427 -0.3599
 3004W        W19138  14.798  16.842   4.858  0.1067 -0.0182  0.0886
 3005W        W19139  14.983   1.975  11.914 -0.4463 -0.0620  0.0200
 3006W        W19140  16.146   0.237   3.563 -0.0611  0.1844 -0.0127
 3007W        W19141   1.774  16.641   3.067 -0.0493  0.0952  0.0336
 3008W        W19142   8.343  13.593  14.539 -0.0130 -0.0290  0.3182
 3009W        W19143   7.797   7.826   2.057 -0.0577 -0.0315  0.0112
 3010W        W19144  18.294  13.293  11.468  0.0344  0.0140 -0.1232
 3011W        W19145  12.000   3.108   0.141 -0.0920 -0.5823 -0.2035
 3012W        W19146  10.859   9.428   2.267  0.1485 -0.1161  0.0379
 3013W        W19147  18.107   3.664  13.680 -0.0065 -0.2384 -0.0181
 3014W        W19148   7.754   9.680   5.357 -0.0115 -0.0038  0.1984
 3015W        W19149  13.474   8.485  13.450 -0.2101 -0.0245 -0.0667
 3016W        W19150   0.098  18.408   3.076 -0.1121 -0.0711 -0.0766
 3017W        W19151  16.585  12.020  15.383  0.1787  0.0620  0.0690
 3018W        W19152   5.338  10.654   4.017  0.0508  0.2341 -0.3121
 3019W        W19153   0.500   0.511  13.897  0.1891 -0.0351  0.0736
 3020W        W19154   6.132   6.294   1.258 -0.1972 -0.0248  0.0912
 3021W        W19155  18.010  16.551   1.882 -0.0997  0.0570 -0.2480
 3022W        W19156  12.364   2.732  13.206  0.0388 -0.0677  0.3043
 3023W        W19157  17.469   4.686   2.774 -0.0338  0.0702  0.1232
 3024W        W19158  18.041   4.950  14.364  0.1859 -0.1595  0.0295
 3025W        W19159   6.912   4.419  11.186  0.0640 -0.3706 -0.2142
 3026W        W19160  14.455  18.256  14.428  0.0765  0.1730  0.0272
 3027W        W19161   6.630  12.923  11.622  0.0602 -0.0186  0.0287
 3028W        W19162   3.131  11.016   4.551 -0.3441  0.0245  0.3420
 3029W        W19163   1.914  11.068   2.528  0.0129 -0.0930 -0.2433
 3030W        W19164  12.284  10.752   4.773  0.1537  0.1039 -0.0564
 3031W        W19165   2.695  15.439   0.521  0.1832 -0.1396 -0.1061
 3032W        W19166  17.568   5.426  13.658  0.2974 -0.1303 -0.0415
 3033W        W19167  13.902   1.531   2.607 -0.2376 -0.2206 -0.2846
 3034W        W19168   1.051   7.030   4.605  0.0074 -0.0645  0.1925
 3035W        W19169  17.738   6.295   5.548  0.1087 -0.1231 -0.0984
 3036W        W19170   6.272  18.453   5.686  0.4770  0.2379 -0.1959
 3037W        W19171   9.158   8.667   5.262  0.1003 -0.0235 -0.1567
 3038W        W19172  18.264   0.328   1.212  0.0194 -0.1511  0.2311
 3039W        W19173   9.882   6.538   4.221 -0.3164 -0.2919  0.1841
 3040W        W19174   9.213   5.086  14.389  0.2198 -0.0503  0.0457
 3041W        W19175  18.218   8.088   2.829 -0.2651 -0.1657  0.1864
 3042W        W19176   2.781   7.102  15.466  0.0530 -0.0874  0.0578
 3043W        W19177   2.597  11.080  10.589 -0.0930  0.1096 -0.0380
 3044W        W19178  12.559  16.306  13.510 -0.1269 -0.1320 -0.0583
 3045W        W19179  16.321   9.576   4.237 -0.0340 -0.1307 -0.0748
 3046W        W19180   1.894  10.875  12.811 -0.2604  0.1784 -0.0437
 3047W        W19181   7.523  13.396   3.281  0.0656  0.0779 -0.2671
 3048W        W19182  10.821  14.409  10.455  0.1703 -0.3835 -0.2972
 3049W        W19183  10.851   1.506  11.722  0.0865  0.0929  0.1029
 3050W        W19184  17.566   5.707  13.003 -0.2105 -0.1913  0.0390
 3051W        W19185  13.358  12.308  11.608  0.0529 -0.2284 -0.0299
 3052W        W19186  13.584  14.028  15.442  0.2241 -0.0414  0.2129
 3053W        W19187  12.908   4.376  12.329 -0.0641  0.0752 -0.1796
 3054W        W19188   0.837  11.251  14.290 -0.2874 -0.1508 -0.0151
 3055W        W19189  13.169   1.350  11.742 -0.2294 -0.1072 -0.0119
 3056W        W19190   5.405  10.876  14.413  0.0775  0.0840  0.1290
 3057W        W19191  17.021   4.869  14.220 -0.3116  0.4479  0.0305
 3058W        W19192   2.312  17.452   5.790  0.1201  0.2052  0.0953
 3059W        W19193   4.989  17.468  13.481  0.0550  0.0263  0.1049
 3060W        W19194   9.143   0.352   4.516  0.3105  0.1116  0.3778
 3061W        W19195  11.994  12.799   3.645 -0.1928  0.0862  0.2417
 3062W        W19196  10.725  10.679   4.423 -0.1338  0.0504 -0.4706
 3063W        W19197   4.026  10.954   5.224 -0.0513  0.2242  0.2920
 3064W        W19198  17.318   9.372   0.403  0.2489 -0.2391 -0.0822
 3065W        W19199   3.312  11.211   3.331  0.0392 -0.2464  0.3227
 3066W        W19200   8.943   9.172  15.656  0.1277 -0.1329 -0.3707
 3067W        W19201  11.512   0.367  10.971  0.2541 -0.1364 -0.0598
 3068W        W19202   2.065   2.327  15.538  0.4683 -0.0151  0.0801
 3069W        W19203   5.090  15.393   1.800 -0.0718  0.1195  0.2604
 3070W        W19204   5.114  17.728  12.501 -0.0093  0.0522 -0.2067
 3071W        W19205  17.345   9.434   0.966  0.0835 -0.1492 -0.3120
 3072W        W19206   1.290  13.783   0.134 -0.1690 -0.2064  0.0438
 3073W        W19207  16.880  10.903  14.614 -0.0154 -0.1873  0.1432
 3074W        W19208  10.918   4.614   0.454  0.1190 -0.0408  0.2178
 3075W        W19209  17.550  11.604  12.411  0.0350 -0.1015 -0.0738
 3076W        W19210  17.976  16.621  14.702 -0.1218 -0.1876  0.0144
 3077W        W19211  17.579   4.104  14.339 -0.0271 -0.0544  0.1292
 3078W        W19212  10.195   7.719  13.953  0.1913 -0.0271  0.1503
 3079W        W19213  13.973  15.980  15.001 -0.0288 -0.0207 -0.2744
 3080W        W19214   9.158  14.755  15.517 -0.2898 -0.2855 -0.2715
 3081W        W19215  12.235   3.967   1.299  0.0116  0.2233 -0.2011
 3082W        W19216   8.136   4.033   3.573 -0.0265 -0.4756  0.1192
 3083W        W19217   6.959  11.295  12.408 -0.1297  0.2960  0.1272
 3084W        W19218   3.445   5.136   3.760 -0.0060  0.0166  0.0676
 3085W        W19219  12.209  17.264  13.796  0.0595 -0.0558  0.0369
 3086W        W19220   3.157   8.219  11.351 -0.1656 -0.2397 -0.0553
 3087W        W19221   2.517  15.739  13.033  0.0158 -0.4500 -0.0329
 3088W        W19222   0.075   2.703  11.623  0.0851  0.0097  0.0588
 3089W        W19223   2.616   3.192  11.175 -0.0007 -0.4280 -0.1712
 3090W        W19224   0.676  10.236   2.716  0.1424 -0.0840 -0.2170
 3091W        W19225   8.554  17.823   0.367 -0.1590 -0.0935  0.0356
 3092W        W19226  15.146   9.987  14.636  0.2109  0.0961 -0.0440
 3093W        W19227   7.737   8.091  14.866  0.0944  0.0660  0.0781
 3094W        W19228  12.845  10.469   5.327 -0.0960 -0.0783 -0.0071
 3095W        W19229  11.452  15.899  15.367  0.1513  0.1406 -0.0074
 3096W        W19230   7.889  16.126   0.817  0.1007 -0.1810  0.0505
 3097W        W19231   9.739  17.326   2.477 -0.1311  0.0458 -0.0015
 3098W        W19232   1.445   3.775  14.805 -0.0635  0.2250 -0.0100
 3099W        W19233  13.909  10.964   2.326  0.2941 -0.4341  0.2199
 3100W        W19234   3.293   0.860   4.492 -0.0592  0.2361  0.2597
 3101W        W19235  14.028   3.602   0.842 -0.1725 -0.0492  0.4386
 3102W        W19236   1.028  14.144   3.369  0.0623 -0.2909 -0.0296
 3103W        W19237  14.627  11.829  10.938 -0.3912  0.2627 -0.1377
 3104W        W19238  11.421  17.503  10.949 -0.0970  0.0722 -0.0396
 3105W        W19239  12.874   5.023  13.401 -0.0674 -0.2688 -0.2575
 3106W        W19240   8.979  17.009   1.067  0.2600 -0.1174  0.1261
 3107W        W19241  13.160  11.173   0.271 -0.0536  0.1267  0.0046
 3108W        W19242   4.989   0.766   2.483 -0.0415 -0.5452  0.2092
 3109W        W19243   8.590   1.016  13.159 -0.3149  0.1716 -0.1165
 3110W        W19244  11.191   3.339  12.493  0.2926  0.2370 -0.1713
 3111W        W19245   6.554   0.977   2.596  0.3706 -0.1524 -0.0458
 3112W        W19246  18.446   1.887   3.456 -0.4163  0.0399 -0.2075
 3113W        W19247  11.157   6.321   2.300  0.2815  0.0361 -0.4842
 3114W        W19248   6.937  15.486   2.779  0.1540 -0.3132 -0.2744
 3115W        W19249  16.755  10.313  12.536  0.2612 -0.1303  0.0153
 3116W        W19250   7.204   4.293   4.606  0.0839 -0.5148  0.4150
 3117W        W19251   1.003  10.651   3.359 -0.0121 -0.1827 -0.0551
 3118W        W19252  13.437  12.131  10.553 -0.3444 -0.2598  0.0297
 3119W        W19253   4.429   9.167  12.107  0.1945 -0.0923 -0.1747
 3120W        W19254   1.850  12.782   3.662 -0.1253  0.1617  0.3148
 3121W        W19255   5.799   5.802  12.521  0.1368 -0.0492  0.3217
 3122W        W19256   6.146  13.122  15.170 -0.1280 -0.1082 -0.0170
 3123W        W19257   0.295   2.849  14.452 -0.1059 -0.0115 -0.1661
 3124W        W19258  11.323  18.027  10.694  0.0572  0.0122 -0.0970
 3125W        W19259  18.207   8.190   5.385  0.1652 -0.1098 -0.2497
 3126W        W19260  14.097  16.817  10.884  0.1602  0.1658 -0.0121
 3127W        W19261   8.488  17.010   4.920  0.2524 -0.1466  0.0954
 3128W        W19262   2.629  17.884  14.422 -0.2083 -0.0504 -0.1496
 3129W        W19263   1.866  15.882  13.276  0.3832 -0.1677 -0.2718
 3130W        W19264  13.888  17.134   2.821  0.0182  0.2928  0.0130
 3131W        W19265   7.047   8.621   6.010 -0.1345  0.1005 -0.1355
 3132W        W19266   3.751   2.797   5.238 -0.2671 -0.2727 -0.1264
 3133W        W19267  11.840  14.918  12.536  0.0392 -0.1212 -0.3612
 3134W        W19268  14.749  11.664  10.365 -0.1906  0.0760  0.0501
 3135W        W19269  16.654   3.242   1.082 -0.1599  0.1336 -0.1771
 3136W        W19270   1.352   1.272  12.106  0.0929 -0.0233 -0.2884
 3137W        W19271  15.663  13.732  15.732  0.0420  0.0639 -0.0901
 3138W        W19272  10.615   4.645   1.669 -0.1417 -0.0591 -0.0879
 3139W        W19273   0.679   7.142  13.649  0.1201  0.1898 -0.0468
 3140W        W19274   6.932   1.687  13.911  0.1116 -0.2064  0.0574
 3141W        W19275  17.799   9.558  15.556 -0.1552  0.1617 -0.0340
 3142W        W19276   1.318  15.787  10.956 -0.0094  0.0970  0.0237
 3143W        W19277  14.175  17.690   3.622 -0.1038 -0.0385  0.2720
 3144W        W19278  12.739   7.298   5.036  0.0034 -0.1756 -0.2999
 3145W        W19279   5.923   0.660   0.318 -0.0758 -0.1253 -0.0061
 3146W        W19280  16.719   5.493  11.476  0.2173  0.2445 -0.1389
 3147W        W19281   8.557  15.235  11.517  0.2785 -0.0620 -0.0250
 3148W        W19282  14.327  16.353   2.918 -0.1269 -0.4233  0.0603
 3149W        W19283   8.498   0.639  15.896  0.2333 -0.1068  0.0151
 3150W        W19284   6.575  16.916  13.238  0.1204 -0.1661 -0.2960
 3151W        W19285  16.239   5.087   5.781  0.0273  0.1202 -0.1878
 3152W        W19286  14.094   6.285   4.277  0.1099 -0.0361 -0.1418
 3153W        W19287   5.883   1.769  12.518  0.2913  0.1368 -0.2151
 3154W        W19288  17.892  15.367   3.411  0.0732 -0.2306 -0.1354
 3155W        W19289   6.359   8.195  13.321  0.0414  0.2835  0.0317
 3156W        W19290   0.871  11.467   2.337  0.3929  0.1003  0.0206
 3157W        W19291  15.926   6.757   3.445 -0.1410  0.0199  0.0628
 3158W        W19292   3.858   3.402   2.844 -0.2523  0.1314  0.1204
 3159W        W19293   3.440   7.924  15.449  0.0633 -0.3005 -0.2424
 3160W        W19294   4.331   8.517  15.665 -0.1192 -0.0868 -0.2915
 3161W        W19295  11.972  16.162   1.322  0.0722  0.1183 -0.0322
 3162W        W19296   3.457   4.124   3.723 -0.2085  0.0986  0.0941
 3163W        W19297  15.779   9.602   3.097  0.2032  0.2908 -0.1792
 3164W        W19298  13.467   7.984   2.775  0.2365 -0.2557 -0.2188
 3165W        W19299  13.637   2.936  15.154  0.1544  0.0590 -0.1568
 3166W        W19300   7.330  14.401  15.154 -0.3281  0.0333 -0.2892
 3167W        W19301   9.501  15.427   4.155  0.1046  0.0536  0.2838
 3168W        W19302   3.067  18.213   1.219  0.1968  0.0969 -0.1709
 3169W        W19303  11.787   7.448  14.176 -0.1907  0.1482 -0.2848
 3170W        W19304  17.138  11.584  12.775 -0.0228  0.2181 -0.0696
 3171W        W19305   1.192   0.144   2.854  0.2575  0.1042  0.1886
 3172W        W19306   3.315   8.024  13.763 -0.1733  0.1729  0.2593
 3173W        W19307   9.681   8.490  14.828  0.2264 -0.1489  0.1082
 3174W        W19308  15.737   4.391  11.326  0.0052  0.0370  0.2086
 3175W        W19309   9.442  13.037   3.413 -0.0974  0.0802 -0.3250
 3176W        W19310  11.827   2.104  13.699 -0.1678  0.0777 -0.1645
 3177W        W19311  14.311   0.048   1.407  0.2681 -0.1429 -0.1161
 3178W        W19312  17.614  15.324  15.160 -0.5419 -0.2955  0.1411
 3179W        W19313   3.217  12.725   1.653  0.2368  0.1431  0.1258
 3180W        W19314   0.147   5.699   0.138  0.1167 -0.3307  0.1153
 3181W        W19315  10.121  13.994  12.904 -0.1418 -0.2091  0.2038
 3182W        W19316  15.688   3.275  13.641  0.1565 -0.0858  0.1922
 3183W        W19317   4.876   0.784   4.452 -0.1562  0.2598  0.0433
 3184W        W19318  14.838   0.693  15.564 -0.3353 -0.2334 -0.2270
 3185W        W19319   7.928   9.680  10.814 -0.0247  0.0274  0.0019
 3186W        W19320  13.633   0.012  12.021 -0.0604 -0.2450 -0.4225
 3187W        W19321  13.177   4.686   1.963  0.2863  0.2415  0.0892
 3188W        W19322   2.076  15.392  15.749 -0.0074  0.0093  0.1764
 3189W        W19323   5.134   5.892   2.726  0.0586  0.2353 -0.3658
 3190W        W19324   8.903   8.767   3.032  0.1707 -0.0455 -0.0787
 3191W        W19325   5.423  13.385  14.731  0.1690 -0.1898 -0.0223
 3192W        W19326  16.287   6.945   1.375  0.0675 -0.1032 -0.3360
 3193W        W19327   9.989  12.377   4.651 -0.0105  0.2334 -0.0632
 3194W        W19328  17.727   4.573  13.775  0.1940  0.0965 -0.3068
 3195W        W19329   8.982   5.627   4.436  0.0464  0.3248 -0.1800
 3196W        W19330   0.768  11.836  11.623 -0.0875  0.0128  0.1763
 3197W        W19331   3.543   5.877   4.246  0.1823  0.0451 -0.0455
 3198W        W19332   9.218  11.124  15.079 -0.0203 -0.0689  0.3627
 3199W        W19333   8.401  12.453  10.877  0.0393  0.2426  0.2038
 3200W        W19334  12.206  10.977   1.610  0.0634  0.1847 -0.0373
 3201W        W19335  14.469  17.281   5.015  0.1263 -0.0370  0.0984
 3202W        W19336  14.646  10.329  13.887 -0.1660  0.1612 -0.0927
 3203W        W19337  14.796   4.231   3.522  0.1126  0.2103 -0.0536
 3204W        W19338  12.350  14.967  12.205 -0.4562 -0.4242  0.0892
 3205W        W19339   9.855   4.868   2.259 -0.0110  0.0545 -0.1660
 3206W        W19340  16.266  11.957  12.901  0.0015  0.0997 -0.0011
 3207W        W19341   6.125   3.223   1.028  0.0546  0.1286  0.0360
 3208W        W19342  13.370  16.620  11.483 -0.0283 -0.0722 -0.0868
 3209W        W19343  13.154   3.115   0.758  0.2555  0.2119 -0.1590
 3210W        W19344  10.162   8.706   3.865  0.1284 -0.3333 -0.3417
 3211W        W19345   6.044   4.692  14.042  0.0475 -0.2934  0.3418
 3212W        W19346  16.584  12.195  14.300 -0.1731 -0.0711 -0.0787
 3213W        W19347   2.307  13.619   0.017  0.3063 -0.0311 -0.2764
 3214W        W19348   6.864   7.505  14.806  0.0248 -0.0367  0.0156
 3215W        W19349  18.090  10.851   5.644  0.1129 -0.0793 -0.1693
 3216W        W19350   9.648   5.247   0.296  0.2455  0.0239 -0.1178
 3217W        W19351  13.479   5.329   2.739 -0.0155  0.1637  0.1590
 3218W        W19352  12.194  15.157   3.164 -0.0775  0.2083  0.0454
 3219W        W19353  11.853  12.400   1.835 -0.0089 -0.1805 -0.2588
 3220W        W19354   4.683  11.049  12.314 -0.0261 -0.1618  0.2038
 3221W        W19355  15.597  17.331   5.075 -0.0723  0.0974 -0.1051
 3222W        W19356   2.291   6.851   3.644  0.1554  0.0368  0.1733
 3223W        W19357   5.472  10.538  14.794  0.2343  0.0787 -0.0177
 3224W        W19358   1.432   0.474   4.796  0.2240  0.0697 -0.0010
 3225W        W19359  14.757  13.763   3.625  0.0462 -0.0076  0.0574
 3226W        W19360   6.301   4.496   0.100 -0.5069 -0.1111 -0.0297
 3227W        W19361  13.693   3.514   4.047 -0.1034  0.2017 -0.0262
 3228W        W19362   8.236  17.788   4.379  0.0591  0.2987 -0.1024
 3229W        W19363   7.592   2.771   5.228 -0.0641 -0.1514  0.0173
 3230W        W19364  15.541  11.153   4.875 -0.1623 -0.0034 -0.1450
 3231W        W19365  14.122  10.500  13.958 -0.0280 -0.0446 -0.3090
 3232W        W19366  15.355   1.575  14.487 -0.3388 -0.0252 -0.0274
 3233W        W19367   5.886  17.105  13.082  0.2629  0.0308  0.0007
 3234W        W19368   2.962   4.468  15.365  0.0460  0.1851  0.0656
 3235W        W19369   3.419  12.422  15.629  0.2088  0.1482  0.1901
 3236W        W19370  15.007  14.683   2.815 -0.2130  0.2155 -0.0328
 3237W        W19371   1.187  13.636   3.232  0.1062  0.0424  0.0175
 3238W        W19372  16.818  11.292   5.413  0.3888 -0.0242  0.0077
 3239W        W19373  14.431  15.732   4.923  0.4141  0.1084 -0.2671
 3240W        W19374  10.925   5.203   2.053 -0.1183  0.2249 -0.3725
 3241W        W19375   9.300  15.486  12.502  0.0666  0.0611 -0.0840
 3242W        W19376  12.087   4.347  14.521  0.0120  0.1162  0.1066
 3243W        W19377  13.742   8.921   1.320 -0.1492 -0.3079  0.0932
 3244W        W19378   0.315  11.894  13.788 -0.2456 -0.1315 -0.0827
 3245W        W19379   2.190  14.868  11.767  0.0543 -0.2935 -0.0450
 3246W        W19380   8.772  10.780   2.381  0.0473 -0.2310  0.3289
 3247W        W19381  10.077   5.981  14.846  0.2071 -0.0056 -0.2010
 3248W        W19382  16.971  11.916   3.976 -0.0755 -0.1861 -0.0527
 3249W        W19383  12.303   7.008  12.462  0.2081 -0.2357  0.3216
 3250W        W19384  16.324   2.273   5.328  0.0626 -0.2614  0.1062
 3251W        W19385   9.763   8.255  12.072 -0.2143 -0.0365 -0.1834
 3252W        W19386   0.610  13.985  14.693 -0.1644 -0.1708 -0.0304
 3253W        W19387  15.150   5.298   3.246  0.0831  0.1070 -0.0499
 3254W        W19388   9.964  14.525   0.857 -0.3539  0.1456 -0.0159
 3255W        W19389  12.889  18.341  11.374  0.1921 -0.0172  0.0017
 3256W        W19390   2.264   1.289   2.692  0.1091 -0.1549  0.4721
 3257W        W19391  10.384   9.884   4.535 -0.3498 -0.1341 -0.0908
 3258W        W19392  15.321  10.982   6.308 -0.1445 -0.0043  0.2773
 3259W        W19393   9.506  12.708   2.945  0.2733 -0.0120 -0.0603
 3260W        W19394  13.692   9.528   2.739 -0.0301  0.0319  0.5686
 3261W        W19395  13.887   8.076   3.998  0.3088 -0.2195 -0.1529
 3262W        W19396  16.502  17.406   3.278  0.0412  0.2486  0.1805
 3263W        W19397  14.063   9.345   4.635  0.1915  0.0884 -0.3020
 3264W        W19398  15.821   1.770   4.750 -0.1041  0.3461 -0.1633
 3265W        W19399   0.823  12.492   0.151  0.0031 -0.0864  0.3509
 3266W        W19400   2.982  11.670  15.004 -0.1375  0.0683 -0.1007
 3267W        W19401  14.362   7.375  11.915 -0.0100 -0.0872  0.2924
 3268W        W19402  11.865   1.696   4.080  0.1151 -0.1504  0.4283
 3269W        W19403   6.164   1.521   3.327  0.0506  0.1661 -0.1304
 3270W        W19404   8.573   7.284  11.711  0.0588  0.0807  0.1407
 3271W        W19405  11.560  11.534   4.259 -0.0653  0.1135 -0.0810
 3272W        W19406   0.695  16.098  14.076  0.0199 -0.2369 -0.0258
 3273W        W19407  16.011   0.339  11.379  0.0280  0.1398  0.0041
 3274W        W19408   0.293   0.056   5.051  0.1535  0.0545 -0.1769
 3275W        W19409   7.777   1.543   2.587 -0.3094 -0.3025 -0.0019
 3276W        W19410  17.732   1.224  11.050  0.2945  0.1548 -0.1336
 3277W        W19411   3.463   4.269   0.708  0.2220 -0.3481  0.2113
 3278W        W19412  16.826  17.516   3.725 -0.0957  0.2138  0.3290
 3279W        W19413  10.991   5.093  14.920 -0.0570 -0.1002  0.0906
 3280W        W19414   8.984  10.347   0.467 -0.2321 -0.1246 -0.3488
 3281W        W19415  14.868   0.052  13.629  0.0547  0.3812 -0.0635
 3282W        W19416   5.561   8.634   4.441 -0.0106  0.0901 -0.2322
 3283W        W19417  12.684   1.606  11.578  0.0179 -0.0109 -0.2576
 3284W        W19418   3.093  17.055  10.906 -0.3447 -0.1808  0.1343
 3285W        W19419   2.765   0.178   4.545  0.2129  0.0412  0.1176
 3286W        W19420  15.231   9.804  15.348 -0.1132  0.2250  0.1789
 3287W        W19421   9.716   5.996   5.064  0.0547  0.0625  0.1290
 3288W        W19422   5.562   3.535   3.405  0.0628  0.0592 -0.2374
 3289W        W19423  14.872  11.369  13.888  0.0692  0.4483 -0.1201
 3290W        W19424  13.725  17.972   2.908 -0.3905  0.2732  0.2003
 3291W        W19425  13.130  11.383  13.530 -0.0110 -0.2339  0.0657
 3292W        W19426   3.542  18.274   1.738 -0.2300  0.1010 -0.1330
 3293W        W19427   9.991   0.686  13.282 -0.2895  0.1359  0.0061
 3294W        W19428   5.882   1.231  14.120 -0.0842  0.1269  0.1807
 3295W        W19429  10.179  17.278  14.058  0.1893  0.0590 -0.1141
 3296W        W19430  14.958   3.014  13.898 -0.1380 -0.1327 -0.2900
 3297W        W19431   0.210   7.673   4.528 -0.0660  0.1828  0.1124
 3298W        W19432  14.723   2.578   1.913 -0.0292  0.1713 -0.3246
 3299W        W19433   9.983  11.455  13.866  0.0600  0.1471 -0.2393
 3300W        W19434   1.325  10.604  13.565  0.1063 -0.1329  0.2904
 3301W        W19435   4.644  15.337  15.566 -0.0793  0.3488 -0.1576
 3302W        W19436   7.569  17.456  15.577 -0.0630 -0.0289 -0.3502
 3303W        W19437  13.741  13.864  14.442 -0.0693 -0.0587 -0.1285
 3304W        W19438   7.036   6.244   5.307 -0.1457 -0.0213 -0.1490
 3305W        W19439   1.912  10.316   3.231  0.0883 -0.1816 -0.3077
 3306W        W19440   4.955   9.756  14.804 -0.1677  0.4032 -0.1203
 3307W        W19441  16.045   5.537  14.948  0.1060 -0.2813 -0.3451
 3308W        W19442  17.699  11.165   4.699  0.1284  0.0167  0.0502
 3309W        W19443   6.694   7.426  10.260 -0.0977 -0.1359 -0.1243
 3310W        W19444  13.353  12.628   2.277 -0.0952 -0.1570  0.2866
 3311W        W19445   3.158  17.452  15.383 -0.1097  0.0902  0.0464
 3312W        W19446   6.486   3.497  15.483  0.2176  0.3373 -0.1181
 3313W        W19447   2.225   2.355  11.052  0.0896  0.4191  0.0915
 3314W        W19448  15.182  10.850  15.130 -0.0071  0.1404 -0.2520
 3315W        W19449  15.879   4.447  15.078 -0.1198  0.0326 -0.1353
 3316W        W19450   2.136   6.651   2.937  0.1971 -0.1144  0.2696
 3317W        W19451  14.293  10.819   0.400  0.0285  0.1231  0.2271
 3318W        W19452  10.753   1.733   5.425 -0.3859  0.0109 -0.1162
 3319W        W19453  10.420  11.457   5.031 -0.1951 -0.1625  0.1673
 3320W        W19454  10.764   4.905   1.280 -0.0702 -0.1798 -0.0187
 3321W        W19455  15.225   5.884   2.544 -0.3084  0.1039  0.1199
 3322W        W19456   3.839   6.421  15.415  0.0467 -0.0519 -0.2177
 3323W        W19457   8.573   2.054   4.750  0.3242 -0.1948 -0.0009
 3324W        W19458  11.635  14.349   4.602 -0.2079 -0.2087  0.1398
 3325W        W19459  10.806   5.218   0.870  0.2706  0.0564 -0.2641
 3326W        W19460  15.862  15.503  12.542 -0.1875  0.0648 -0.3210
 3327W        W19461   3.216   0.070  11.804 -0.0354 -0.3362 -0.0518
 3328W        W19462   7.459  14.221  12.921 -0.1528 -0.2217  0.0845
 3329W        W19463   8.110  12.518  14.142  0.0315  0.0165  0.1078
 3330W        W19464   6.289   0.934  15.887  0.1652 -0.0638 -0.1417
 3331W        W19465   7.179   0.923  11.611  0.0128  0.0687 -0.0414
 3332W        W19466   0.075  10.682  12.065  0.1953  0.1574  0.0463
 3333W        W19467  15.932   0.596   3.318  0.3024  0.0296 -0.1441
 3334W        W19468   4.674   4.548  14.085 -0.0514  0.1183  0.0742
 3335W        W19469  13.074   1.812  15.618 -0.1361  0.0311  0.1647
 3336W        W19470   7.297   8.015   2.845 -0.0903  0.2422  0.0821
 3337W        W19471  17.197   4.459   4.325 -0.0137  0.2061  0.1812
 3338W        W19472   1.605   2.549   2.699 -0.0351  0.1589  0.1701
 3339W        W19473   5.860   2.552   6.139  0.0388 -0.0089 -0.0227
 3340W        W19474   3.609  13.958  10.826 -0.2778  0.3075  0.1366
 3341W        W19475   1.597  13.144  11.773 -0.0073  0.1425 -0.3598
 3342W        W19476  14.325   2.564  15.832 -0.3929  0.2564  0.0403
 3343W        W19477  12.026  12.540   1.166 -0.0080 -0.1714 -0.0663
 3344W        W19478  13.164   2.610   4.819 -0.0961 -0.0210 -0.0088
 3345W        W19479   3.098  10.714  15.257 -0.0411 -0.4031 -0.0887
 3346W        W19480   5.273   1.318  14.063  0.0112 -0.3912 -0.0773
 3347W        W19481   6.609  11.586  14.625 -0.2274  0.0020 -0.0913
 3348W        W19482   8.556   7.859   3.058  0.0514 -0.0248  0.0573
 3349W        W19483   5.381   3.538  12.870 -0.0351  0.2879  0.2899
 3350W        W19484  14.838   4.879   2.956  0.2475  0.0613 -0.1947
 3351W        W19485  15.558  12.847   0.242 -0.0512  0.1974 -0.1969
 3352W        W19486   9.090  13.439  15.464 -0.0224 -0.3245 -0.3577
 3353W        W19487   0.155  17.468  14.737 -0.1732 -0.1755  0.1283
 3354W        W19488   0.151  14.429  13.401 -0.0526  0.2559 -0.0458
 3355W        W19489   2.437   8.754   3.982  0.0667 -0.2373 -0.0759
 3356W        W19490  15.602   2.711  14.908  0.2116  0.3279  0.1060
 3357W        W19491   7.171   2.633   4.964  0.0973 -0.1378  0.0658
 3358W        W19492   8.248   7.047   5.383 -0.2246 -0.0326  0.1831
 3359W        W19493  18.359   2.781   1.001 -0.2428 -0.0985 -0.3105
 3360W        W19494   3.866   9.123  14.258 -0.0770  0.1207  0.3975
 3361W        W19495  14.210  10.367  14.691 -0.3160  0.0085  0.1833
 3362W        W19496  11.584   9.858   5.114  0.1741  0.4032 -0.0036
 3363W        W19497   7.620   6.845  13.196  0.0864  0.1805  0.0188
 3364W        W19498  14.489  14.217   3.714 -0.0887 -0.1396  0.1042
 3365W        W19499  11.014  18.140  15.520  0.2365 -0.3368 -0.1111
 3366W        W19500   2.917  13.290  14.313  0.1516  0.1771 -0.1395
 3367W        W19501  15.249  18.455   5.297  0.0467 -0.1527  0.1761
 3368W        W19502   0.913   1.128   5.267 -0.2313 -0.0378 -0.2154
 3369W        W19503   1.050   4.534   3.963  0.0628 -0.0506  0.0421
 3370W        W19504   8.078  16.563   3.085  0.1688  0.1770 -0.1697
 3371W        W19505  17.713  11.309  12.785  0.2794  0.1260 -0.0422
 3372W        W19506   8.487  15.389  12.193 -0.0336 -0.1390  0.1047
 3373W        W19507  14.921  18.144   4.254  0.2430 -0.0121  0.1711
 3374W        W19508   0.475   2.541  13.267 -0.0360  0.2302  0.1329
 3375W        W19509  16.407  18.347  11.130 -0.1285 -0.1612 -0.0214
 3376W        W19510  10.635  10.990   1.524 -0.1478  0.1122 -0.0242
 3377W        W19511  14.592   8.906   3.640  0.1891  0.2333  0.1247
 3378W        W19512   7.257  11.070  13.083 -0.1566  0.1378  0.1018
 3379W        W19513   5.247   2.876   2.623  0.2434 -0.3193  0.0484
 3380W        W19514  12.875  15.557  12.471 -0.3710  0.2813  0.5023
 3381W        W19515   0.241   5.994   3.992 -0.0200  0.0853  0.0617
 3382W        W19516   5.870  14.682  15.123  0.1880  0.1949 -0.1962
 3383W        W19517   4.591  15.626   3.461 -0.0770  0.0436 -0.0781
 3384W        W19518   8.273   9.735   4.089  0.1143 -0.0321 -0.1028
 3385W        W19519   2.477   5.174  14.385  0.2607 -0.0605  0.0774
 3386W        W19520  12.919   6.849  11.290 -0.0688 -0.0529 -0.1505
 3387W        W19521   3.027  10.367   0.450 -0.2033  0.0502  0.0498
 3388W        W19522   5.584   1.262  13.650 -0.2583  0.1156 -0.2850
 3389W        W19523   3.222   1.382   2.931  0.3926 -0.0559  0.3656
 3390W        W19524   0.941   6.579   5.861 -0.1021 -0.0486  0.1818
 3391W        W19525   2.753   1.776   5.170  0.2004 -0.1520 -0.1845
 3392W        W19526  10.108   0.348  12.337 -0.0422 -0.1898 -0.0401
 3393W        W19527  17.954   4.830  12.918  0.1901  0.0649 -0.1317
 3394W        W19528  14.748   7.672  15.020 -0.3038 -0.0995 -0.2466
 3395W        W19529   7.358  11.037  12.200 -0.1616 -0.1748 -0.1705
 3396W        W19530   2.639  13.439   2.049  0.1086 -0.1725 -0.2064
 3397W        W19531   3.963   7.321  10.813  0.1044 -0.0806  0.0373
 3398W        W19532   4.356   6.744   4.945  0.2195  0.0624 -0.3098
 3399W        W19533   8.789  12.739   2.805  0.0437 -0.2560  0.2579
 3400W        W19534  10.366  10.689  11.475 -0.2277 -0.0012 -0.2365
 3401W        W19535   2.530  11.134  15.852 -0.1283  0.0876  0.1618
 3402W        W19536  16.843  12.703   2.519  0.1506 -0.1364 -0.0372
 3403W        W19537  10.163  16.795  12.849  0.2288 -0.1406 -0.0435
 3404W        W19538   8.454  10.045   5.829 -0.1973 -0.1896 -0.1546
 3405W        W19539   8.882  10.985   4.538 -0.0928  0.0672 -0.0237
 3406W        W19540  11.215   4.150   2.772 -0.1626 -0.1431 -0.1839
 3407W        W19541   4.331   2.240  15.783 -0.1112 -0.0985 -0.1394
 3408W        W19542   8.589   4.372   1.749 -0.2485  0.0245  0.0429
 3409W        W19543   8.330   0.459  11.458  0.0648  0.1354 -0.0980
 3410W        W19544  17.075   2.685   4.051 -0.0473 -0.1193 -0.2816
 3411W        W19545   1.658   1.937  14.871 -0.1295  0.0749  0.3197
 3412W        W19546   5.723  10.643  15.643  0.1576  0.0766 -0.2934
 3413W        W19547  11.890  17.263  12.853 -0.1164  0.0290  0.1991
 3414W        W19548   8.328  14.139  12.933 -0.2077 -0.1908 -0.1401
 3415W        W19549  17.953   6.456  11.350  0.1872  0.0771 -0.5154
 3416W        W19550  17.415   4.109   3.857  0.2696 -0.0790  0.1423
 3417W        W19551   0.399   3.332   1.999 -0.0473  0.0804  0.2517
 3418W        W19552  14.920   0.297  13.161 -0.1644 -0.0888 -0.2076
 3419W        W19553  12.380   1.719   1.308 -0.0606  0.0461  0.1080
 3420W        W19554   0.488   2.466   2.298 -0.0688  0.1565  0.1412
 3421W        W19555  15.396   3.906   1.492  0.5625 -0.0976 -0.1041
 3422W        W19556   4.733  12.170   1.061 -0.0975 -0.0125 -0.1784
 3423W        W19557  12.332   2.255  14.698  0.0789 -0.0126 -0.3725
 3424W        W19558  12.528  13.999  14.923 -0.1281  0.2167  0.2339
 3425W        W19559   0.512  15.911   0.479 -0.0738  0.2060 -0.1260
 3426W        W19560   9.443   6.792  11.729 -0.0354 -0.0145  0.0682
 3427W        W19561   5.661  15.426   3.599 -0.0590  0.1232  0.3059
 3428W        W19562  18.183  12.503   4.445  0.3946  0.0366  0.0794
 3429W        W19563   6.290   3.751   4.682  0.1747 -0.0128 -0.1446
 3430W        W19564  14.706  16.922  15.542  0.1415 -0.1140 -0.1096
 3431W        W19565   4.549  17.648  14.788 -0.0090 -0.1428 -0.1904
 3432W        W19566   6.093   9.646   4.387  0.1813  0.0858  0.1712
 3433W        W19567   7.203   3.699   4.417 -0.2065 -0.1109 -0.3095
 3434W        W19568   5.850  12.999   4.487  0.1501  0.1477 -0.1522
 3435W        W19569  14.592  13.268  10.156 -0.1076 -0.2297 -0.1075
 3436W        W19570  18.009   8.374   2.328 -0.2074  0.0305  0.0302
 3437W        W19571  10.052  14.049  14.617  0.0842  0.3374  0.0483
 3438W        W19572   8.955   5.081  15.399  0.0305  0.0005 -0.0128
 3439W        W19573  15.895  15.202  13.443  0.1674 -0.0871 -0.2641
 3440W        W19574   1.338  13.243   9.963 -0.1698 -0.2287  0.1410
 3441W        W19575   1.032  16.420   5.706  0.4545  0.1774 -0.0101
 3442W        W19576   5.607  17.429  14.825 -0.3381 -0.1159 -0.1531
 3443W        W19577   2.485   5.960  13.663  0.1684  0.4437  0.0357
 3444W        W19578   1.124  18.261  14.953  0.0606  0.1669 -0.2571
 3445W        W19579  16.414   6.491   2.881  0.5417 -0.1833 -0.1448
 3446W        W19580   2.010   4.326   2.637 -0.1702 -0.2390  0.0342
 3447W        W19581  17.009   4.633  12.562 -0.6978  0.0097 -0.1190
 3448W        W19582   0.567   3.242  15.254 -0.2278  0.1354 -0.2581
 3449W        W19583   2.839   6.322   4.460  0.2212  0.0675  0.0577
 3450W        W19584  14.695  17.200   3.132  0.1865  0.2022  0.2491
 3451W        W19585   7.344   7.428  12.491  0.1431 -0.0219 -0.2904
 3452W        W19586  12.218   4.953  12.518  0.2304  0.0344  0.1259
 3453W        W19587  14.411  18.279   0.718  0.1081 -0.4794  0.2251
 3454W        W19588   4.104   4.962  14.903  0.0829  0.2564 -0.0462
 3455W        W19589   5.956  17.523  14.002 -0.0957 -0.0971  0.0410
 3456W        W19590  15.220   7.193  15.902 -0.0918  0.2603 -0.1248
 3457W        W19591   5.755  14.925   3.603 -0.2363  0.0290  0.0674
 3458W        W19592  15.920  17.278  12.572  0.0251  0.1164 -0.4103
 3459W        W19593   4.615  17.736  12.676 -0.0222 -0.0619 -0.0731
 3460W        W19594   8.477   4.822   1.431  0.1599 -0.1395  0.1700
 3461W        W19595   7.352   8.498   1.863  0.0076  0.2836  0.2038
 3462W        W19596  12.170   3.241  11.655  0.0208 -0.3640  0.2022
 3463W        W19597   4.665   8.263   0.314 -0.0306  0.3764 -0.0071
 3464W        W19598   1.802  12.247   5.381  0.0251  0.1151 -0.2864
 3465W        W19599   9.731   2.184  13.220  0.0910 -0.3700  0.1959
 3466W        W19600   8.296  15.416   3.873  0.0350 -0.1140  0.2706
 3467W        W19601   2.387  18.403  15.089  0.0527 -0.0772  0.0656
 3468W        W19602   3.513   0.703  14.182  0.2481  0.3224  0.1311
 3469W        W19603  15.289  14.667  15.144  0.1312 -0.0154  0.2443
 3470W        W19604   8.862  17.450  12.080  0.0449  0.1209  0.0159
 3471W        W19605  10.822   3.979   3.036 -0.0732  0.3021  0.1859
 3472W        W19606  18.333   4.850   0.139  0.0669 -0.1417  0.0833
 3473W        W19607  16.589  16.567  13.588  0.1628 -0.0765 -0.1765
 3474W        W19608   3.482   6.449  13.660  0.0776 -0.0396  0.0147
 3475W        W19609  11.421  12.153  15.152  0.0982  0.1414  0.1887
 3476W        W19610   0.389   6.768  12.031 -0.0875  0.0489 -0.1578
 3477W        W19611  11.153  16.454   3.538 -0.1378 -0.1658 -0.2421
 3478W        W19612  18.427   4.097  12.911 -0.0635 -0.0480 -0.0310
 3479W        W19613  11.495   2.283   3.395 -0.3001 -0.1223 -0.0003
 3480W        W19614  17.282  13.781  12.054 -0.1431  0.2630  0.0699
 3481W        W19615   3.520   3.413  13.918 -0.0196  0.0193 -0.2379
 3482W        W19616   3.668   6.627   4.410  0.2146  0.2252 -0.0101
 3483W        W19617   8.185   1.061  13.894 -0.0026  0.0870 -0.1066
 3484W        W19618  18.254   0.390   2.669 -0.0434  0.1814 -0.0386
 3485W        W19619   9.604  10.280  15.598  0.2171  0.4374  0.0822
 3486W        W19620   1.758  16.496   3.946 -0.0537  0.0979  0.1584
 3487W        W19621   3.228   2.322  12.601  0.2343  0.1881  0.0310
 3488W        W19622   6.148  17.374   6.262 -0.1579  0.0341 -0.1180
 3489W        W19623  14.212   1.749  13.557  0.0789 -0.3908  0.1987
 3490W        W19624   6.678   4.709   5.346  0.2230 -0.1774 -0.1876
 3491W        W19625  12.535   0.690  12.486  0.0696 -0.0363 -0.0638
 3492W        W19626  13.129  14.393   1.701 -0.1533  0.1022 -0.1141
 3493W        W19627   0.478   5.153  11.983 -0.1869  0.0865 -0.0695
 3494W        W19628  17.198  14.965   5.501  0.2678 -0.1989  0.1262
 3495W        W19629   2.676   2.266   2.181 -0.0299 -0.2138 -0.1776
 3496W        W19630  13.350   4.210   2.222 -0.0156  0.1970  0.0443
 3497W        W19631  10.280   0.052  12.795 -0.0907 -0.0151 -0.0607
 3498W        W19632   8.360   9.508   4.963 -0.0411  0.2367  0.0771
 3499W        W19633  10.941   5.383  13.179  0.1574  0.2510  0.0046
 3500W        W19634   4.877  13.047  13.821 -0.0476  0.1270 -0.0090
 3501W        W19635  10.868   9.313   0.448 -0.2130  0.2392  0.0343
 3502W        W19636  17.830  13.530  12.415  0.2894  0.0547 -0.0736
 3503W        W19637   6.387   5.096   0.105  0.0130 -0.3338  0.1639
 3504W        W19638   4.327   1.356  14.076  0.3496  0.2386 -0.0445
 3505W        W19639  11.777  15.658  14.967 -0.0723  0.1470 -0.3258
 3506W        W19640  10.980   1.112   0.210  0.0735 -0.1593 -0.0353
 3507W        W19641   3.049  12.361   3.684  0.2662 -0.2977 -0.1203
 3508W        W19642   4.218  13.645  14.092 -0.0465 -0.0537 -0.2662
 3509W        W19643   7.028   3.447   2.866  0.2113 -0.0612 -0.2938
 3510W        W19644  13.515   2.228  13.699 -0.1536 -0.0346 -0.0562
 3511W        W19645   5.684   5.664   2.631  0.0716  0.2190 -0.2706
 3512W        W19646  10.383  11.062   2.705  0.0888 -0.2409 -0.0773
 3513W        W19647   7.011  18.329   3.856  0.1221  0.1821  0.1579
 3514W        W19648   4.488  16.002   0.499  0.0504 -0.0020 -0.0215
 3515W        W19649   7.559  12.916  13.218  0.0249  0.0527  0.2606
 3516W        W19650  10.336  13.694   0.673  0.1324 -0.1593 -0.0576
 3517W        W19651   5.780  14.439  10.009 -0.1253  0.0873 -0.4918
 3518W        W19652   5.316  11.703   1.817 -0.0961 -0.1088 -0.0922
 3519W        W19653  14.651   9.687  12.554 -0.0626 -0.1512 -0.1397
 3520W        W19654   7.452  10.317   2.058 -0.1585 -0.0238 -0.0372
 3521W        W19655   5.814  11.480   3.845  0.1313 -0.2066 -0.2410
 3522W        W19656   1.335  12.771   5.757  0.0059 -0.0474 -0.0718
 3523W        W19657   5.235   1.119   0.813 -0.1835  0.0226 -0.4695
 3524W        W19658   1.495  18.130   4.157 -0.1853  0.0411 -0.1418
 3525W        W19659   2.965   6.397  14.947  0.1776 -0.0313 -0.0223
 3526W        W19660  11.970  11.913  11.631  0.0622  0.1194 -0.0067
 3527W        W19661  18.034   6.188  12.029  0.5479 -0.2062  0.1279
 3528W        W19662  12.671  14.446  10.347  0.3204 -0.1025  0.2257
 3529W        W19663  14.923  16.197   2.128  0.0954  0.4622  0.3074
 3530W        W19664   6.530   5.853  11.739  0.4519  0.1483 -0.0317
 3531W        W19665   2.143   5.887   3.907 -0.2892  0.0958  0.1320
 3532W        W19666  13.191  16.178   5.427 -0.2947 -0.1015  0.1369
 3533W        W19667  10.570  14.466   1.914  0.0553  0.1493  0.0623
 3534W        W19668  11.637   0.632  14.333  0.1603 -0.0217  0.0330
 3535W        W19669   5.188  12.730  15.765  0.1179  0.0952  0.2894
 3536W        W19670   6.415   9.101   5.592  0.0583  0.2094  0.2662
 3537W        W19671   1.288  15.010  14.707 -0.3282 -0.5100 -0.0099
 3538W        W19672  13.600  11.125   3.564  0.0933  0.1429 -0.5525
 3539W        W19673  14.508   5.811  12.877 -0.0885 -0.1917  0.1234
 3540W        W19674  13.149  13.763   3.983  0.0539 -0.2096 -0.0075
 3541W        W19675   3.358   4.630   5.298 -0.0424 -0.2345  0.1476
 3542W        W19676  12.314  10.304  11.169  0.2123 -0.0966 -0.0619
 3543W        W19677  14.539  13.363  12.638 -0.2559  0.2928 -0.3504
 3544W        W19678   7.885  15.643  12.226  0.0269  0.3504  0.0625
 3545W        W19679   4.994  17.423   1.285 -0.3180  0.0658 -0.0681
 3546W        W19680   7.718   5.722  12.531  0.1073 -0.1256  0.1888
 3547W        W19681  13.767  13.359  15.861 -0.6321  0.1862  0.0668
 3548W        W19682  15.340   3.025   0.642  0.1665 -0.0641 -0.3064
 3549W        W19683   8.361  14.334  14.007  0.1122 -0.0837 -0.0408
 3550W        W19684   6.750   4.412   0.734  0.3495  0.1017  0.0065
 3551W        W19685   7.962  12.378  11.843  0.0494  0.0788  0.1290
 3552W        W19686   5.260   3.597  13.369 -0.2203  0.1908  0.0250
 3553W        W19687  16.978  12.471  12.488 -0.1019  0.3474 -0.0132
 3554W        W19688  16.274  16.116  14.447 -0.1863 -0.0841 -0.0451
 3555W        W19689  16.472   5.627   3.519 -0.0213  0.1310  0.3064
 3556W        W19690   6.649  11.464   4.780  0.2304  0.2313  0.0139
 3557W        W19691   5.260   4.158   1.768  0.0471  0.2342  0.0952
 3558W        W19692  14.160  12.212   2.221 -0.1736 -0.0901 -0.0301
 3559W        W19693   9.410  11.484  12.481  0.0095 -0.1479 -0.1670
 3560W        W19694   5.271   9.523  15.664 -0.0620  0.0384  0.0467
 3561W        W19695   4.758   3.184   0.154 -0.2037  0.0352 -0.0478
 3562W        W19696  14.627  17.679   4.138  0.0389  0.2843  0.2186
 3563W        W19697   6.387   8.728  15.681  0.0308 -0.0815  0.3023
 3564W        W19698   8.521   9.187  13.558  0.0375 -0.1112  0.0594
 3565W        W19699  11.924  10.956  14.087  0.0022 -0.1350  0.1487
 3566W        W19700  15.615  12.842  14.227 -0.2050 -0.4141 -0.0691
 3567W        W19701  18.293   9.217   5.112  0.0642  0.3102 -0.0435
 3568W        W19702   9.251  12.046   4.293 -0.1242 -0.2104 -0.0607
 3569W        W19703   9.500   0.677   2.340 -0.1142 -0.0641 -0.0623
 3570W        W19704   3.760   4.849  11.835 -0.0994  0.2858  0.1002
 3571W        W19705   6.873   5.648   0.088 -0.0358 -0.3520 -0.1743
 3572W        W19706   4.750   6.367  14.288 -0.1885  0.0335  0.0983
 3573W        W19707  17.333  16.159   3.106 -0.2050  0.3325 -0.1159
 3574W        W19708  11.598   8.960  12.935  0.0334 -0.0826  0.0506
 3575W        W19709   4.526   5.162   3.690 -0.0330 -0.0387  0.0231
 3576W        W19710  11.028   2.465  12.787 -0.0620  0.1215 -0.1911
 3577W        W19711   1.098   2.823   3.545  0.0903  0.0574  0.0918
 3578W        W19712   6.647  14.945  13.570 -0.0964 -0.0552  0.3859
 3579W        W19713  14.674  16.690   3.137 -0.0097 -0.1645  0.2512
 3580W        W19714  18.061   8.031  12.383 -0.0278 -0.0745 -0.2488
 3581W        W19715  13.808  12.609   3.162  0.3400 -0.0783  0.0142
 3582W        W19716   3.930   9.091   2.321  0.3164 -0.2081 -0.0411
 3583W        W19717   1.549  13.115  15.544 -0.4867 -0.1280 -0.1803
 3584W        W19718  12.208  16.570   0.442 -0.0271 -0.0392  0.3701
 3585W        W19719   4.954   9.288   3.263 -0.1081  0.0015 -0.2369
 3586W        W19720  15.476  10.213  14.315  0.0934  0.0181 -0.1344
 3587W        W19721  12.224   6.173  11.789 -0.0083 -0.1811  0.3156
 3588W        W19722  10.606  15.704  13.830  0.0911  0.1911 -0.0690
 3589W        W19723   8.233   6.556   4.171 -0.1130  0.0120  0.1158
 3590W        W19724  11.044  15.847  11.455  0.0643  0.1343  0.0298
 3591W        W19725  12.157   0.618   3.588  0.1791 -0.0355  0.0810
 3592W        W19726  16.060  11.103  14.947  0.2195  0.1055  0.1755
 3593W        W19727  11.482  17.742  11.475 -0.0036 -0.0581 -0.2750
 3594W        W19728  13.570   2.461  12.792 -0.2360  0.0614  0.0098
 3595W        W19729   9.552  16.303   2.204  0.0788 -0.1128 -0.2642
 3596W        W19730   2.899   0.876  15.730 -0.4695 -0.4024  0.1801
 3597W        W19731   0.949   2.732   4.067 -0.1439 -0.0320 -0.0685
 3598W        W19732  12.806   2.195   0.102 -0.2263 -0.2565  0.4387
 3599W        W19733  10.728   3.156  11.873  0.2130  0.0745 -0.3646
 3600W        W19734  12.953  13.299  14.729 -0.0593  0.0858 -0.2683
 3601W        W19735  17.541  10.663   9.846 -0.0866  0.0603 -0.1566
 3602W        W19736   1.622   6.287  12.306 -0.3380  0.2274 -0.0588
 3603W        W19737  10.598  11.198  11.896  0.0402  0.0816 -0.0453
 3604W        W19738  18.019   9.274  14.545  0.4102 -0.2372 -0.5534
 3605W        W19739  10.189   7.296  15.270  0.0626  0.1952  0.1436
 3606W        W19740  16.396   6.074   3.196  0.2360  0.1228 -0.0611
 3607W        W19741  10.920  11.922   2.316 -0.3245  0.1552  0.0698
 3608W        W19742   8.277  17.087  10.499  0.0631  0.0930  0.2131
 3609W        W19743   8.287   8.582   1.937  0.1058 -0.0725 -0.0012
 3610W        W19744  18.196   3.343  14.020  0.0404  0.0620 -0.2339
 3611W        W19745  16.062   8.333  13.471  0.1432  0.1647 -0.1455
 3612W        W19746  12.959  16.028  10.934 -0.3894  0.0572  0.0667
 3613W        W19747   4.493  11.883   0.726  0.1690  0.3163 -0.3548
 3614W        W19748   5.396   2.697   1.106  0.1741  0.0817 -0.1177
 3615W        W19749  17.947   2.169   3.132 -0.2164  0.2466 -0.4514
 3616W        W19750   8.767   1.913   0.291  0.2838 -0.1649  0.1494
 3617W        W19751   5.130  16.550   2.034  0.1308  0.0146  0.3773
 3618W        W19752  18.198   1.918  14.938  0.1334 -0.0080 -0.1126
 3619W        W19753  17.966   8.705  12.874  0.2456 -0.0412  0.0605
 3620W        W19754  14.868  11.691   4.811  0.1123 -0.3034  0.0034
 3621W        W19755   8.268   8.671  14.464 -0.1062  0.0933 -0.2438
 3622W        W19756  11.200   9.647  11.704 -0.1375  0.0147 -0.0983
 3623W        W19757  14.922   8.361  12.642  0.0338  0.1521 -0.1785
 3624W        W19758   9.833  14.604   6.418  0.2740 -0.1743 -0.0333
 3625W        W19759   4.336   6.389   0.328 -0.6242 -0.0950  0.3334
 3626W        W19760   8.879  11.860  11.572 -0.2290 -0.0398 -0.1014
 3627W        W19761   2.261   6.727  14.449 -0.0766  0.0320 -0.3535
 3628W        W19762  16.310  15.769   4.284 -0.1875  0.4437  0.3703
 3629W        W19763  16.192   6.654   0.575  0.1032 -0.1339  0.3932
 3630W        W19764  10.001   5.980   2.388 -0.0635 -0.1137 -0.0557
 3631W        W19765   1.146   3.390  11.226 -0.2098 -0.0300  0.2440
 3632W        W19766  16.679  16.335   0.755  0.0173  0.0193 -0.1071
 3633W        W19767  14.584   9.366  11.338  0.1669 -0.0426  0.1562
 3634W        W19768  16.269   7.733   4.334 -0.2028  0.0470  0.3464
 3635W        W19769  12.376   0.764   0.361 -0.3621  0.4441 -0.0850
 3636W        W19770  11.528  18.252   1.950 -0.0137  0.1682  0.0306
 3637W        W19771   6.602   8.836   0.210  0.2070 -0.3165  0.0493
 3638W        W19772   0.753   0.958   1.686  0.3142 -0.1540 -0.0168
 3639W        W19773   8.461  13.429   5.652 -0.1628  0.2858  0.1829
 3640W        W19774  18.307  14.008   4.272  0.1347 -0.0334 -0.2439
 3641W        W19775   4.101  14.361  12.179 -0.1352  0.1496  0.1886
 3642W        W19776  17.297  17.197   2.169 -0.0707  0.0833  0.1773
 3643W        W19777   0.584  11.109   1.593  0.0702 -0.0717  0.0603
 3644W        W19778  13.503  12.329  15.491  0.3895  0.3751  0.0596
 3645W        W19779  12.267  15.806  14.980 -0.0893  0.2198  0.1786
 3646W        W19780   0.927   2.337   3.328 -0.1940 -0.1112 -0.1312
 3647W        W19781   1.251  17.667   3.724  0.1509 -0.1929 -0.2168
 3648W        W19782   1.211   9.618   0.375  0.0771  0.2330  0.0171
 3649W        W19783  10.288   4.017   0.154 -0.3916  0.0680  0.1253
 3650W        W19784   2.020  14.071  13.164  0.0435  0.2706  0.2044
 3651W        W19785   9.901  12.453   6.325 -0.1461  0.1234 -0.2598
 3652W        W19786  11.058  14.139  12.648  0.2422  0.2808  0.0833
 3653W        W19787  13.103   5.094  15.674 -0.1186  0.1858  0.2799
 3654W        W19788   9.770   3.500  15.586 -0.0195  0.0700  0.1652
 3655W        W19789   8.103   8.124   1.678 -0.4406  0.0681  0.1269
 3656W        W19790   9.357  14.761  11.676  0.0300 -0.1140 -0.1238
 3657W        W19791  13.121  14.298  11.045 -0.1686 -0.0223 -0.1396
 3658W        W19792  11.160  13.029   3.973 -0.2960 -0.0599  0.2041
 3659W        W19793   2.024   7.946  14.312 -0.0090 -0.1042 -0.2713
 3660W        W19794  11.513   6.378  11.326  0.1130  0.0352  0.0334
 3661W        W19795  13.415   1.338  15.727  0.2393 -0.2254 -0.1346
 3662W        W19796  15.842   8.807   4.856  0.0147  0.0338  0.1756
 3663W        W19797   4.332   1.370  12.664  0.1808 -0.0182  0.1752
 3664W        W19798  15.095  15.691  11.542  0.0001 -0.1267 -0.0025
 3665W        W19799  12.233   2.831  12.359 -0.0045 -0.0654 -0.0516
 3666W        W19800  14.345  11.959  13.941  0.0987 -0.2254 -0.1483
 3667W        W19801   1.811   7.643  11.851  0.0821 -0.1809  0.1024
 3668W        W19802  17.856   0.240  11.987  0.0594 -0.0739  0.1273
 3669W        W19803  10.024  12.915   1.021  0.0991 -0.1066 -0.1326
 3670W        W19804   4.977   4.839   0.390  0.3501 -0.2855 -0.0099
 3671W        W19805   8.706   0.549   2.819 -0.2324 -0.1608  0.1404
 3672W        W19806  16.675   0.181  13.655  0.1222  0.1302  0.0923
 3673W        W19807   9.578  15.774   1.278  0.1845  0.1719  0.0733
 3674W        W19808   9.072   0.679   4.862 -0.5984  0.4491  0.1395
 3675W        W19809  14.564   7.283  14.091  0.2024  0.1626  0.3064
 3676W        W19810   2.066   2.799  15.015 -0.0548  0.1273  0.1109
 3677W        W19811  11.964   9.939  12.862 -0.0587  0.2341 -0.2906
 3678W        W19812   0.478   0.126  14.796 -0.1571 -0.0122 -0.0407
 3679W        W19813  16.359  18.425  15.566 -0.1041  0.1420 -0.0377
 3680W        W19814   0.752   8.969  15.066 -0.1050 -0.1383  0.0464
 3681W        W19815  11.080  13.589  12.667  0.0006  0.2577 -0.1189
 3682W        W19816  13.705   0.230   1.544  0.2987  0.2930  0.1216
 3683W        W19817   3.265  11.885   1.523  0.0849 -0.0400 -0.1155
 3684W        W19818  17.382   2.843  12.806 -0.1197 -0.1533  0.1342
 3685W        W19819   5.053  13.970   0.458  0.4730  0.0907  0.1106
 3686W        W19820   7.365  14.505  14.629  0.0140 -0.1422  0.1658
 3687W        W19821  16.514  12.507  12.644 -0.0507  0.0233 -0.0747
 3688W        W19822  13.175  12.403  15.106 -0.0222 -0.0326 -0.0954
 3689W        W19823   0.965  17.884   1.170  0.1309 -0.1569 -0.0488
 3690W        W19824   2.808  10.624   4.548 -0.3006  0.0374 -0.0821
 3691W        W19825   5.994  16.280  14.373 -0.1947 -0.1064  0.1310
 3692W        W19826  10.445   4.312  12.370  0.0946  0.4658 -0.1899
 3693W        W19827   3.016  11.370   2.268 -0.0818  0.1804  0.1006
 3694W        W19828   8.551  10.304   4.534  0.0227 -0.1051  0.2119
 3695W        W19829   9.023  12.432   1.050  0.1760 -0.1673 -0.1866
 3696W        W19830   8.303   6.074  15.609  0.3220 -0.0791  0.2248
 3697W        W19831   9.487  13.577   4.920 -0.2164 -0.1450  0.0562
 3698W        W19832  14.015   4.530   5.190  0.0276 -0.0697  0.0610
 3699W        W19833  12.962   7.487  11.333  0.1956  0.1540  0.0972
 3700W        W19834   0.916  15.847  15.003  0.2424 -0.0147 -0.1454
 3701W        W19835  15.972   6.874   2.836  0.1004  0.0174 -0.2654
 3702W        W19836  16.795  15.437  12.384  0.0980  0.2107 -0.0903
 3703W        W19837   0.767   4.568  14.819  0.1833 -0.1368 -0.2544
 3704W        W19838   7.339   8.043  10.994  0.2084 -0.1640  0.0551
 3705W        W19839  15.604   7.171  15.556 -0.0055 -0.0778 -0.0019
 3706W        W19840  10.853   9.892   5.466 -0.1134 -0.0572  0.2746
 3707W        W19841  13.781  11.225   1.887  0.1630 -0.0923  0.1535
 3708W        W19842  10.281   2.019  11.261  0.1373 -0.1820 -0.0532
 3709W        W19843   2.955   3.006  10.740 -0.1576 -0.0408 -0.0699
 3710W        W19844   9.360   2.351  13.613 -0.1392 -0.1488  0.2533
 3711W        W19845   7.488  14.697  12.046 -0.0143  0.1080 -0.0434
 3712W        W19846  15.455   9.017   0.100 -0.1836  0.0779 -0.0711
 3713W        W19847   3.252   0.353   2.863  0.2259  0.0914 -0.0182
 3714W        W19848  14.424  14.024   2.244 -0.2997 -0.1514 -0.0477
 3715W        W19849   0.566   6.656  15.758  0.0000 -0.2974  0.2185
 3716W        W19850  15.278  15.689   5.295 -0.1274 -0.0553 -0.2554
 3717W        W19851  10.031   0.891  12.521  0.0299  0.0638  0.0634
 3718W        W19852  18.122   3.123  11.537  0.1855  0.0289 -0.0027
 3719W        W19853  18.326  12.538  13.073 -0.2939 -0.1636  0.1167
 3720W        W19854   1.670   7.442   2.474  0.0852 -0.1698  0.1694
 3721W        W19855   5.567   7.368   1.460  0.0164 -0.0640 -0.1254
 3722W        W19856  16.624  10.443  15.817 -0.0013  0.0287 -0.1126
 3723W        W19857  14.392   4.860   4.844 -0.3202  0.1879  0.3636
 3724W        W19858  14.004   7.363  12.249  0.0189 -0.0662  0.3276
 3725W        W19859  11.310   5.818   0.834 -0.0803  0.0235 -0.0341
 3726W        W19860  13.033  16.047  14.664  0.0121  0.0331 -0.2600
 3727W        W19861  15.200   3.515   1.834 -0.0223  0.0638  0.1981
 3728W        W19862  11.865   9.698  12.470 -0.2039  0.1189  0.0167
 3729W        W19863   7.814   0.540  13.280  0.0731 -0.3430 -0.0049
 3730W        W19864  16.904   1.402   4.382 -0.1912  0.3211 -0.1051
 3731W        W19865   2.236  15.667   1.294 -0.1706  0.3675  0.0728
 3732W        W19866   5.808  17.093   1.804 -0.1811 -0.0797 -0.0534
 3733W        W19867  10.272   4.131   3.818  0.1534  0.0234 -0.0055
 3734W        W19868  11.360   0.649   3.123 -0.0868  0.1994  0.2561
 3735W        W19869   8.247  12.006  11.064 -0.0598  0.3150 -0.0473
 3736W        W19870   3.292  17.869  13.684  0.0887 -0.0586 -0.0321
 3737W        W19871  10.560   3.805  13.055 -0.2926  0.1465  0.1469
 3738W        W19872  17.475  13.136  15.808 -0.1135  0.3745  0.1069
 3739W        W19873  13.770  10.445   2.259 -0.0156 -0.0273 -0.1589
 3740W        W19874  13.007   7.287  12.886 -0.3026  0.1254 -0.1300
 3741W        W19875   4.140  14.506   1.367 -0.1529  0.2340  0.0316
 3742W        W19876  10.480  16.757   5.337 -0.1328  0.0304 -0.0925
 3743W        W19877   5.871  16.652   5.706 -0.2259 -0.1584 -0.1588
 3744W        W19878  14.990  15.794   5.854  0.1679  0.0671 -0.0569
 3745W        W19879   5.842   0.878  14.680  0.2733 -0.2086 -0.0469
 3746W        W19880  11.974   4.638   3.534  0.0317 -0.1763  0.0194
 3747W        W19881   5.023   3.903  12.569  0.2017  0.0185 -0.2051
 3748W        W19882   1.343  12.999  12.597  0.0056  0.1562  0.0889
 3749W        W19883   1.514  10.187  13.850 -0.0771  0.0220  0.1537
 3750W        W19884   7.127   6.979   4.783 -0.0597 -0.0140  0.1663
 3751W        W19885  17.621  12.531   1.882  0.3434  0.1156  0.2762
 3752W        W19886  16.911   8.204  15.692  0.2244  0.3240  0.2822
 3753W        W19887  13.965  10.582  12.940 -0.0746  0.2801  0.1479
 3754W        W19888  13.986   5.575  12.144  0.1932  0.2264  0.1893
 3755W        W19889  12.475   2.048   0.410  0.0251 -0.2402 -0.0817
 3756W        W19890   1.771   4.765   2.956  0.0740 -0.2014 -0.2052
 3757W        W19891   1.896   1.669   1.556  0.2193 -0.0792  0.0286
 3758W        W19892   0.538  18.058  14.154  0.2147 -0.0033  0.1456
 3759W        W19893   8.367  17.295  10.953 -0.0336  0.0588  0.1209
 3760W        W19894   7.573  12.266   0.551 -0.1690  0.2600 -0.1473
 3761W        W19895   8.748  13.107  10.441  0.0692 -0.1594  0.0972
 3762W        W19896   8.134   3.369  14.039 -0.0250  0.0528 -0.0805
 3763W        W19897   6.538   1.355   4.508  0.0318  0.0644 -0.0570
 3764W        W19898   7.073  17.692   2.725 -0.1463 -0.0280  0.3353
 3765W        W19899   9.055   1.816   4.872  0.1306  0.0722  0.0535
 3766W        W19900   7.730   1.443   2.136 -0.1164 -0.0320  0.0411
 3767W        W19901   6.736   0.849  12.320  0.0404  0.1174  0.0501
 3768W        W19902   5.354   1.972   4.703 -0.0211 -0.2813  0.0434
 3769W        W19903   6.738  15.477   4.934 -0.1494 -0.3625  0.1527
 3770W        W19904  13.424   2.957  15.662 -0.0411  0.0753 -0.3960
 3771W        W19905  12.146   0.456  13.491  0.1580 -0.0513 -0.0097
 3772W        W19906   1.484  16.316  10.790 -0.0654 -0.3703  0.1320
 3773W        W19907  10.204  16.294  12.611 -0.1197  0.4709  0.1382
 3774W        W19908  14.500   2.473   5.311  0.2500  0.0980  0.1075
 3775W        W19909   8.315  16.528  14.516  0.0920  0.1937  0.0711
 3776W        W19910  16.232   5.682   4.438 -0.0890  0.1077  0.0766
 3777W        W19911   0.024  10.520   0.666 -0.1332 -0.3771 -0.0554
 3778W        W19912   3.246   9.953  14.119 -0.1511  0.2051 -0.1469
 3779W        W19913  15.216   9.520   1.281 -0.1972  0.2905  0.0727
 3780W        W19914  18.321   1.381   4.527  0.0049 -0.2249  0.0499
 3781W        W19915  14.050   6.891  12.498 -0.1718  0.0188  0.0585
 3782W        W19916   2.698   4.208  13.736  0.1000  0.0332  0.1596
 3783W        W19917   9.286  15.181   2.339 -0.2796 -0.0253 -0.1870
 3784W        W19918   8.726   6.112   5.953 -0.1001  0.2954 -0.1880
 3785W        W19919   5.107  18.059  11.482  0.2204 -0.1726  0.1642
 3786W        W19920   4.017   3.772  13.015 -0.0965  0.1811 -0.1412
 3787W        W19921  17.726  16.071   2.375 -0.0879  0.1218 -0.2216
 3788W        W19922   3.628  16.460   1.949 -0.1217 -0.1932 -0.0084
 3789W        W19923   4.056   6.611  13.332 -0.2424 -0.0522  0.1723
 3790W        W19924   5.783  15.095  13.667 -0.0642  0.0666  0.1905
 3791W        W19925  11.568  16.198  15.003 -0.1993  0.1265 -0.0566
 3792W        W19926   9.648   0.700   0.579 -0.1075 -0.5132 -0.0992
 3793W        W19927   1.160   6.686  11.178 -0.2491  0.1545  0.1175
 3794W        W19928   6.935   4.302  14.320  0.2299 -0.3237 -0.0811
 3795W        W19929   5.030  15.914   5.334 -0.0361 -0.0408 -0.0746
 3796W        W19930   5.766  12.293  13.725 -0.0030 -0.2077 -0.0403
 3797W        W19931   6.670   8.111  12.107 -0.4032  0.0916  0.1435
 3798W        W19932  12.977   3.200   0.094  0.2553  0.2006 -0.1110
 3799W        W19933   5.579   3.633   2.718  0.0494 -0.0213  0.1163
 3800W        W19934  17.451   0.673  13.717  0.0315  0.4432 -0.2284
 3801W        W19935   4.888   8.292   4.051 -0.1347  0.3220  0.0778
 3802W        W19936   0.446  15.587   1.924 -0.1032  0.3029 -0.1599
 3803W        W19937  16.431   8.600   1.012  0.0996  0.1428 -0.1765
 3804W        W19938  17.326  18.290  12.575  0.0162  0.0628  0.2634
 3805W        W19939   8.071   5.014  11.546 -0.0441 -0.2089  0.1233
 3806W        W19940   6.143   2.465   4.972  0.3247  0.1775  0.3142
 3807W        W19941   8.441  12.737   5.378 -0.2138  0.0482  0.1624
 3808W        W19942  14.101   7.447  13.919  0.0076  0.3965 -0.2137
 3809W        W19943   0.246   2.934   0.299  0.1124  0.1550 -0.1305
 3810W        W19944   0.650   2.079  14.692 -0.1367  0.0028 -0.0498
 3811W        W19945  15.087   9.485  14.759 -0.0156  0.2160  0.1301
 3812W        W19946   6.210   7.377  11.521  0.2095  0.1666  0.1063
 3813W        W19947   6.408   9.391  12.630  0.0647 -0.2408  0.0126
 3814W        W19948  15.873   6.002  11.112  0.0243 -0.1724 -0.0784
 3815W        W19949  13.226   8.456  12.239  0.0281  0.3202  0.0505
 3816W        W19950   0.436   8.019   4.764  0.2415  0.1343 -0.0969
 3817W        W19951  18.220  15.979  15.240  0.0660  0.0354 -0.0846
 3818W        W19952  10.216  12.470  12.826  0.2335  0.2251 -0.0560
 3819W        W19953  11.885   3.057  15.280  0.0667 -0.2191  0.0690
 3820W        W19954   9.276   6.258   2.011  0.1990 -0.1085  0.0648
 3821W        W19955  13.970   2.771  12.965  0.0619 -0.1388 -0.0678
 3822W        W19956   9.688   8.326  13.820  0.1979 -0.2494  0.0701
 3823W        W19957  17.097   6.525  14.979  0.1547  0.0600 -0.1546
 3824W        W19958   2.195  10.800  10.403 -0.3643 -0.2381  0.1384
 3825W        W19959   7.345  14.243  15.638 -0.2277 -0.1934  0.0527
 3826W        W19960   5.619  11.152   4.472  0.2553  0.2359  0.0227
 3827W        W19961  14.168  11.653  11.086 -0.2709 -0.0167  0.2845
 3828W        W19962   4.648   6.940   2.472 -0.2142  0.2138  0.0316
 3829W        W19963   9.868   7.969   1.068  0.1044 -0.1106  0.3076
 3830W        W19964   8.016   7.998   0.092 -0.2730  0.1820 -0.0085
 3831W        W19965   1.330  11.430   2.818 -0.0496 -0.3303  0.0237
 3832W        W19966  16.597  12.627  15.313  0.1495 -0.0772  0.0142
 3833W        W19967   4.821  18.243   4.100  0.1464  0.0421 -0.2908
 3834W        W19968   0.387   7.885  14.975 -0.0455 -0.2855  0.0529
 3835W        W19969   9.876   2.592   5.062  0.0307 -0.0811  0.0931
 3836W        W19970   3.348  11.482  14.708 -0.0608 -0.1242  0.2274
 3837W        W19971   7.972  12.289   0.822  0.3353  0.1190 -0.1045
 3838W        W19972   0.343  11.558  12.920 -0.2316 -0.0267 -0.0187
 3839W        W19973  15.823  16.559  13.858  0.1001 -0.0082  0.0368
 3840W        W19974  17.996  17.390   0.600  0.0431  0.2939 -0.3110
 3841W        W19975  16.874   6.782  14.436  0.4293 -0.0157 -0.1724
 3842W        W19976  15.418  18.263   4.841 -0.2240  0.3174 -0.2442
 3843W        W19977   2.643  17.930  12.470  0.1486  0.2252 -0.1382
 3844W        W19978  11.787  14.159   3.113  0.2052  0.0492  0.0918
 3845W        W19979  18.193   9.927  14.247  0.0011  0.2301 -0.1187
 3846W        W19980  16.871   8.145  11.058 -0.2771 -0.0698 -0.2765
 3847W        W19981  18.209  11.512   2.189  0.1744 -0.0457 -0.0342
 3848W        W19982   3.428  11.074   1.287  0.0998 -0.1276  0.1420
 3849W        W19983   7.475   3.825  13.169  0.2043 -0.1264 -0.1590
 3850W        W19984   6.355  10.710   3.037 -0.2541  0.1134  0.1202
 3851W        W19985  14.880   1.082  12.296 -0.1317 -0.1372 -0.1828
 3852W        W19986  15.645   9.956   3.417  0.2822  0.4370 -0.0447
 3853W        W19987   2.695   7.554  14.214 -0.0724  0.0074  0.2351
 3854W        W19988   8.105   4.791  12.456  0.2070  0.4367  0.0912
 3855W        W19989  14.501  11.331   5.691  0.1927  0.1798  0.0534
 3856W        W19990   7.654   4.685   5.103  0.1255  0.3482  0.1605
 3857W        W19991  12.463  14.080   4.384 -0.1742  0.2131 -0.0622
 3858W        W19992  17.295   5.570  11.255 -0.0842 -0.2237  0.0704
 3859W        W19993   6.805   0.993   1.511 -0.1088 -0.3339  0.2164
 3860W        W19994  12.600   6.242   4.283  0.0279 -0.0016 -0.0179
 3861W        W19995  10.244  14.439   5.534  0.1563  0.0161 -0.0495
 3862W        W19996   8.725  16.694  11.668  0.1267 -0.2150 -0.1536
 3863W        W19997  11.236   3.466  13.718 -0.0501 -0.1086 -0.0747
 3864W        W19998  10.732  11.556  13.108 -0.1585  0.1062  0.0151
 3865W        W19999  10.037  10.467  11.202 -0.3111 -0.1103 -0.1006
 3866W        W20000   3.570  10.754   1.727 -0.1770 -0.1166 -0.1875
 3867W        W20001  10.594  10.030  14.189  0.0208  0.1259  0.0738
 3868W        W20002  14.815  13.495   4.510  0.1419  0.3608 -0.1777
 3869W        W20003  17.058  16.753   2.140 -0.0810 -0.2456  0.1238
 3870W        W20004   7.805   8.221   0.636  0.1862 -0.0597  0.2132
 3871W        W20005   0.299   8.558  12.447  0.1432 -0.0754 -0.1089
 3872W        W20006  15.890   5.716  15.849 -0.0621  0.0568 -0.1931
 3873W        W20007   2.524  18.132  10.846  0.0193  0.2295  0.0165
 3874W        W20008   2.127   7.805   3.570  0.1851  0.1878 -0.1137
 3875W        W20009   0.242   6.122  14.083  0.1872 -0.1146  0.1860
 3876W        W20010   3.608   3.771   0.681 -0.0273 -0.2271 -0.1691
 3877W        W20011   7.592  17.232  12.834 -0.0046 -0.0674  0.0267
 3878W        W20012   0.824   3.879  13.979  0.1454 -0.1479 -0.2109
 3879W        W20013   0.849   7.468   2.080 -0.1326  0.2456 -0.3096
 3880W        W20014   0.559   8.180  12.754 -0.0639  0.1965  0.0747
 3881W        W20015   8.304   9.876   2.432 -0.0947  0.0587  0.0626
 3882W        W20016  10.075  14.133   3.914 -0.0382 -0.1178  0.2787
 3883W        W20017  11.038  11.070  12.097 -0.0353  0.0341  0.3179
 3884W        W20018   2.587  13.095   4.229  0.3176 -0.3417 -0.2025
 3885W        W20019  12.307   5.900   1.685  0.1824  0.4909 -0.0356
 3886W        W20020   0.816  10.199   3.202 -0.0431 -0.4949  0.3323
 3887W        W20021  16.473   1.197   1.990 -0.1745  0.3459 -0.0459
 3888W        W20022   3.023   4.030  14.995 -0.0601  0.0852 -0.0506
 3889W        W20023  13.147   5.584  15.511  0.1376  0.3624 -0.0194
 3890W        W20024  13.813  16.942  15.652  0.0862  0.0851 -0.3493
 3891W        W20025   4.588   9.127   5.490  0.2806 -0.0009  0.3539
 3892W        W20026   2.885   4.049   5.120  0.3201  0.2026  0.0616
 3893W        W20027  14.413  13.711   4.953 -0.0164 -0.2304 -0.1105
 3894W        W20028   5.118  11.144   2.341 -0.1318  0.0118 -0.1363
 3895W        W20029   2.453   5.068   0.616 -0.0735  0.0216  0.1240
 3896W        W20030  10.400   0.688  13.985  0.0824  0.0657  0.2366
 3897W        W20031  18.252  18.081  12.642 -0.1990  0.1647 -0.2462
 3898W        W20032  12.038   2.302   0.564  0.3594 -0.4402 -0.3434
 3899W        W20033  10.055   7.829  11.395  0.2259 -0.2635  0.0679
 3900W        W20034  15.671  16.489  11.413  0.0865 -0.0978  0.1582
 3901W        W20035  15.600  11.092   2.886  0.0966  0.1830  0.3171
 3902W        W20036   4.518   4.996  11.604 -0.1606 -0.0695 -0.1154
 3903W        W20037   6.294  15.839   3.195  0.2499 -0.0026 -0.2807
 3904W        W20038  13.664   9.028  15.666  0.2600 -0.0906 -0.0578
 3905W        W20039   5.512   7.960  11.393 -0.0413 -0.1843  0.3766
 3906W        W20040   1.524   8.371  13.003  0.3176 -0.0107 -0.2599
 3907W        W20041  10.964   3.569  12.100 -0.0239  0.0460 -0.0637
 3908W        W20042   8.069  11.390   4.854  0.2121  0.3733  0.2289
 3909W        W20043   2.856  18.304  10.447 -0.1654  0.2064 -0.2085
 3910W        W20044  14.094  15.079  12.146 -0.1553 -0.2074  0.3164
 3911W        W20045   9.321   5.506  13.910  0.1251 -0.1247  0.1363
 3912W        W20046   5.018   8.320  15.514 -0.2327  0.1131  0.1070
 3913W        W20047  17.796  13.313   3.761  0.1094 -0.2601 -0.3556
 3914W        W20048   5.448   1.372  15.584  0.1533 -0.0983  0.1509
 3915W        W20049  17.905   8.753  13.661 -0.0482 -0.1182  0.2800
 3916W        W20050   6.698  17.560  13.837 -0.3182  0.0480  0.0038
 3917W        W20051   7.350  17.496  14.224 -0.1929  0.0929 -0.0054
 3918W        W20052  16.080   8.984   1.408 -0.1084 -0.2209 -0.3498
 3919W        W20053   4.537  16.246  11.913 -0.1489  0.1980  0.0659
 3920W        W20054   0.718   9.972  13.184 -0.1868 -0.0714  0.0421
 3921W        W20055   4.104   0.063  14.919 -0.0839 -0.4296  0.0740
 3922W        W20056  16.352   7.284   2.424 -0.3189 -0.1818  0.0203
 3923W        W20057  13.303   6.801   3.303  0.0992  0.3541  0.1539
 3924W        W20058   4.625   1.791  13.984 -0.1557  0.0999  0.1645
 3925W        W20059  16.284   9.531   1.253  0.1629  0.1319 -0.1125
 3926W        W20060  12.288  15.486  11.713  0.1118 -0.1699  0.3052
 3927W        W20061   3.658  13.557   4.113  0.0482 -0.2763  0.0883
 3928W        W20062   4.570  12.079  12.446 -0.0585  0.2435  0.2721
 3929W        W20063  18.306  10.067  11.483 -0.0390  0.1811  0.1943
 3930W        W20064   8.092   1.891   2.266  0.0866  0.2607  0.0870
 3931W        W20065  10.482   5.696   0.029 -0.0659  0.1236 -0.0413
 3932W        W20066  18.011  10.651  12.993  0.1469  0.1813 -0.3646
 3933W        W20067  10.084  14.962  12.857 -0.0189 -0.0157 -0.1206
 3934W        W20068  10.318   1.061  15.683  0.2418  0.1997  0.0908
 3935W        W20069  13.918  18.099   4.799 -0.1351  0.3204  0.1048
 3936W        W20070  16.293  12.249  10.573  0.1335 -0.3528  0.0921
 3937W        W20071  10.623  14.672   5.014  0.3563 -0.0264 -0.1405
 3938W        W20072  10.441  14.526   3.679  0.2069  0.1516  0.4017
 3939W        W20073   6.455  12.018  13.402 -0.1229 -0.1084  0.1257
 3940W        W20074  15.029   4.776   5.180 -0.1457 -0.0544  0.4105
 3941W        W20075   6.061   2.372  14.751  0.0160  0.1954 -0.2010
 3942W        W20076   5.580   8.882  12.833  0.1468  0.1339  0.0124
 3943W        W20077  18.215  17.929  13.932  0.2255 -0.0131  0.0946
 3944W        W20078   4.035   2.982   0.759  0.0750 -0.0933  0.0882
 3945W        W20079   4.041  11.433   5.264 -0.1206 -0.2557 -0.2006
 3946W        W20080   3.102  12.491  14.984 -0.1866 -0.2628 -0.1183
 3947W        W20081   3.377  10.511   1.311 -0.1019 -0.0460  0.1538
 3948W        W20082   4.629   8.149  15.733  0.3538  0.2339  0.1457
 3949W        W20083   3.979  12.828  11.689  0.0321  0.2469  0.1282
 3950W        W20084   5.265  10.276   1.356 -0.0897  0.0373  0.0482
 3951W        W20085   8.522   1.967   1.831  0.1114 -0.2063 -0.2042
 3952W        W20086   9.546   7.187  14.644 -0.0356  0.1875 -0.0189
 3953W        W20087  16.699   3.770   5.635 -0.1088 -0.1870  0.0489
 3954W        W20088  10.228   5.587  11.844  0.1289  0.0335 -0.1256
 3955W        W20089  16.152   3.585  10.342 -0.1089 -0.0547  0.0572
 3956W        W20090   4.837   7.022  13.033 -0.1563  0.1665 -0.2005
 3957W        W20091   2.841   5.021   1.930  0.1776 -0.0721 -0.1248
 3958W        W20092   3.980  13.082   4.074  0.1810 -0.0554  0.0364
 3959W        W20093   2.245  11.966  11.137 -0.0900 -0.3328 -0.0609
 3960W        W20094  17.088   0.387  11.941  0.0331  0.1855 -0.1111
 3961W        W20095   3.651  15.626   3.314  0.1634 -0.1782  0.2116
 3962W        W20096   2.134   3.962   0.251  0.0244  0.0624 -0.1857
 3963W        W20097   3.098  11.653   3.144  0.2148 -0.1638 -0.1638
 3964W        W20098  12.740   5.990  10.990 -0.2027 -0.1876 -0.0044
 3965W        W20099   3.232  13.895  11.145 -0.4662  0.1629 -0.0365
 3966W        W20100   9.057   8.729   0.015  0.1750 -0.0927 -0.1081
 3967W        W20101   6.861   5.739  13.121 -0.0110 -0.1071 -0.1851
 3968W        W20102   5.122   9.997  12.379 -0.0191 -0.0577 -0.2703
 3969W        W20103   5.793   3.310   0.497  0.0291 -0.0466  0.0798
 3970W        W20104  15.835   3.279  15.754  0.0538 -0.2062  0.1421
 3971W        W20105  17.560  10.717   4.274  0.0577  0.1108 -0.0662
 3972W        W20106  13.578   4.741   1.014 -0.2068  0.1341  0.1757
 3973W        W20107   0.035  18.194  13.541 -0.1272 -0.0912  0.0633
 3974W        W20108  17.889  13.602   0.495 -0.3408 -0.0735 -0.0101
 3975W        W20109  13.337  14.649  13.117 -0.4581 -0.1289 -0.0241
 3976W        W20110   7.959   0.694   1.154 -0.2231 -0.1240 -0.3704
 3977W        W20111   6.503   8.721   2.037 -0.0521 -0.0483 -0.0112
 3978W        W20112  17.287  15.692   3.063 -0.1097 -0.0354  0.3886
 3979W        W20113   9.409  17.966  14.068 -0.0652  0.1754 -0.2875
 3980W        W20114   0.067  18.284  14.047  0.1871 -0.2639  0.3247
 3981W        W20115   1.006   6.414  10.652  0.1025 -0.2364 -0.3472
 3982W        W20116  15.612  13.213   4.036  0.2747  0.2873  0.2021
 3983W        W20117  15.854  15.345   1.399  0.0134 -0.1599  0.1720
 3984W        W20118  16.004   9.787   3.829  0.2572 -0.0083 -0.2320
 3985W        W20119   4.360   0.135  13.962 -0.1765 -0.0268 -0.0684
 3986W        W20120   6.809   8.469   1.526 -0.0858 -0.1241  0.0402
 3987W        W20121  16.367   3.176   3.335 -0.0209  0.3780 -0.2056
 3988W        W20122  12.187  11.003  15.710  0.1298 -0.0829 -0.2450
 3989W        W20123   5.122  11.253   5.267  0.2761  0.1399  0.2698
 3990W        W20124  11.377   8.415   0.268  0.0304 -0.0005 -0.0833
 3991W        W20125   4.379   8.421  12.881 -0.0523  0.0818 -0.4783
 3992W        W20126   6.393   3.209  14.178  0.3639  0.4249  0.1190
 3993W        W20127   4.087   4.797   3.022 -0.1952  0.0235  0.2917
 3994W        W20128   0.232   4.760   2.054  0.0698  0.0810 -0.2132
 3995W        W20129  12.853  12.023  12.870 -0.2870  0.1978 -0.1334
 3996W        W20130   7.483   7.515   2.443  0.0108  0.0347 -0.0403
 3997W        W20131  17.585  14.812   4.128 -0.2383  0.1324 -0.3510
 3998W        W20132  12.359   6.867   4.389 -0.1292  0.2440 -0.2008
 3999W        W20133   0.334   3.948   0.717  0.0803  0.0598 -0.2376
 4000W        W20134   0.680  17.292   2.183  0.0194  0.1754 -0.0047
 4001W        W20135   5.757   1.587  15.302 -0.2500 -0.1206  0.0991
 4002W        W20136  15.071   0.190  14.934 -0.0882 -0.0185 -0.3949
 4003W        W20137  17.928   4.481  10.190 -0.0604  0.0147 -0.0380
 4004W        W20138  11.053  14.340   1.442 -0.0100 -0.2051 -0.1433
 4005W        W20139  11.822   4.579   0.586  0.0295 -0.0303 -0.0089
 4006W        W20140   2.208   1.572   0.946 -0.1272 -0.2201  0.3502
 4007W        W20141   0.544   3.092   4.321  0.0265  0.2508  0.0667
 4008W        W20142  17.495   6.238  14.743  0.0915 -0.1961  0.1265
 4009W        W20143  10.511   4.793   5.203 -0.0675 -0.1403  0.0368
 4010W        W20144  17.044   9.606   4.594 -0.2061  0.0560  0.0133
 4011W        W20145   8.073  11.152   5.377 -0.0995  0.1948 -0.2426
 4012W        W20146   5.909  10.014   4.164 -0.2659 -0.2172  0.1371
 4013W        W20147  16.417  11.897   6.128 -0.3296 -0.1109 -0.4280
 4014W        W20148   9.756  13.013  15.420 -0.1850  0.1160  0.1381
 4015W        W20149  18.423  16.791  15.421 -0.1938  0.3184 -0.1668
 4016W        W20150  15.879  11.421  11.334  0.0632 -0.2625 -0.0455
 4017W        W20151   6.641   6.944   4.743 -0.0679  0.3485 -0.0440
 4018W        W20152   4.230  12.341   2.434 -0.3285  0.1614 -0.0430
 4019W        W20153  17.828   1.672  15.386 -0.0640  0.1215  0.0449
 4020W        W20154  12.053   0.736   4.811  0.0177 -0.1837  0.1920
 4021W        W20155  16.155  13.967  15.446  0.0022  0.0975 -0.3444
 4022W        W20156  15.325   6.162  13.448 -0.0949  0.0000  0.0398
 4023W        W20157   1.998  14.063  12.501  0.1561 -0.1218 -0.2679
 4024W        W20158   4.257   1.485   5.102 -0.3160 -0.2468 -0.0567
 4025W        W20159   2.686  18.319  11.232 -0.1705  0.2423 -0.1675
 4026W        W20160  12.262   9.842   4.866  0.0507 -0.1416 -0.1012
 4027W        W20161   2.259   5.444   5.572  0.0981  0.0033  0.1616
 4028W        W20162  15.623   7.867   5.293 -0.0027 -0.1258 -0.0273
 4029W        W20163   9.957  11.879   3.578  0.1537  0.1153 -0.3452
 4030W        W20164   6.298   7.956  14.381 -0.0755 -0.0585 -0.0618
 4031W        W20165   4.838   9.852   0.404  0.1953  0.2152  0.1820
 4032W        W20166  18.403   9.686   1.140 -0.0424 -0.1186 -0.1303
 4033W        W20167   5.743  14.944  14.110 -0.0853 -0.2124 -0.1803
 4034W        W20168   7.862   0.690   3.352  0.0743 -0.1352 -0.2094
 4035W        W20169   9.442  14.340  15.785  0.1376  0.0261 -0.2616
 4036W        W20170   8.014  17.436  13.469  0.0846  0.0927 -0.1046
 4037W        W20171  13.680   4.818  11.059 -0.1318 -0.0797 -0.2857
 4038W        W20172  12.528  16.138   2.965  0.0232 -0.1847  0.2626
 4039W        W20173  12.174   5.219  11.351  0.0499  0.1059 -0.1091
 4040W        W20174  17.081   1.992  13.930  0.0444 -0.2329  0.1276
 4041W        W20175  13.004   9.866  14.329  0.0037  0.2436 -0.1614
 4042W        W20176   8.154   8.193   3.254 -0.3297  0.0709  0.1232
 4043W        W20177  12.280   0.795  11.986 -0.0695 -0.2219 -0.2833
 4044W        W20178   3.803   4.898  10.951  0.0285 -0.1639  0.1564
 4045W        W20179  13.881  10.259  12.268 -0.2365 -0.2194  0.1072
 4046W        W20180  14.152  16.138   1.398 -0.3228 -0.1903 -0.0607
 4047W        W20181   8.209  10.798   4.258 -0.0056  0.0659 -0.2624
 4048W        W20182   5.465   0.365   1.194 -0.1987  0.4657  0.0691
 4049W        W20183   4.025   3.611  11.037  0.3284 -0.0480 -0.1052
 4050W        W20184   2.987   2.178  12.144  0.0175 -0.0445  0.1341
 4051W        W20185   6.369  11.777   5.088  0.1224 -0.2454 -0.2702
 4052W        W20186  15.491  12.631  12.868 -0.1503 -0.0378  0.0298
 4053W        W20187   9.204   2.841  15.410 -0.1841  0.4245 -0.2859
 4054W        W20188   6.204   2.236  11.362 -0.2223  0.1993 -0.1118
 4055W        W20189  13.699  11.271  12.332  0.0050  0.0740 -0.2956
 4056W        W20190  14.683  12.499  15.875  0.1804 -0.0878  0.0309
 4057W        W20191  12.672   5.118   0.818 -0.1266 -0.0708  0.0221
 4058W        W20192   0.888  13.987   5.169 -0.0659  0.5051  0.0703
 4059W        W20193  14.549   7.160   2.394 -0.1136 -0.1971 -0.1058
 4060W        W20194  14.601  17.522  12.801 -0.5322  0.2190  0.1925
 4061W        W20195   2.100   0.447   6.051 -0.0882 -0.1135 -0.3178
 4062W        W20196   2.382  10.060   1.088 -0.2641 -0.0676  0.0020
 4063W        W20197   6.016   0.320   2.038  0.3564 -0.2668 -0.2283
 4064W        W20198   7.916   5.588   1.497 -0.0888  0.1241 -0.5122
 4065W        W20199   9.347   9.853  11.296 -0.1316  0.0731  0.0059
 4066W        W20200   6.496   9.743   5.692 -0.4171 -0.1908  0.1056
 4067W        W20201   8.139   0.966  15.624  0.2668  0.2683  0.0971
 4068W        W20202   8.450  13.693  12.189 -0.0903  0.2366 -0.0461
 4069W        W20203  11.217  12.824   4.661 -0.2058  0.3502 -0.1235
 4070W        W20204   2.232  15.736  11.120  0.0350  0.2457  0.0272
 4071W        W20205  12.828   9.098  15.178  0.0945 -0.0259  0.0476
 4072W        W20206   7.127   6.671   1.921  0.1809  0.1213 -0.2148
 4073W        W20207   6.836   1.759  14.390 -0.3834  0.0227  0.0348
 4074W        W20208  14.172   3.397  13.757 -0.0504 -0.0247 -0.2936
 4075W        W20209   4.822  11.163  15.481 -0.1444 -0.0639 -0.1914
 4076W        W20210   6.877   8.569  15.801 -0.0960  0.0079  0.0986
 4077W        W20211  15.854  17.861   2.683  0.3363 -0.1425 -0.0161
 4078W        W20212  12.743  16.732  15.807  0.2058  0.0937  0.0702
 4079W        W20213  14.286   9.568   0.270  0.0894 -0.0937  0.2421
 4080W        W20214  11.911  10.670   0.047  0.0045  0.4047 -0.1665
 4081W        W20215   9.096   9.496   3.464  0.0312 -0.3509 -0.0936
 4082W        W20216   3.223   6.740  13.924  0.0750  0.3778  0.0147
 4083W        W20217   2.592  14.630   2.173  0.1244  0.0431 -0.3232
 4084W        W20218   3.042   4.170   4.600 -0.2015 -0.0795  0.3940
 4085W        W20219   8.864  12.067   4.053  0.0526  0.1490  0.2735
 4086W        W20220  16.652   8.450   2.907 -0.2906  0.1671 -0.1239
 4087W        W20221   9.447  10.600  15.247 -0.1361 -0.1787  0.1766
 4088W        W20222  13.177  14.656  14.976 -0.0732  0.0100  0.2523
 4089W        W20223   4.739  17.768  13.750  0.2111  0.3712  0.0315
 4090W        W20224   9.349   2.138  12.291  0.0411 -0.1568  0.0703
 4091W        W20225  10.108   3.892   3.242 -0.0840  0.0759 -0.0864
 4092W        W20226  12.545   0.674   4.814  0.0966 -0.4118  0.0916
 4093W        W20227   5.465   5.563   3.946 -0.3055 -0.1044 -0.1942
 4094W        W20228  16.078  13.882   0.882 -0.0193 -0.0830  0.2033
 4095W        W20229   0.542  15.699   2.995  0.1819 -0.0182  0.0285
 4096W        W20230   5.696   6.035   1.143 -0.1906 -0.0788  0.1674
 4097W        W20231  11.235  16.550  14.234 -0.3549 -0.0889  0.1305
 4098W        W20232   3.583   3.079   4.221 -0.1435 -0.0441  0.3297
 4099W        W20233   6.210   2.962   5.082 -0.2194  0.3772  0.1238
 4100W        W20234  14.839   4.261   4.094  0.1450 -0.2619 -0.1943
 4101W        W20235   4.937   5.080  11.905  0.0065  0.1681 -0.1541
 4102W        W20236   8.896  12.215  10.964  0.0344  0.3026  0.3609
 4103W        W20237   9.834  11.427   2.051  0.2217  0.0194  0.1271
 4104W        W20238   2.015   7.165  11.187 -0.1138  0.2842  0.4756
 4105W        W20239   6.952   5.854  11.422  0.0464 -0.0897 -0.1715
 4106W        W20240   9.419   3.403   3.074  0.0472  0.2849  0.4862
 4107W        W20241   5.265  10.164  13.797  0.1104 -0.0307  0.1344
 4108W        W20242   7.127  17.538   5.136  0.0099 -0.0781 -0.2052
 4109W        W20243  14.206  12.258  13.132 -0.0254  0.0141 -0.3062
 4110W        W20244  15.253   8.702  12.893  0.0261  0.1127 -0.1035
 4111W        W20245   8.709  17.119   5.382 -0.0372  0.1749 -0.0047
 4112W        W20246   1.974  13.801  11.555 -0.0486 -0.2312  0.2056
 4113W        W20247  12.405   6.673  11.417 -0.3001  0.3111 -0.0791
 4114W        W20248  10.240   9.152   1.734 -0.1490 -0.0015 -0.1201
 4115W        W20249  17.546   4.770  14.292 -0.1702  0.1015 -0.1412
 4116W        W20250   4.684   9.346  10.934 -0.1095 -0.0649  0.1556
 4117W        W20251  14.635   8.370   4.181 -0.2129  0.1000  0.0260
 4118W        W20252   1.903   6.100  13.310  0.1712  0.1059  0.0123
 4119W        W20253   8.798   0.216  11.658  0.2336 -0.1763  0.2943
 4120W        W20254   1.159   2.903  13.103  0.0875  0.4163 -0.0123
 4121W        W20255   9.830   3.917   3.643 -0.0245 -0.2718 -0.1565
 4122W        W20256   3.434  17.201  12.192  0.0445  0.2318  0.0178
 4123W        W20257  11.247   0.975   5.612  0.0410  0.3495  0.3074
 4124W        W20258  14.057   7.849  12.951  0.2439 -0.0299  0.0373
 4125W        W20259  13.052   8.540  15.250  0.0293 -0.2228 -0.2231
 4126W        W20260   9.340  12.459   5.772 -0.0482  0.1723 -0.2343
 4127W        W20261  16.903   9.424   2.890 -0.3473  0.0539  0.0104
 4128W        W20262   8.045  12.200  15.153  0.1075  0.1332  0.2614
 4129W        W20263  10.122  16.257   4.487  0.1877  0.0724 -0.2620
 4130W        W20264   0.273  15.778   3.499  0.4224  0.0885  0.0140
 4131W        W20265  17.339   6.900  12.419 -0.1954 -0.0693 -0.1343
 4132W        W20266   3.571   6.734  13.196 -0.2885 -0.0093  0.2839
 4133W        W20267   0.771  12.439   2.589  0.2774 -0.2005  0.2820
 4134W        W20268   8.912   3.415  13.974  0.1410  0.0174 -0.0891
 4135W        W20269   3.093  12.809   4.064 -0.1067 -0.0315  0.1759
 4136W        W20270  12.797  14.793   2.502  0.0921  0.0864  0.1076
 4137W        W20271  17.333  18.364   4.255  0.2305 -0.2940  0.0931
 4138W        W20272  10.784   5.017   2.941  0.3707 -0.0793  0.0711
 4139W        W20273   6.506   6.607   1.786  0.0609  0.0902 -0.1940
 4140W        W20274   0.081  13.706  13.545  0.0360  0.0398  0.0317
 4141W        W20275  12.887  11.005  12.296 -0.2099 -0.0389 -0.0143
 4142W        W20276  10.590  15.009  15.555  0.0059 -0.2115  0.2045
 4143W        W20277   4.986   6.643   3.855  0.1439  0.0583  0.0857
 4144W        W20278  14.967   2.397  11.279  0.3540  0.1648  0.0429
 4145W        W20279   2.748   6.999  10.702 -0.1379 -0.4180 -0.1815
 4146W        W20280   4.422  16.979   0.383 -0.0022  0.1690  0.0801
 4147W        W20281  13.908   2.540  11.654 -0.1687  0.1182 -0.2015
 4148W        W20282  16.314  17.318  11.730 -0.0297  0.2172  0.0236
 4149W        W20283  12.411   3.602   3.486  0.0365  0.4112 -0.1756
 4150W        W20284   7.585  16.387  12.732  0.0920  0.0757 -0.0060
 4151W        W20285   2.263   9.924   0.608  0.0814  0.0473  0.0887
 4152W        W20286   8.252   0.336   3.440  0.1208  0.0260  0.0997
 4153W        W20287   7.531   2.452  11.927  0.5290  0.3765 -0.1621
 4154W        W20288   2.214   2.123   1.762  0.0249  0.0784  0.1138
 4155W        W20289   2.519   9.703   0.197  0.3358  0.1201  0.0460
 4156W        W20290   4.740  12.474  12.157  0.1471 -0.1673  0.2437
 4157W        W20291   5.895  14.389   2.000  0.1042  0.0560 -0.0230
 4158W        W20292   7.982  17.396   1.998 -0.2035  0.1070 -0.2369
 4159W        W20293   8.974   4.754  13.608  0.1075  0.1203  0.0272
 4160W        W20294   7.654   0.631   3.777 -0.2386 -0.1308  0.3938
 4161W        W20295  10.192  13.997  11.977 -0.5833 -0.0865  0.0231
 4162W        W20296  18.217   4.974   3.191 -0.1937 -0.2689  0.0856
 4163W        W20297  13.375   4.683  13.648  0.0943  0.3984  0.1710
 4164W        W20298  16.429  16.289   4.530  0.0453 -0.2163 -0.1453
 4165W        W20299   1.551   6.711   1.246  0.2485  0.2855  0.0181
 4166W        W20300  14.026   2.596  12.533 -0.0475  0.0531  0.0872
 4167W        W20301   4.018  17.062  13.674  0.2062 -0.0707 -0.1581
 4168W        W20302  18.385   0.275  12.851 -0.1321 -0.0888  0.0146
 4169W        W20303   4.690  17.320   3.848  0.3607 -0.0711 -0.1488
 4170W        W20304   5.352   8.668   2.990 -0.1344  0.0406  0.1492
 4171W        W20305  13.156  14.115  11.928 -0.0148 -0.1692 -0.1589
 4172W        W20306  15.714  10.178   4.087  0.1086 -0.0102  0.2622
 4173W        W20307  18.375   4.571  13.068 -0.0021  0.0206  0.6029
 4174W        W20308   1.105   8.712  13.304 -0.1683 -0.1163 -0.2970
 4175W        W20309  11.750  16.473   1.622  0.0808  0.1810  0.0152
 4176W        W20310  14.777   5.944   2.808  0.1601  0.0237 -0.0382
 4177W        W20311   7.235  10.267  14.083  0.2047  0.3252 -0.0467
 4178W        W20312   7.997  15.573  15.218  0.0927 -0.1863 -0.0267
 4179W        W20313  14.281   0.730  10.491  0.5825 -0.1103  0.4177
 4180W        W20314   4.053  16.276   4.480  0.2153 -0.2990 -0.1024
 4181W        W20315   3.372   7.258  13.090 -0.1146  0.3119  0.1558
 4182W        W20316  11.645  17.341   5.839  0.0404 -0.0696  0.0777
 4183W        W20317  11.007   8.760   5.278 -0.0358  0.1570 -0.3004
 4184W        W20318  10.887  11.881  14.425  0.0469  0.0824 -0.2578
 4185W        W20319  10.763  17.692  15.475  0.2752 -0.0490 -0.0721
 4186W        W20320  14.711   6.080   4.730 -0.4024  0.0031 -0.0767
 4187W        W20321  16.442   3.849   4.066 -0.0704 -0.2167  0.0565
 4188W        W20322  18.285   3.074  15.852  0.2828 -0.0603 -0.1152
 4189W        W20323  14.593   4.578  13.830  0.1618 -0.0751  0.0329
 4190W        W20324  16.121   3.519  11.738  0.0739  0.1369  0.3891
 4191W        W20325  14.157   9.616  11.181  0.1058  0.1035  0.2260
 4192W        W20326   2.189  14.569   3.761 -0.0446 -0.1874 -0.1739
 4193W        W20327   1.409  10.900  12.586  0.2243  0.1341 -0.0126
 4194W        W20328  15.247   2.450  11.953 -0.0452 -0.1738 -0.2212
 4195W        W20329   5.931   2.262  12.401 -0.3161 -0.2648  0.0217
 4196W        W20330  18.423  11.307   0.774  0.3085 -0.0273 -0.0851
 4197W        W20331  11.081  10.183  11.803  0.1302 -0.0211  0.2692
 4198W        W20332  14.283  10.467   2.211  0.2996 -0.2155  0.3017
 4199W        W20333  10.465   0.068   4.233 -0.2923  0.0717  0.0078
 4200W        W20334  11.505   1.555  11.180 -0.0729 -0.0088 -0.2136
 4201W        W20335  11.611  16.794   5.729 -0.3665 -0.1081 -0.1648
 4202W        W20336   9.397  18.036   0.494  0.1820 -0.1098  0.0298
 4203W        W20337  11.696   7.794  13.783 -0.2492  0.2738  0.0321
 4204W        W20338  11.897  17.572   2.554 -0.1158 -0.2131 -0.0810
 4205W        W20339   3.235   5.016   3.355 -0.1341  0.2358 -0.2208
 4206W        W20340   5.675  11.779   2.759  0.0844 -0.2751 -0.1271
 4207W        W20341  11.849  13.565  15.454  0.0902  0.0697 -0.1894
 4208W        W20342  17.038   1.754  11.703  0.0138 -0.3933  0.2525
 4209W        W20343  14.726  15.903  14.649 -0.0326 -0.0763  0.3292
 4210W        W20344  16.153  14.065  13.991  0.2944 -0.2251  0.2014
 4211W        W20345  11.205   4.824   4.282 -0.0912 -0.0907 -0.0410
 4212W        W20346   6.847   5.970   4.921  0.1439 -0.3735 -0.2818
 4213W        W20347  14.905   0.946  13.676  0.4311 -0.0578  0.0947
 4214W        W20348   0.038   4.110  14.314 -0.0148 -0.1164  0.0151
 4215W        W20349   6.445   2.931   4.615 -0.1389  0.2208  0.1479
 4216W        W20350   0.915   6.167  14.384 -0.0297 -0.0385 -0.2043
 4217W        W20351   8.185  15.094  12.858 -0.3387 -0.1338  0.0048
 4218W        W20352   5.001  15.519   3.191 -0.0585 -0.2107 -0.0662
 4219W        W20353   9.551  15.692   5.805 -0.1250 -0.0225 -0.0337
 4220W        W20354   9.572  17.033  12.786  0.1755 -0.0137 -0.0283
 4221W        W20355  11.193   3.319   5.037 -0.3814  0.3265  0.1461
 4222W        W20356   7.405  11.708  13.029  0.0845 -0.0997  0.0645
 4223W        W20357  15.469  17.711   3.643  0.2754 -0.0208 -0.1977
 4224W        W20358  16.405  10.016   1.108 -0.1439 -0.0626 -0.3407
 4225W        W20359   6.105  10.381   2.064  0.2736 -0.1029  0.2076
 4226W        W20360   7.540  13.815   2.355  0.2514  0.0024  0.0953
 4227W        W20361   6.403  11.175  13.296  0.1001 -0.2957 -0.0718
 4228W        W20362   1.302   1.509  14.153  0.0262 -0.1008  0.1368
 4229W        W20363  17.698   0.941   4.700 -0.1681  0.3242 -0.1056
 4230W        W20364  14.087  14.173  15.639  0.1345 -0.1173 -0.1566
 4231W        W20365   4.986   2.093   5.025  0.0954  0.2697 -0.0559
 4232W        W20366  16.367  11.665  11.133 -0.3208 -0.0845 -0.1215
 4233W        W20367   6.229   5.862  15.024 -0.2352 -0.6365 -0.0596
 4234W        W20368   3.802  11.874   1.166  0.1370  0.1935  0.1423
 4235W        W20369  12.837  10.604  13.556  0.0630  0.1153  0.2765
 4236W        W20370   7.278  10.358   1.579  0.1024  0.3304 -0.1656
 4237W        W20371   4.382   2.543   2.985  0.2889 -0.0770  0.4422
 4238W        W20372   9.942   6.928  13.782 -0.1979 -0.2502 -0.0966
 4239W        W20373   4.450  15.582   2.359 -0.0272  0.2424  0.1924
 4240W        W20374  11.835   3.493   3.015 -0.1377 -0.0134  0.1093
 4241W        W20375   1.997   3.401   2.586 -0.1105  0.0173  0.0306
 4242W        W20376   8.109  15.877   1.927 -0.0793  0.0572 -0.0674
 4243W        W20377  12.912  18.311  10.380 -0.1672  0.0192  0.0667
 4244W        W20378  17.454   9.262   2.193 -0.4143  0.0586 -0.0944
 4245W        W20379  10.563   3.776  14.392  0.2709  0.0196  0.1164
 4246W        W20380   6.551  13.609   2.140 -0.3594 -0.1201  0.0402
 4247W        W20381  17.548  12.374  10.130  0.2007 -0.0087 -0.0200
 4248W        W20382  13.603  13.785  13.720  0.3013 -0.0125  0.0984
 4249W        W20383   8.721   1.742  13.785  0.0577 -0.2329 -0.0597
 4250W        W20384  13.492   8.471   4.867  0.2560 -0.0623  0.1143
 4251W        W20385   0.234   7.488  14.355  0.1140  0.0556 -0.0166
 4252W        W20386  15.280   8.807  12.078 -0.1732  0.3443  0.0598
 4253W        W20387  14.093   6.364   2.013 -0.0401  0.1325 -0.2521
 4254W        W20388   0.215   8.204  15.396 -0.0737 -0.1864  0.2290
 4255W        W20389   5.579  13.363   6.131 -0.0926  0.1475 -0.0948
 4256W        W20390  10.462  17.350   3.393  0.0123  0.0411 -0.0907
 4257W        W20391   1.638  11.771   4.672  0.0125  0.0765  0.0154
 4258W        W20392  13.152   5.962  13.401  0.0739  0.1721  0.0508
 4259W        W20393   7.904  15.230   0.748 -0.0198  0.1522 -0.1616
 4260W        W20394   2.545   0.033  10.012  0.2993  0.2156 -0.1433
 4261W        W20395   9.657  13.722   6.167  0.0362  0.0931 -0.0264
 4262W        W20396  15.083  10.038  13.450 -0.0769 -0.1000  0.0322
 4263W        W20397  11.676   1.634  15.891 -0.0065  0.1730  0.0471
 4264W        W20398   9.026   7.696  12.317 -0.0913  0.0258 -0.0246
 4265W        W20399   5.380   6.337  10.850 -0.1072  0.2649  0.0086
 4266W        W20400  17.147   0.164   0.416 -0.1291  0.2890 -0.2332
 4267W        W20401  13.349   2.725   2.943  0.0355  0.2344 -0.1898
 4268W        W20402  17.578   5.965  11.921 -0.1943  0.2452  0.2133
 4269W        W20403   7.861  12.918  13.662 -0.1743 -0.3289  0.0037
 4270W        W20404   9.918   3.956   1.577  0.0748 -0.1362  0.2028
 4271W        W20405  11.978   1.839   0.476  0.0356 -0.0325  0.0686
 4272W        W20406  11.338  11.365   0.116 -0.2129  0.0842 -0.1390
 4273W        W20407  15.158   4.864  10.925 -0.1230 -0.3045 -0.0803
 4274W        W20408   8.059   8.461   2.420 -0.1699 -0.2661 -0.2834
 4275W        W20409   0.124   3.211   9.793 -0.0398 -0.0611  0.2294
 4276W        W20410  11.113  10.534  12.226  0.3853 -0.0410  0.0731
 4277W        W20411   2.870  13.160   5.577  0.0335  0.0244  0.1524
 4278W        W20412   0.744  16.867   2.573  0.0376  0.1962  0.2832
 4279W        W20413   7.733   3.352   1.762 -0.0202 -0.2850  0.1812
 4280W        W20414   4.257   3.801  12.536 -0.0266  0.1831 -0.3454
 4281W        W20415   4.486   6.948   0.489 -0.2909  0.2112  0.3760
 4282W        W20416  11.528   4.594   5.163 -0.2564  0.0445  0.4260
 4283W        W20417   9.944  13.547  11.901  0.0162 -0.2429 -0.0960
 4284W        W20418  16.586  14.752   3.295  0.0181 -0.2894  0.0954
 4285W        W20419   9.760   9.428   0.895  0.2010 -0.0278  0.1082
 4286W        W20420   1.430   0.212  13.940 -0.3147 -0.4393 -0.3551
 4287W        W20421   2.642  14.758   4.573  0.1420 -0.2733 -0.3422
 4288W        W20422  10.671  17.452  13.421  0.1853  0.0804  0.1525
 4289W        W20423  15.960  14.695  13.746  0.0248  0.2007  0.1931
 4290W        W20424   2.785   2.746   0.298  0.2064 -0.0983 -0.4903
 4291W        W20425  11.948   6.639  11.686 -0.0766 -0.1308  0.0591
 4292W        W20426   3.689  17.514  13.021 -0.0135 -0.1840 -0.2851
 4293W        W20427  17.192  12.621  15.175 -0.0934 -0.2313 -0.1390
 4294W        W20428  16.145  10.085  14.180 -0.2739  0.0684 -0.1624
 4295W        W20429  12.549  17.196  11.718 -0.2953 -0.4232 -0.1601
 4296W        W20430   6.822  15.031  15.678  0.1933  0.0924  0.1636
 4297W        W20431  10.989   6.251  14.190  0.2667 -0.3777 -0.1276
 4298W        W20432  13.503   9.459   3.774  0.4751  0.1824 -0.0715
 4299W        W20433   4.579   3.751  11.418 -0.2987  0.3526  0.0617
 4300W        W20434  17.963  16.685   3.157  0.0073 -0.0087 -0.0239
 4301W        W20435   3.471  11.372   4.472  0.0724  0.1352  0.0610
 4302W        W20436   4.892  16.628   3.377  0.0949 -0.0808 -0.5163
 4303W        W20437   8.102   3.482   0.715 -0.2019 -0.0615  0.0821
 4304W        W20438   2.839  18.095   1.820 -0.0388 -0.0369 -0.1536
 4305W        W20439   9.960   5.084  11.118  0.0725  0.3455 -0.0518
 4306W        W20440   2.507   4.913   4.180 -0.1942 -0.1955 -0.2449
 4307W        W20441  14.377  13.232   1.811 -0.0633  0.0065  0.3913
 4308W        W20442   5.757  12.686  11.648  0.1531 -0.1758 -0.1002
 4309W        W20443  11.795  18.303  11.793 -0.0272  0.3727  0.1040
 4310W        W20444   3.324  11.624  11.011 -0.0514 -0.1682  0.0826
 4311W        W20445   7.849   9.901   3.907  0.1518 -0.0470 -0.0915
 4312W        W20446   0.719  12.854  10.736 -0.3416 -0.0164 -0.2092
 4313W        W20447   2.041  17.466  13.123 -0.1741  0.0897 -0.2648
 4314W        W20448  15.408  17.927   0.612 -0.2459 -0.2600  0.0853
 4315W        W20449  10.104   3.450   4.421 -0.0003  0.0685  0.0574
 4316W        W20450   5.193  11.982   2.685  0.2436 -0.2898 -0.2028
 4317W        W20451  15.630  14.660  12.847 -0.4143  0.3403 -0.1610
 4318W        W20452   5.503   4.532   2.804  0.1131 -0.3392  0.0049
 4319W        W20453  15.722   9.639   4.872  0.2117 -0.0273 -0.0519
 4320W        W20454   4.764   3.202  11.278  0.2924  0.0619 -0.3670
 4321W        W20455   7.806   4.919   3.291 -0.0502  0.1889 -0.1204
 4322W        W20456   3.410   4.900  13.641 -0.0257  0.0879  0.1582
 4323W        W20457  16.269   5.760  14.515  0.1697  0.2022 -0.1887
 4324W        W20458   3.820  12.716  12.146  0.2033 -0.0992  0.1878
 4325W        W20459   5.491   0.586  13.754  0.3022  0.0255 -0.0369
 4326W        W20460   0.983   1.709  14.556  0.1962  0.0120 -0.0615
 4327W        W20461   2.807  12.605   3.323  0.0424  0.0597  0.1401
 4328W        W20462  14.972   0.616   0.919  0.1524 -0.0394  0.3248
 4329W        W20463  17.068   0.875   1.013  0.0513  0.0606 -0.1088
 4330W        W20464   6.476  12.223   3.901  0.0128  0.1215  0.1378
 4331W        W20465  12.307  12.764  13.030  0.0978 -0.2182 -0.0758
 4332W        W20466  14.717  18.094   2.394  0.0035  0.0333  0.0478
 4333W        W20467   5.432   2.232  14.137  0.1992 -0.2166  0.5684
 4334W        W20468   3.460   0.878  14.812  0.0651 -0.1843  0.0436
 4335W        W20469  10.073  10.242   1.938  0.0560 -0.3417  0.2481
 4336W        W20470  18.415   9.386  13.957 -0.1973 -0.2329 -0.1833
 4337W        W20471  15.095   0.071   2.721 -0.2378 -0.0516  0.1916
 4338W        W20472  13.045  12.345  12.482 -0.0328  0.0482  0.3535
 4339W        W20473  17.422  16.364   3.864  0.0941  0.0445 -0.2195
 4340W        W20474   2.290   9.501  12.500  0.0001 -0.2711  0.0825
 4341W        W20475   1.530  18.346   5.373 -0.1678 -0.1588  0.1890
 4342W        W20476  13.703  17.302   5.314  0.2898 -0.3362 -0.1782
 4343W        W20477   1.671   0.170   2.232 -0.2552  0.5012 -0.5422
 4344W        W20478   5.536  16.311  12.971  0.0509 -0.0490  0.1488
 4345W        W20479   0.013   1.011  13.042 -0.4086  0.1557 -0.2261
 4346W        W20480   3.861  15.918   3.733 -0.1958 -0.2353  0.2302
 4347W        W20481   7.839  11.307  15.645  0.3607  0.1936 -0.0237
 4348W        W20482  13.074  11.298  14.215  0.0287  0.2065  0.2394
 4349W        W20483   4.781   8.120  13.954 -0.4320  0.1542 -0.2399
 4350W        W20484   7.078  14.819  14.365 -0.1421  0.5064  0.2373
 4351W        W20485  12.594  13.643  10.614 -0.1359  0.2602 -0.0816
 4352W        W20486   6.902   8.752   0.586 -0.0564 -0.2225  0.0289
 4353W        W20487  12.644  13.088   2.005 -0.2525 -0.0892 -0.0431
 4354W        W20488  15.928   0.033  14.304  0.1882  0.0222 -0.0735
 4355W        W20489   9.484  16.793   5.077 -0.2546  0.3487  0.1349
 4356W        W20490   9.945  12.046   0.558  0.2277  0.0916  0.0973
 4357W        W20491   0.561  17.741  14.540  0.4140  0.0327 -0.1129
 4358W        W20492   2.466  17.696   1.991 -0.1855 -0.0163  0.1641
 4359W        W20493   2.732   8.766   5.177 -0.0436 -0.1454 -0.1028
 4360W        W20494   6.473  12.649   3.599 -0.0522  0.0306  0.1369
 4361W        W20495   5.709   6.895   1.489  0.3538 -0.0971  0.4317
 4362W        W20496  10.557  15.703   1.263 -0.0065 -0.2812  0.1068
 4363W        W20497   8.837  16.336   1.459 -0.0309  0.0992  0.3022
 4364W        W20498   5.747   3.477  14.650  0.1141 -0.1652  0.0675
 4365W        W20499   6.000  12.832   3.586  0.2647 -0.3299 -0.0686
 4366W        W20500   4.484  16.530  14.152 -0.0171 -0.2622 -0.0623
 4367W        W20501   4.923   2.203  12.262  0.2119  0.0589 -0.0912
 4368W        W20502  12.833  17.837  11.625  0.1891 -0.0506  0.0255
 4369W        W20503  13.007   2.197   4.533 -0.0685  0.2137  0.0329
 4370W        W20504   6.881   5.194  13.064  0.0968 -0.1405 -0.2271
 4371W        W20505   9.578   3.053   3.454  0.1211 -0.0807 -0.0842
 4372W        W20506   7.085  14.110  13.262 -0.0276 -0.0202 -0.2128
 4373W        W20507  13.914  11.143  13.648  0.0340  0.1269 -0.1704
 4374W        W20508   3.115   9.542  13.113  0.0499 -0.0091 -0.2622
 4375W        W20509   7.051   5.182  12.534  0.0518 -0.1181  0.0546
 4376W        W20510  17.448   5.972   4.151  0.1091  0.0888  0.2280
 4377W        W20511  15.534   5.800   1.576 -0.0953  0.0276  0.0090
 4378W        W20512   2.244   3.645  14.685  0.1682  0.4872 -0.2548
 4379W        W20513  12.748   5.007  14.812 -0.0709  0.4996 -0.0461
 4380W        W20514  13.220   7.567  14.442 -0.1384  0.2516 -0.2701
 4381W        W20515   4.413   0.734  15.670 -0.1892 -0.1054 -0.0162
 4382W        W20516  16.109  11.338  11.775  0.0481 -0.2054 -0.1672
 4383W        W20517   1.198  13.642  13.213 -0.1773  0.2389  0.2660
 4384W        W20518  14.258   3.052  10.826  0.2531  0.2581 -0.3174
 4385W        W20519   5.643   0.826  13.330  0.0075  0.0423 -0.0307
 4386W        W20520  13.325   7.340   4.468 -0.0092 -0.0385  0.4493
 4387W        W20521   6.977  12.865   2.437 -0.1360  0.1049 -0.0246
 4388W        W20522   5.029  12.973   0.253  0.3140 -0.0654  0.0735
 4389W        W20523   3.987   2.303  15.414  0.1367  0.1869  0.0905
 4390W        W20524   0.963  15.622   1.028 -0.0835 -0.1120 -0.1263
 4391W        W20525   9.521   7.390  13.857 -0.0849 -0.0210  0.0488
 4392W        W20526   0.338   5.169  13.764 -0.0199 -0.0822  0.1656
 4393W        W20527  10.287  10.730  15.743 -0.1677  0.0247 -0.2008
 4394W        W20528  14.984  14.094   2.832  0.0599  0.1992  0.0275
 4395W        W20529   5.246   8.483   3.636 -0.0318 -0.0207 -0.0043
 4396W        W20530   3.546   6.524  14.269  0.1949 -0.2755 -0.2029
 4397W        W20531  15.900  18.103   1.387 -0.0042 -0.0280 -0.1596
 4398W        W20532  10.452   7.262   1.944  0.1230 -0.0783 -0.0863
 4399W        W20533  14.472   1.321   4.214 -0.0941 -0.0100 -0.0660
 4400W        W20534  15.970   8.624  15.420 -0.3261 -0.1122 -0.3158
 4401W        W20535  16.719   5.547   5.208 -0.0798  0.0491 -0.0138
 4402W        W20536   1.053   8.569  15.078  0.0591  0.0492  0.1659
 4403W        W20537  12.822  15.638   4.643 -0.3552 -0.1600 -0.0697
 4404W        W20538  12.318   2.408  12.821 -0.3338  0.1143 -0.1093
 4405W        W20539   0.316  10.619   0.117  0.1049  0.0104 -0.2110
 4406W        W20540   7.153   6.575   5.694 -0.1151 -0.2516  0.0185
 4407W        W20541   2.013   9.744   2.702 -0.1623  0.2902 -0.2811
 4408W        W20542   4.201  17.191   0.758  0.1777 -0.0693  0.2596
 4409W        W20543   8.691  13.283   1.511 -0.1191 -0.1380 -0.0268
 4410W        W20544   1.347  11.994   3.378  0.1515  0.2227 -0.0940
 4411W        W20545  17.636   9.960   1.578  0.0418 -0.2748  0.1288
 4412W        W20546  11.826  13.155   5.273  0.0922 -0.2547  0.3747
 4413W        W20547  17.767   7.805  11.443 -0.2470 -0.1555 -0.0462
 4414W        W20548  15.519  12.581   4.613  0.0411  0.3065 -0.1386
 4415W        W20549   9.712  17.889  12.297 -0.0103 -0.3070 -0.1100
 4416W        W20550  18.281   0.597  13.275  0.1655  0.0919 -0.0550
 4417W        W20551  12.707  15.050   1.013 -0.1693 -0.1124  0.1840
 4418W        W20552   2.245  13.420   0.923 -0.1042 -0.0933 -0.1794
 4419W        W20553  15.415   6.213  14.932 -0.0213 -0.1073  0.1348
 4420W        W20554  17.675  11.412  13.633  0.1073 -0.1845  0.0088
 4421W        W20555   9.330  12.017  15.797  0.1398  0.0996 -0.2390
 4422W        W20556   9.943  14.409  13.362  0.1213  0.1933  0.2569
 4423W        W20557   8.289  17.510  13.095  0.4925  0.0853  0.3240
 4424W        W20558  15.069   9.736   2.949  0.0269  0.0203 -0.1068
 4425W        W20559   1.263   3.586   3.790  0.1333 -0.0360 -0.1189
 4426W        W20560  11.718   6.873   5.209 -0.2337 -0.1174  0.0080
 4427W        W20561  13.983   5.647   3.466  0.0076 -0.1173  0.0459
 4428W        W20562  13.645   9.085  11.537  0.2811  0.1420  0.0598
 4429W        W20563   4.921   4.443  15.430 -0.0021  0.2252 -0.1488
 4430W        W20564  11.003   7.021  10.780  0.0824  0.1516  0.5035
 4431W        W20565   5.946   4.856   2.900 -0.0277 -0.2091 -0.2617
 4432W        W20566  13.177   8.834   0.487  0.0863 -0.0367 -0.0084
 4433W        W20567  12.917  13.160  13.165 -0.3519  0.0073  0.2343
 4434W        W20568   0.564  12.155   3.146 -0.3567  0.0869  0.1113
 4435W        W20569   1.589  11.420   3.778  0.2238  0.3336  0.3818
 4436W        W20570  13.405  16.510   1.814 -0.1585 -0.1142 -0.0498
 4437W        W20571  15.673  12.368   5.620 -0.0301 -0.1338 -0.0417
 4438W        W20572  12.975  11.585   4.641  0.0234 -0.2775  0.1881
 4439W        W20573   5.176   5.807   4.315 -0.2180 -0.2354 -0.3405
 4440W        W20574   5.332  10.448  12.523 -0.1543 -0.0904 -0.0282
 4441W        W20575   2.301   7.585  14.543  0.1208  0.3322 -0.2183
 4442W        W20576   4.206  11.133  10.566  0.0505  0.1520  0.1097
 4443W        W20577   9.511   0.097   4.171 -0.0218 -0.1434 -0.3741
 4444W        W20578   6.483  15.996   5.110 -0.1530  0.0146 -0.0367
 4445W        W20579   2.752   7.542   1.996 -0.0339  0.3902 -0.0361
 4446W        W20580   1.666  10.905   3.843  0.1988 -0.1462 -0.1002
 4447W        W20581  10.796   6.726   4.998  0.2081 -0.2176 -0.3776
 4448W        W20582   7.297  14.136  13.805  0.0128  0.3396 -0.1397
 4449W        W20583   9.468   5.126  15.400  0.0550  0.2023 -0.0617
 4450W        W20584  10.294   1.151  10.926  0.0510  0.1266 -0.0806
 4451W        W20585   9.346  15.628  14.421 -0.0522  0.0795 -0.0954
 4452W        W20586   9.392  12.039   3.254  0.1811  0.0047  0.0986
 4453W        W20587   2.840   8.752   3.273 -0.0175 -0.0054 -0.0949
 4454W        W20588   3.958  10.202   0.017  0.3303  0.0497  0.2724
 4455W        W20589   2.208   5.739  11.813 -0.1695 -0.2106 -0.2042
 4456W        W20590   0.503   4.552   5.224  0.1427  0.0640  0.1117
 4457W        W20591   5.406   5.858   1.628 -0.1636 -0.2107  0.0357
 4458W        W20592  11.471   2.410   4.273 -0.1557 -0.0749  0.0064
 4459W        W20593  14.965  12.127  11.279  0.2682  0.0173 -0.0040
 4460W        W20594   4.630  16.771   0.811 -0.2248 -0.0233 -0.0085
 4461W        W20595  14.776  17.452   5.634  0.2800 -0.1480 -0.2825
 4462W        W20596   2.715  10.417  13.569 -0.5108 -0.2085 -0.1831
 4463W        W20597   3.414   0.625   3.813  0.4600  0.1146  0.0740
 4464W        W20598   1.465  14.855  15.207 -0.1664  0.2773  0.1205
 4465W        W20599  17.822   9.027  10.969  0.0629  0.2004 -0.0045
 4466W        W20600  10.581   6.598  11.765  0.0531  0.2546  0.2158
 4467W        W20601   6.814   8.302  14.759  0.1609 -0.4394 -0.0358
 4468W        W20602   6.001  14.122   5.562  0.2209 -0.3340 -0.0199
 4469W        W20603   1.334  10.417   0.393  0.0212 -0.1658 -0.0523
 4470W        W20604   5.292   5.120   4.232 -0.0071 -0.0982  0.2305
 4471W        W20605  18.290   8.695   2.116 -0.1240  0.2047  0.0657
 4472W        W20606   9.730   3.594  13.571 -0.3850  0.3861  0.0921
 4473W        W20607   5.570  13.465   2.399  0.0967 -0.1332 -0.0787
 4474W        W20608  14.171   6.536   5.127  0.0213  0.0313  0.1512
 4475W        W20609   5.924   1.530   1.443 -0.0854  0.2821 -0.3459
 4476W        W20610   1.310   0.754   4.391 -0.0168 -0.1259 -0.2866
 4477W        W20611   8.709  10.764   0.332  0.1819  0.2965  0.0964
 4478W        W20612   1.082   8.239  13.632 -0.1209 -0.2805  0.0501
 4479W        W20613  14.562  10.263  15.122 -0.1298 -0.2456 -0.2266
 4480W        W20614   6.443   7.738  11.817  0.2920  0.1287  0.3256
 4481W        W20615  16.177   0.742   2.924  0.1334  0.3298  0.0884
 4482W        W20616   5.193  15.295  15.392  0.3156 -0.1382  0.0687
 4483W        W20617  12.474   7.113  12.925 -0.0057  0.1936  0.0730
 4484W        W20618  16.127   5.030   2.817 -0.3231 -0.2678  0.0609
 4485W        W20619  14.163  15.210  14.704 -0.4645  0.0630  0.0710
 4486W        W20620  13.244   3.948  10.851  0.0443 -0.0859  0.1223
 4487W        W20621   7.398   8.513   0.606 -0.0869  0.2459 -0.1615
 4488W        W20622   4.466  11.206  14.033  0.0521 -0.1188 -0.0265
 4489W        W20623  15.458  10.483   0.350  0.0283  0.2007 -0.0701
 4490W        W20624   4.612  12.481  14.171 -0.0138 -0.0073 -0.1085
 4491W        W20625  18.280  12.355  13.573 -0.1482 -0.0734  0.0181
 4492W        W20626  15.928   8.898   3.832 -0.2049  0.2233 -0.1803
 4493W        W20627  13.424  13.504  14.725  0.2739 -0.0084  0.0459
 4494W        W20628  17.184   8.943  11.108  0.1599  0.1392 -0.1184
 4495W        W20629   7.587  14.927   5.079  0.1803  0.0491 -0.0203
 4496W        W20630   4.376   4.375   0.887 -0.0852 -0.0306 -0.2198
 4497W        W20631  16.339   9.615  13.787  0.2124  0.0128  0.0748
 4498W        W20632  13.769  15.642  15.847  0.1747  0.0683 -0.3001
 4499W        W20633   0.956  15.370  12.140  0.0133 -0.2880 -0.0946
 4500W        W20634   4.688   7.992   4.375  0.1793  0.1189 -0.2692
 4501W        W20635   6.463  14.100  14.662  0.1062  0.4516 -0.0999
 4502W        W20636  14.641  12.803   1.897 -0.3228  0.0049 -0.0326
 4503W        W20637  12.409  12.477   3.612  0.0403 -0.2800  0.0660
 4504W        W20638   0.893   9.307   3.079  0.1879  0.0567 -0.1367
 4505W        W20639   8.129   2.478   4.055 -0.2236 -0.2324 -0.0352
 4506W        W20640  15.866  11.832  12.582  0.1751 -0.1834 -0.1449
 4507W        W20641  16.787  13.955  13.582  0.2037  0.1014  0.0408
 4508W        W20642  17.506   8.635   4.162 -0.1035 -0.1708  0.2158
 4509W        W20643   8.173  10.892  11.940 -0.1233 -0.0840 -0.1021
 4510W        W20644   5.061  13.474   4.342 -0.0203  0.1286  0.1109
 4511W        W20645   9.509   8.601  12.439 -0.0078  0.1146 -0.1672
 4512W        W20646   7.169   6.986   2.989  0.0600  0.2248  0.0448
 4513W        W20647   6.093  15.385  13.253 -0.0860  0.1528  0.0594
 4514W        W20648  11.994   2.687   5.704  0.2259 -0.1316  0.0996
 4515W        W20649   3.810   5.384   4.050 -0.0161  0.1016  0.0645
 4516W        W20650  16.725   9.853   4.357 -0.1179 -0.1148  0.1050
 4517W        W20651  12.071   7.634   2.216  0.2231  0.1683 -0.1091
 4518W        W20652   6.891  11.333  11.904  0.1326  0.1925 -0.1201
 4519W        W20653   5.584  17.407   1.064 -0.2788 -0.0815 -0.1077
 4520W        W20654   4.462  14.953  12.546  0.1893 -0.0872  0.1404
 4521W        W20655  17.762   1.776   0.025 -0.0795 -0.0302  0.0348
 4522W        W20656  11.407   4.133   1.534 -0.2790  0.2113  0.3836
 4523W        W20657  17.279   0.104  14.452  0.2531 -0.0073  0.2477
 4524W        W20658  14.626  10.193   1.241  0.2546  0.0416  0.3320
 4525W        W20659  14.024   8.902   0.884  0.0593  0.1109  0.0677
 4526W        W20660   3.989  16.858  12.206 -0.0488 -0.1927 -0.0320
 4527W        W20661  10.447  17.119  15.621  0.0063 -0.0417  0.2824
 4528W        W20662  12.547   4.766   1.891 -0.1074 -0.1361  0.4160
 4529W        W20663   9.677   4.822   4.552 -0.1140 -0.1170  0.3698
 4530W        W20664   3.546  18.146   0.405  0.0589 -0.2645 -0.0053
 4531W        W20665  14.825   0.118   4.084 -0.0004  0.2270  0.3287
 4532W        W20666   6.458   5.316   4.243 -0.1460 -0.0102  0.0957
 4533W        W20667  16.638   1.873  13.020 -0.0530 -0.2191  0.3452
 4534W        W20668   2.337   5.669  10.723 -0.0637  0.1296  0.1901
 4535W        W20669  12.693  13.234   5.150  0.0210  0.1830 -0.0679
 4536W        W20670   7.743   4.709  14.720 -0.0202  0.1350  0.1205
 4537W        W20671  17.835   5.826  13.949  0.0820  0.3505  0.0634
 4538W        W20672  11.147  13.859   0.603 -0.0958 -0.0571  0.2437
 4539W        W20673  16.291  11.538  15.059 -0.0636  0.3597 -0.0259
 4540W        W20674   0.476   7.590   1.297 -0.1545 -0.1995  0.0409
 4541W        W20675   5.972   0.130   4.607  0.2281  0.0179 -0.0511
 4542W        W20676   5.683   0.040  12.169  0.1246  0.3185 -0.2440
 4543W        W20677   7.892  14.856   4.214  0.3660  0.3201  0.1094
 4544W        W20678   0.635  10.371  11.625  0.0119  0.0181  0.0467
 4545W        W20679   8.053  18.407   4.285  0.1121  0.1689 -0.0114
 4546W        W20680   2.711  16.241   2.017 -0.1730 -0.0076  0.0150
 4547W        W20681  14.528   9.269  15.782 -0.0987 -0.0564  0.5084
 4548W        W20682  15.371   7.856  13.790  0.1214  0.1235 -0.3891
 4549W        W20683   0.558  14.336  15.513 -0.0917  0.1407 -0.1989
 4550W        W20684  13.322   2.619  14.786  0.2302  0.0160  0.2936
 4551W        W20685   3.374  13.608   0.649  0.0938 -0.0095 -0.3198
 4552W        W20686  14.818   3.161  10.885  0.1051  0.0277  0.0121
 4553W        W20687  13.939   3.865   2.534 -0.0879  0.0380  0.1757
 4554W        W20688   6.701  14.838   2.858 -0.2177  0.0307  0.0752
 4555W        W20689   7.814  18.407  10.450  0.0043  0.1286  0.1214
 4556W        W20690  17.079   9.991  14.331  0.1245 -0.2086 -0.1077
 4557W        W20691  15.608   5.258  13.815  0.1955  0.2389  0.0726
 4558W        W20692   8.242   0.148  15.765  0.1298  0.1720  0.0519
 4559W        W20693  15.483   7.217   4.569  0.0022 -0.0649  0.1084
 4560W        W20694   5.213  16.703   4.643  0.1649  0.0399  0.1940
 4561W        W20695  11.202  13.279  13.871  0.0069  0.2409  0.2480
 4562W        W20696  16.297   9.178  12.356 -0.1249 -0.0572  0.2387
 4563W        W20697   2.409   7.829  11.475  0.0539 -0.2609 -0.1294
 4564W        W20698   3.910   4.700   1.822 -0.3891  0.0476 -0.1737
 4565W        W20699   9.917  16.951  11.520  0.1690 -0.0761  0.1070
 4566W        W20700   6.655   8.096  15.642  0.1931  0.2979 -0.0495
 4567W        W20701   3.841   9.069  15.124  0.0420 -0.1233 -0.1814
 4568W        W20702  13.454  12.263  14.139 -0.1310  0.0557 -0.0341
 4569W        W20703  11.678   8.483  15.284 -0.0017  0.0934 -0.2870
 4570W        W20704   6.744   0.413  14.666 -0.3923  0.1571  0.0872
 4571W        W20705  10.200  13.183  15.210  0.1407  0.2369 -0.1205
 4572W        W20706  10.338  15.946  11.811  0.0238 -0.0890  0.0774
 4573W        W20707  13.709  14.876   5.454 -0.0785 -0.2258  0.1396
 4574W        W20708  10.123  12.447  11.882 -0.2047 -0.1361  0.0484
 4575W        W20709  17.832  13.966  15.025  0.0445 -0.1049  0.0578
 4576W        W20710  10.455   9.705  13.883 -0.3146 -0.1313  0.0549
 4577W        W20711   4.145  12.271  15.007 -0.1628  0.5826  0.2248
 4578W        W20712  12.623   3.865   2.110  0.3822 -0.2359 -0.1249
 4579W        W20713   3.334   5.075  10.699 -0.0528 -0.1435  0.2737
 4580W        W20714   3.298  13.862  12.291 -0.0553 -0.4240 -0.3558
 4581W        W20715   5.993  15.799   0.574  0.0755 -0.0139 -0.0353
 4582W        W20716  10.416  11.998   2.366  0.1170  0.0443  0.1474
 4583W        W20717  16.152  14.614   4.086 -0.1324  0.1233  0.1229
 4584W        W20718  15.735   3.924   0.890  0.1034 -0.0117 -0.0212
 4585W        W20719   2.778   6.589   0.599 -0.1743 -0.1089 -0.0422
 4586W        W20720   2.507  13.626  13.994 -0.0929 -0.1408  0.0428
 4587W        W20721   1.346   5.995  10.556 -0.1502 -0.1318 -0.0688
 4588W        W20722   5.967  13.453   4.819  0.2386  0.0049  0.0559
 4589W        W20723  15.355  17.860  11.714 -0.0917 -0.1122  0.1807
 4590W        W20724   5.584   2.936  14.150 -0.2239  0.0291 -0.1031
 4591W        W20725  15.532  16.329   4.575  0.2765  0.1019 -0.3294
 4592W        W20726   2.413  16.063  12.378  0.4002  0.1901 -0.1040
 4593W        W20727  12.624   5.093   1.320  0.0052 -0.0005  0.0123
 4594W        W20728   4.783   4.278   5.244 -0.0498 -0.2356  0.1464
 4595W        W20729  14.937   1.796  11.370  0.2333 -0.2415  0.1255
 4596W        W20730   3.955  12.915   2.814  0.2437  0.1111  0.1837
 4597W        W20731  17.259  10.179  11.754  0.1406  0.2300 -0.1448
 4598W        W20732   5.308   2.503   4.819  0.1145 -0.0872 -0.1607
 4599W        W20733  12.483  16.737   5.025 -0.2015  0.3464 -0.2831
 4600W        W20734  13.158  11.030   3.314 -0.0953 -0.2500 -0.0588
 4601W        W20735   5.277   1.832  15.577  0.1642  0.0586 -0.0281
 4602W        W20736  13.810   9.414   1.110  0.1174 -0.3694 -0.0081
 4603W        W20737  18.245   4.541  10.588  0.1864 -0.2495 -0.4091
 4604W        W20738  12.219   2.335   2.706  0.0600  0.0537 -0.2014
 4605W        W20739  14.274  18.462  15.227 -0.0094  0.3152  0.0386
 4606W        W20740   1.566   7.438  10.231  0.2278 -0.1478 -0.0357
 4607W        W20741   6.713   3.446  11.124 -0.1385  0.0464 -0.0259
 4608W        W20742  12.408  11.216  12.391 -0.2590 -0.1184 -0.0647
 4609W        W20743   7.781  13.647  12.093 -0.0317  0.0951 -0.0494
 4610W        W20744   0.605  15.832   2.428  0.0028  0.0243  0.0165
 4611W        W20745  15.346   2.728  11.452  0.3203  0.0734 -0.2527
 4612W        W20746   0.143   1.301   3.040 -0.2362  0.0472  0.3149
 4613W        W20747   4.472   5.006   0.373 -0.0006  0.1037 -0.0888
 4614W        W20748  17.370   9.360  10.974 -0.2423 -0.0083  0.1364
 4615W        W20749   2.936   0.496  15.405 -0.2027  0.0255 -0.1416
 4616W        W20750  10.422   7.048   0.979 -0.2674 -0.0114 -0.3667
 4617W        W20751  12.853   8.697   3.655  0.0048 -0.0131 -0.1245
 4618W        W20752  17.636  13.951   2.898 -0.0310  0.1167 -0.1438
 4619W        W20753  13.661  10.336   5.221 -0.0697 -0.0325  0.0400
 4620W        W20754   6.344   4.310   2.641 -0.0945 -0.0024  0.0193
 4621W        W20755   1.516   7.131  11.056 -0.2572  0.2771  0.1459
 4622W        W20756   0.097   1.506  10.907  0.5040 -0.1398  0.2663
 4623W        W20757   4.595  13.132  14.969  0.0891 -0.0475 -0.3086
 4624W        W20758   0.617  13.726   0.990 -0.0420  0.1506 -0.1587
 4625W        W20759   7.319  10.546   1.142  0.0118  0.0219  0.0982
 4626W        W20760   2.370  16.622  10.112  0.0891 -0.1343 -0.0283
 4627W        W20761  13.482  16.638  10.895 -0.0917 -0.1313  0.1107
 4628W        W20762   0.898  10.720  11.175 -0.1532 -0.2729 -0.0196
 4629W        W20763   1.211  17.588  15.449  0.1933  0.2574 -0.1041
 4630W        W20764  11.358  14.339   0.624 -0.1266 -0.0626 -0.0804
 4631W        W20765  11.010  12.698   1.418 -0.4941  0.2504 -0.1763
 4632W        W20766   1.795   5.652   4.328 -0.2128 -0.1863  0.0400
 4633W        W20767  10.379  17.228   0.269  0.5705  0.0100  0.2378
 4634W        W20768  13.076  13.503  10.351  0.4038  0.2195  0.0815
 4635W        W20769   0.929  12.191   4.824 -0.1008  0.2280 -0.2718
 4636W        W20770   6.154   4.528  15.464  0.2386 -0.0786 -0.1359
 4637W        W20771   2.207  16.952  15.468  0.0118 -0.0682  0.1756
 4638W        W20772   3.331  14.408   3.919 -0.1743  0.2260 -0.0534
 4639W        W20773   3.371   1.488  12.520 -0.1008 -0.2160  0.0426
 4640W        W20774   6.476  16.561   1.959  0.0610  0.3305  0.0283
 4641W        W20775  12.228   0.092   2.066  0.0758  0.0039 -0.0212
 4642W        W20776   9.904   3.089   4.792 -0.1251 -0.1276  0.2112
 4643W        W20777   7.797   9.170   5.385  0.0783  0.2326 -0.1830
 4644W        W20778  17.329   9.772  12.367  0.0527  0.2364 -0.0828
 4645W        W20779   0.248  14.597   3.163  0.0613 -0.0171 -0.2677
 4646W        W20780   5.188   7.970  10.943 -0.2149 -0.2388  0.1498
 4647W        W20781   5.756  17.856  13.591 -0.1037 -0.2112 -0.0612
 4648W        W20782   6.048  18.125  12.702  0.0930  0.0424  0.0986
 4649W        W20783  14.903   4.468  14.890 -0.0104  0.0572 -0.0146
 4650W        W20784   5.042  15.932  14.357 -0.1675  0.0233  0.0578
 4651W        W20785  14.869   3.868   3.190 -0.1692 -0.2337 -0.0795
 4652W        W20786   1.567   5.274   0.880 -0.1600 -0.1898 -0.0277
 4653W        W20787   2.953   9.466   0.293  0.0108  0.1173 -0.0069
 4654W        W20788   9.212   9.332   1.644  0.2659  0.2060  0.0568
 4655W        W20789   9.677  13.297   1.902  0.4179  0.0184 -0.0535
 4656W        W20790  18.196   4.720  11.482 -0.2163 -0.3540  0.3438
 4657W        W20791   8.980   4.696  12.853 -0.2119 -0.0062 -0.0568
 4658W        W20792   8.272  10.155   2.876 -0.0400  0.0052  0.0413
 4659W        W20793  10.060  16.908   1.103 -0.1419 -0.0629 -0.2005
 4660W        W20794   5.555  11.857   3.332 -0.1923  0.0516  0.1529
 4661W        W20795   5.643   2.150  15.734 -0.1392  0.1735  0.4107
 4662W        W20796   2.758  17.044  14.633 -0.2298 -0.0546 -0.0031
 4663W        W20797   3.243   2.628  13.047  0.1705 -0.1021  0.2893
 4664W        W20798  10.734   2.297   5.383 -0.1082 -0.3676 -0.2530
 4665W        W20799   1.672   2.275  10.915  0.1441  0.2951 -0.2480
 4666W        W20800   9.693   2.001   5.413 -0.0552  0.0577  0.0291
 4667W        W20801   4.492  13.291  13.693 -0.2055  0.0470 -0.0292
 4668W        W20802  13.579   9.878  14.204 -0.2456  0.4325  0.1855
 4669W        W20803  15.945   0.990   1.149  0.0028 -0.2091 -0.1883
 4670W        W20804  15.542  11.083  12.212 -0.1802  0.3949 -0.4328
 4671W        W20805  15.322   0.865  12.241  0.0110 -0.0769  0.0703
 4672W        W20806   6.942   4.357   5.626  0.1662  0.0295 -0.1771
 4673W        W20807   9.459  12.467  15.567 -0.4143 -0.0691 -0.1936
 4674W        W20808   5.414  17.269  13.272 -0.2852  0.0082 -0.0964
 4675W        W20809  10.085  12.766   1.534  0.2228 -0.0853 -0.1560
 4676W        W20810  12.751   9.540   3.584  0.0500  0.1503  0.1083
 4677W        W20811  16.149  11.119   3.766  0.2625  0.1267 -0.0826
 4678W        W20812  18.459  14.555   9.745 -0.2903  0.1221  0.2580
 4679W        W20813   8.634   3.789  11.677  0.0506  0.5989 -0.2834
 4680W        W20814  14.503   9.339  10.323  0.0433  0.0082 -0.0126
 4681W        W20815  16.197  13.548  15.863 -0.2172 -0.2803 -0.0727
 4682W        W20816   1.009   5.891  12.848 -0.3344  0.2071 -0.2107
 4683W        W20817   1.956  16.455   1.671  0.2932 -0.1501 -0.2589
 4684W        W20818   3.247   9.791  12.141 -0.1159  0.2006  0.1041
 4685W        W20819  12.584   5.237   5.349  0.1034 -0.2387 -0.2746
 4686W        W20820  10.722  15.258   1.453 -0.1027  0.3449 -0.1050
 4687W        W20821  15.378  17.912  12.893  0.0749 -0.2807  0.0536
 4688W        W20822  10.546  16.459  14.422  0.1598  0.2158 -0.0944
 4689W        W20823  13.340   6.212   1.723 -0.2426 -0.0943 -0.2376
 4690W        W20824  15.375   4.319  14.624  0.0217 -0.1662 -0.1565
 4691W        W20825  13.934   5.444   2.871 -0.1218 -0.0506  0.1119
 4692W        W20826  10.271  14.978   0.759  0.2540  0.0301  0.0936
 4693W        W20827   1.736   7.014   0.882 -0.0283 -0.2139  0.3499
 4694W        W20828  15.769   4.242  12.161  0.2627 -0.2725  0.1516
 4695W        W20829  17.791  12.325  12.748  0.2735 -0.1551 -0.3426
 4696W        W20830   8.683  14.951  12.402  0.1547 -0.1365 -0.0695
 4697W        W20831   5.216  16.296  14.683 -0.1198  0.0201 -0.0045
 4698W        W20832  12.490   8.508   1.057 -0.0443 -0.1646  0.0323
 4699W        W20833   0.687  11.028   0.154 -0.1564  0.0892 -0.1267
 4700W        W20834  10.701   8.842  11.180  0.0297 -0.0385 -0.0821
 4701W        W20835  17.083  14.649   2.240  0.1803  0.2490 -0.3560
 4702W        W20836   5.184   7.567  11.278 -0.1618 -0.1805  0.2348
 4703W        W20837  12.118  14.728   3.693  0.0491  0.0361  0.1786
 4704W        W20838   8.747  11.474  14.297  0.0151  0.1451  0.1697
 4705W        W20839   5.696   6.008  14.490  0.1197 -0.2210 -0.0084
 4706W        W20840   5.519  15.197   5.152  0.0014 -0.0450 -0.0877
 4707W        W20841  15.304   4.997  11.984  0.1293 -0.0996  0.2482
 4708W        W20842   3.493   2.407   3.293 -0.0447  0.2553 -0.0165
 4709W        W20843  12.069   4.864  14.272 -0.0467 -0.2917  0.1194
 4710W        W20844   2.995  10.955  14.641 -0.0768 -0.1388  0.0929
 4711W        W20845   9.879   2.203   1.969 -0.0844 -0.0727 -0.0318
 4712W        W20846  14.377  14.607   0.988 -0.1553  0.0723  0.1399
 4713W        W20847  11.963  11.609   4.881 -0.2481 -0.1899  0.3061
 4714W        W20848  14.554   1.005   4.655  0.0241 -0.0949  0.1633
 4715W        W20849   6.759  10.348   2.362  0.1315  0.1183 -0.0053
 4716W        W20850   0.072   6.059  14.852  0.0674  0.4968  0.5397
 4717W        W20851  10.540   3.293   0.181 -0.0256 -0.1305 -0.2429
 4718W        W20852   3.792  15.294  14.106 -0.0776  0.0641 -0.0106
 4719W        W20853  14.943   0.221  12.697  0.1056 -0.1399 -0.0436
 4720W        W20854   2.878   4.256  11.013 -0.0779  0.1594  0.1637
 4721W        W20855  13.705   9.979  15.468 -0.0360  0.0665 -0.0586
 4722W        W20856   2.673  14.406   5.401 -0.1689 -0.3687  0.0480
 4723W        W20857   0.426   2.501  11.358  0.0227 -0.2156  0.4690
 4724W        W20858   2.082   9.207  13.217  0.1946 -0.0466  0.3080
 4725W        W20859   3.338  13.924   0.267  0.1510 -0.0102 -0.0610
 4726W        W20860   5.691   8.902  13.842 -0.0854 -0.1131 -0.1131
 4727W        W20861   3.527  17.598  14.347 -0.1719  0.0593  0.1363
 4728W        W20862  11.235  16.607   1.275 -0.1321 -0.0389  0.0693
 4729W        W20863  14.530   0.983  11.934 -0.2294  0.5574 -0.1643
 4730W        W20864   8.271   2.914  12.018  0.5755  0.0598 -0.1760
 4731W        W20865   4.785   0.648   3.758  0.5938  0.1220  0.0419
 4732W        W20866  13.956  13.389  12.512 -0.0761 -0.1357 -0.0964
 4733W        W20867   4.234  13.956   4.827  0.1611  0.3370  0.0241
 4734W        W20868   6.202   0.467   4.899 -0.1418 -0.0900 -0.0053
 4735W        W20869   5.974   2.786   4.640 -0.0343 -0.1899  0.2314
 4736W        W20870  16.588  12.756  11.726  0.0110  0.0364 -0.0729
 4737W        W20871  14.655   5.880  15.315  0.2014  0.1895 -0.0122
 4738W        W20872   7.357   2.322   2.648 -0.1920 -0.3211 -0.1197
 4739W        W20873  13.069   9.751   3.888  0.3539  0.3244  0.3123
 4740W        W20874   5.360  17.041   3.356 -0.0327 -0.1576  0.0911
 4741W        W20875   0.425   4.121  10.301 -0.2852 -0.2619 -0.0882
 4742W        W20876  17.563  16.489  14.335  0.0117 -0.2037 -0.4044
 4743W        W20877  15.792  15.693   1.860  0.0010  0.0109 -0.0058
 4744W        W20878   1.640   9.908  13.154 -0.0183 -0.0208 -0.0045
 4745W        W20879   5.710  11.685   2.189  0.0295 -0.0198  0.1765
 4746W        W20880   5.147  15.139   2.865 -0.2227  0.1448  0.0225
 4747W        W20881  18.186   1.441   2.507  0.6547  0.1790 -0.2212
 4748W        W20882   4.173  16.444  12.478 -0.0710 -0.0303  0.1996
 4749W        W20883   9.949  13.970  15.117 -0.4596 -0.1483 -0.1088
 4750W        W20884  16.657  11.439   3.267  0.0490 -0.1101 -0.1629
 4751W        W20885  17.229   2.549   2.003 -0.3619 -0.0968  0.1969
 4752W        W20886   6.966  12.117   3.140  0.2407  0.0449  0.2548
 4753W        W20887  12.017   2.140   1.395  0.3794  0.0073 -0.0658
 4754W        W20888   2.978  15.433  10.069 -0.1364  0.1590 -0.2726
 4755W        W20889   4.770   5.064   4.279 -0.0144 -0.1694 -0.1614
 4756W        W20890   2.332   2.554  13.984 -0.1775 -0.3289 -0.0730
 4757W        W20891   3.747  15.485   0.857  0.2671 -0.0803 -0.0631
 4758W        W20892  15.829  18.392  11.007 -0.0521  0.5107  0.1433
 4759W        W20893   1.119   2.805   1.606 -0.1005 -0.0874  0.1388
 4760W        W20894  13.763  12.880   4.655  0.0091 -0.0532 -0.0680
 4761W        W20895  16.428  13.422   2.395  0.0620  0.4063 -0.1193
 4762W        W20896  14.825  11.032   0.142  0.2057 -0.0621 -0.3441
 4763W        W20897   1.266   8.006   3.257 -0.2464  0.1576  0.0848
 4764W        W20898   7.203   0.439  14.446 -0.2202  0.1112  0.2450
 4765W        W20899  11.538   4.472  11.816 -0.0431  0.1867 -0.0343
 4766W        W20900  14.375   8.466   0.116 -0.0017 -0.1675 -0.0345
 4767W        W20901  13.302  17.399   3.819  0.1294 -0.0505 -0.0132
 4768W        W20902  10.148   8.546  14.550 -0.2134 -0.1055  0.0198
 4769W        W20903   2.067   6.205  12.640  0.2245  0.0259 -0.1205
 4770W        W20904  10.555  16.266   0.233 -0.2666 -0.0429 -0.1879
 4771W        W20905   5.559  13.772  15.270 -0.0151  0.0778 -0.2100
 4772W        W20906   1.787   2.053  12.598 -0.1816 -0.4052  0.2082
 4773W        W20907  10.870  10.036  13.668  0.2460 -0.1194 -0.0327
 4774W        W20908  12.837   7.798   5.284  0.2337  0.0046  0.5211
 4775W        W20909   6.996   9.724  15.015  0.3246 -0.0861  0.0806
 4776W        W20910  14.712  17.648   6.152  0.2371  0.2100  0.1854
 4777W        W20911  17.436  11.347   4.308  0.0947  0.1115 -0.2778
 4778W        W20912  11.637  11.597   3.672  0.0880  0.2829 -0.3103
 4779W        W20913  10.069   9.053  15.647 -0.0061 -0.2361  0.1250
 4780W        W20914   5.806   2.515  14.323 -0.4174  0.0824  0.0997
 4781W        W20915   4.626  18.169  11.842  0.2265 -0.2389  0.0326
 4782W        W20916   6.082  12.216  10.318 -0.1833  0.2238 -0.1769
 4783W        W20917   1.871  16.971   1.874 -0.0319  0.1862 -0.1662
 4784W        W20918  12.659  11.633   3.746  0.0916 -0.2903  0.0172
 4785W        W20919  14.019  14.361   3.654 -0.1203  0.0480  0.1453
 4786W        W20920   3.912  17.180  15.509 -0.0083  0.1587 -0.1494
 4787W        W20921   2.031  10.237  15.645 -0.3103  0.0241 -0.1829
 4788W        W20922   2.838   9.006  14.644  0.0776 -0.0688 -0.4507
 4789W        W20923   0.413   9.083  13.795  0.2485 -0.1136 -0.0099
 4790W        W20924   4.404  10.544   2.770  0.3555  0.2147 -0.1627
 4791W        W20925  16.686   4.959  12.772  0.1064  0.0815 -0.1698
 4792W        W20926   0.137   0.783  12.000 -0.0942 -0.3527 -0.1995
 4793W        W20927  13.386   9.129  15.178  0.1840 -0.1966  0.1296
 4794W        W20928   1.963  17.577   3.275  0.0554 -0.2109 -0.3699
 4795W        W20929  10.692  12.238   3.277 -0.3374  0.0671  0.1839
 4796W        W20930   4.578   6.929  15.569  0.2674  0.1323  0.1920
 4797W        W20931   8.445  17.919   0.948  0.0420 -0.0260  0.3146
 4798W        W20932   3.576  15.424  15.572 -0.0441  0.0752 -0.0566
 4799W        W20933   2.948  11.148   9.718 -0.2130 -0.0277 -0.1134
 4800W        W20934  16.752  18.405  14.555  0.1852 -0.2903  0.1289
 4801W        W20935  14.863   7.918   4.183 -0.2574  0.0264 -0.0458
 4802W        W20936  15.944   6.505   1.982 -0.0917  0.1608  0.2470
 4803W        W20937   2.478  12.279   4.485  0.0160  0.0463  0.2447
 4804W        W20938   2.227  16.656   4.131  0.2113  0.1628 -0.4035
 4805W        W20939  11.586   4.507  10.858  0.2575  0.5114 -0.1134
 4806W        W20940   8.207  10.585  11.448 -0.0471  0.2233 -0.1397
 4807W        W20941  10.536   5.129  13.300  0.1075 -0.2399 -0.1943
 4808W        W20942  13.497  14.261  12.228  0.1936  0.0267 -0.1629
 4809W        W20943   7.439   2.294   5.168 -0.3044  0.1780  0.0499
 4810W        W20944   3.147  13.422  11.288  0.0949  0.0427 -0.1784
 4811W        W20945   6.566   8.431   2.494 -0.0415 -0.0694 -0.1213
 4812W        W20946   8.054   3.174  15.078  0.0442 -0.0244 -0.1275
 4813W        W20947   2.508   3.457  15.894 -0.0157 -0.1762 -0.1326
 4814W        W20948  10.621  15.192  12.167 -0.1024 -0.0134 -0.0981
 4815W        W20949   5.718  12.499   4.291  0.1100 -0.0865  0.0293
 4816W        W20950   3.054  16.329   2.786  0.1664  0.1152 -0.4340
 4817W        W20951  18.443   9.688   3.276  0.0527  0.1476 -0.3200
 4818W        W20952   7.212  13.341  14.255  0.2577  0.0838 -0.3593
 4819W        W20953   5.378  14.981  12.156  0.2526  0.1064 -0.0660
 4820W        W20954   1.737  10.102  15.214  0.0842 -0.2089  0.0083
 4821W        W20955  16.833  15.945  15.343  0.2750 -0.2135  0.0059
 4822W        W20956  12.714   4.913  12.504  0.0164  0.0160 -0.0592
 4823W        W20957  17.734  11.094  12.354 -0.0041 -0.1606  0.0957
 4824W        W20958   3.883  10.043   2.955 -0.3330  0.0245 -0.1566
 4825W        W20959   6.655  14.265   0.764 -0.3643 -0.1106 -0.1858
 4826W        W20960   4.102  15.028  13.300 -0.3049 -0.0658 -0.1898
 4827W        W20961  13.021   6.029  15.691 -0.2980 -0.0317  0.0999
 4828W        W20962   8.777  13.193  11.305  0.1111 -0.1744  0.0659
 4829W        W20963   9.372   0.296   4.950  0.1400  0.0683 -0.1104
 4830W        W20964   0.221  14.599  15.320  0.2296 -0.2626 -0.0556
 4831W        W20965   0.790   6.001  10.376  0.1678  0.1153  0.2286
 4832W        W20966  15.201   1.313   5.377 -0.1068  0.1671  0.2860
 4833W        W20967  12.577   9.565  15.141 -0.0009 -0.2973 -0.0716
 4834W        W20968  17.257   6.942  14.763  0.2992 -0.0050 -0.2505
 4835W        W20969   8.855  16.082   5.512  0.3138 -0.1541 -0.0920
 4836W        W20970   9.830  13.161  13.940  0.3804  0.0521  0.1224
 4837W        W20971  13.622   2.204   5.498 -0.0841 -0.0272 -0.3891
 4838W        W20972  16.063   0.634   1.479  0.2062  0.4029 -0.0348
 4839W        W20973  11.132   7.482   1.339 -0.5050  0.1127  0.3555
 4840W        W20974   3.176  13.436  12.855  0.2264  0.1438  0.0953
 4841W        W20975  16.954  10.724  15.156 -0.0267 -0.0034 -0.3389
 4842W        W20976  15.860  12.757   3.249 -0.2295  0.4482  0.0476
 4843W        W20977   8.063  12.527   6.269  0.3085 -0.0542  0.1024
 4844W        W20978  10.680  14.028  11.669  0.3404 -0.0404 -0.0087
 4845W        W20979   5.498  13.482  12.347 -0.0440  0.0835  0.3782
 4846W        W20980  16.126  14.675  14.925 -0.3303 -0.0110 -0.2239
 4847W        W20981   8.527   3.894   1.677  0.4528 -0.0738  0.1516
 4848W        W20982   2.647  16.251  15.747 -0.2565  0.0302  0.2262
 4849W        W20983   7.053   7.116  10.179  0.3285 -0.2152  0.0205
 4850W        W20984   1.653  10.280   1.652 -0.0139 -0.1010  0.2304
 4851W        W20985   5.388   0.904  15.528 -0.1082  0.1857 -0.1315
 4852W        W20986   7.756  15.689  13.741  0.0459  0.0368  0.1214
 4853W        W20987   0.146  13.451  15.676  0.2056 -0.0339  0.1997
 4854W        W20988  13.267  10.943  13.767  0.1414 -0.2059  0.1036
 4855W        W20989  15.125  17.230   5.339 -0.2157  0.4588 -0.1435
 4856W        W20990  11.937  17.921   0.196 -0.0972  0.2245  0.2091
 4857W        W20991  13.047  11.385  11.563 -0.1163  0.0304 -0.2021
 4858W        W20992  17.411  15.977   5.569  0.6685  0.0833 -0.0668
 4859W        W20993  13.834   5.927   5.293 -0.0238 -0.0370  0.1240
 4860W        W20994  11.432   0.727  11.494  0.4603  0.0612  0.3258
 4861W        W20995   3.386   8.252  10.860 -0.2613 -0.0879  0.1076
 4862W        W20996  17.054  17.774  13.863 -0.1134  0.2262 -0.0912
 4863W        W20997   8.308  12.875   0.950 -0.0248  0.0521  0.0365
 4864W        W20998  15.464   9.118   4.888 -0.1403 -0.0768  0.0750
 4865W        W20999  15.106  16.383  15.659  0.4334 -0.0085  0.0403
 4866W        W21000  16.150   4.119   4.464  0.0389  0.1153  0.2890
 4867W        W21001  15.596  18.387   2.560 -0.1961  0.1799 -0.2340
 4868W        W21002  13.786  11.909   4.813  0.2171 -0.0992  0.1483
 4869W        W21003  17.793   2.317   0.043  0.1341 -0.1429  0.0044
 4870W        W21004  11.645   8.358  13.123 -0.0705 -0.2209  0.1582
 4871W        W21005   6.952   6.517   4.073 -0.0485  0.0103 -0.0337
 4872W        W21006  14.182   9.982  13.761  0.0050  0.0823 -0.1745
 4873W        W21007   8.271   7.368  14.275 -0.1789  0.2324  0.0741
 4874W        W21008  18.047  17.535   1.956 -0.0612  0.2269 -0.1058
 4875W        W21009   9.567  17.056   1.127  0.2122 -0.0212  0.0731
 4876W        W21010   5.827   1.119   0.095  0.3270 -0.0046  0.3953
 4877W        W21011   3.671  17.450   3.976  0.2617 -0.3581 -0.0040
 4878W        W21012  11.849   4.887  11.629  0.0463 -0.1584 -0.3226
 4879W        W21013   8.495   1.547   0.073 -0.3056 -0.1886  0.0073
 4880W        W21014   3.666  16.737  13.679  0.1617 -0.1398 -0.1036
 4881W        W21015   9.802   9.133  11.360 -0.3045  0.0120 -0.2206
 4882W        W21016  11.231  14.317  13.860 -0.0209  0.0170  0.0397
 4883W        W21017   5.486   2.161   4.237  0.0381 -0.2210 -0.0011
 4884W        W21018   7.031  16.992   3.773 -0.0871  0.0743  0.3175
 4885W        W21019  18.423   8.918  13.662 -0.0767  0.1409 -0.0951
 4886W        W21020  11.239   0.858  15.752 -0.1823  0.0590 -0.0479
 4887W        W21021   5.101   9.879  11.081  0.1422 -0.2466 -0.1666
 4888W        W21022  17.492  11.307   0.033 -0.0893 -0.3472  0.1720
 4889W        W21023  13.978  16.411  12.656 -0.4684 -0.3929 -0.3486
 4890W        W21024  13.796   5.144  14.622  0.0218 -0.2805  0.2289
 4891W        W21025   4.929  12.361   4.085 -0.4418  0.3551  0.0940
 4892W        W21026   9.536   2.463   4.608 -0.2767  0.0463 -0.1714
 4893W        W21027  16.022  11.132   4.326  0.2764 -0.3269 -0.4327
 4894W        W21028   9.678  15.307   1.414 -0.1226  0.0374  0.4148
 4895W        W21029  10.389   6.125  13.369  0.2007  0.3604 -0.0644
 4896W        W21030   5.775   0.923  12.816  0.1958  0.2710  0.3363
 4897W        W21031   1.295   8.908  12.165  0.1415  0.1344 -0.0870
 4898W        W21032   7.620   0.112   4.467  0.0499 -0.0661  0.0113
 4899W        W21033   9.479   5.972  14.085  0.0925  0.0725  0.0528
 4900W        W21034  17.766   7.110  11.333 -0.0520  0.1494  0.0330
 4901W        W21035  17.385   3.459   5.206 -0.1462  0.0236  0.0984
 4902W        W21036   7.769   6.412  14.145  0.0769 -0.1013  0.0912
 4903W        W21037   2.200   1.912  12.323  0.2279  0.1749 -0.1030
 4904W        W21038   9.629  13.072   0.073 -0.3865  0.0702  0.0461
 4905W        W21039   4.039   0.531  14.050 -0.0696  0.1496 -0.1076
 4906W        W21040  10.322   0.756  11.256  0.0369 -0.1544  0.1537
 4907W        W21041   2.166  18.108  14.572 -0.3373 -0.0313  0.1195
 4908W        W21042   2.986   0.028  12.625 -0.1046 -0.3797  0.1879
 4909W        W21043   2.281  15.213  13.744  0.2866  0.2626 -0.3211
 4910W        W21044  10.731  11.222   5.845  0.0137 -0.2288  0.0462
 4911W        W21045   9.452   4.087  14.456 -0.0611  0.1712 -0.0801
 4912W        W21046   8.685   9.654  13.410 -0.0348 -0.0785 -0.3518
 4913W        W21047  13.218  15.549  11.520  0.0493  0.0536 -0.1297
 4914W        W21048  14.891   3.672   0.284  0.0788  0.2335  0.0754
 4915W        W21049  12.880  11.496   2.358 -0.1004 -0.1078 -0.2469
 4916W        W21050   9.432   1.120   0.363  0.0604 -0.2080 -0.0512
 4917W        W21051  10.945   8.480   0.569 -0.2023  0.0151  0.0003
 4918W        W21052   8.788   2.377   0.110 -0.0897  0.0902  0.0054
 4919W        W21053  16.874   0.219  11.304 -0.0132 -0.0294 -0.0077
 4920W        W21054   3.615   7.138  10.484 -0.0534  0.2531  0.0613
 4921W        W21055   3.590   3.605  12.052  0.3863 -0.2200 -0.1205
 4922W        W21056  17.794  16.041  11.703  0.0096  0.1560 -0.2480
 4923W        W21057  12.763  13.129   4.674  0.0335 -0.1665  0.0124
 4924W        W21058   1.240  12.762  11.653  0.1648 -0.2726  0.4167
 4925W        W21059   0.287   8.851   0.429 -0.0641  0.0815  0.1361
 4926W        W21060   7.839  17.068   4.416 -0.0923 -0.0023 -0.2253
 4927W        W21061   4.145   1.003   4.827 -0.2834  0.2370  0.2493
 4928W        W21062  15.504  12.987   4.989 -0.1694  0.0047  0.0467
 4929W        W21063  14.340   9.873  14.814 -0.0673 -0.0602 -0.2482
 4930W        W21064   8.172  15.595  14.047 -0.0743 -0.0140  0.5007
 4931W        W21065  17.892   0.406   2.311 -0.0289  0.3094  0.0685
 4932W        W21066  15.374  12.055   5.305 -0.1713 -0.0006  0.1072
 4933W        W21067  18.248  15.112  11.312  0.0318 -0.0016  0.0949
 4934W        W21068  18.071   8.802   1.098  0.0196  0.0300 -0.1901
 4935W        W21069  15.623  10.027  11.835 -0.0201  0.1231  0.1533
 4936W        W21070   7.674   0.488   4.847  0.0386 -0.0904  0.1454
 4937W        W21071  17.685   2.204   5.603 -0.0145 -0.2349 -0.2503
 4938W        W21072   9.312   6.972   1.389 -0.1759 -0.0558  0.0421
 4939W        W21073  16.823   0.974  13.980  0.1603  0.1799  0.3104
 4940W        W21074  14.167  12.514   0.027 -0.2787  0.4882  0.2094
 4941W        W21075   2.158  11.612   3.929 -0.0308 -0.0678 -0.1922
 4942W        W21076  15.373   2.915   4.194 -0.0992  0.2580  0.1302
 4943W        W21077  18.351   9.922  14.826  0.0536  0.0909 -0.1209
 4944W        W21078  10.780   0.989  11.128  0.0172  0.3431 -0.0197
 4945W        W21079  15.794  11.921  15.465  0.1712 -0.1901  0.0297
 4946W        W21080  14.394   3.991   2.949 -0.0073  0.0658 -0.2570
 4947W        W21081   3.013  11.782  14.409  0.0069 -0.3739 -0.0226
 4948W        W21082  13.946   4.421  11.022  0.1703  0.1496  0.1664
 4949W        W21083  16.783  14.642  14.390  0.3225  0.2815  0.0607
 4950W        W21084  13.586   1.303   0.961 -0.1276 -0.2992 -0.0641
 4951W        W21085   7.841  11.764   4.448  0.0085 -0.2500 -0.1045
 4952W        W21086  16.491   6.753   2.397  0.0413 -0.0157  0.1547
 4953W        W21087   7.788   7.873  12.246 -0.1668  0.2409 -0.0643
 4954W        W21088  11.699   4.468  12.929 -0.0272  0.0471  0.0510
 4955W        W21089  11.414  14.642  13.524  0.1537 -0.1074 -0.1515
 4956W        W21090   5.703  14.642  12.044 -0.0619 -0.4115 -0.0291
 4957W        W21091   8.661   8.880   0.268 -0.0563 -0.0369  0.0037
 4958W        W21092  12.925  13.751   2.810  0.1800 -0.1023 -0.2518
 4959W        W21093   8.985   8.207  11.892  0.0629 -0.2449 -0.0004
 4960W        W21094   3.350  17.518  12.537 -0.0096  0.2530 -0.1470
 4961W        W21095  15.797   8.051   1.386 -0.2262 -0.2512  0.1837
 4962W        W21096   9.579  17.245  14.358  0.0708  0.1958 -0.1044
 4963W        W21097  17.110   2.603  15.689 -0.0554 -0.2399  0.0542
 4964W        W21098   3.566  13.091  11.538 -0.0521 -0.2276  0.0286
 4965W        W21099  11.176   7.777  13.967 -0.3927  0.2208  0.1365
 4966W        W21100   3.170   0.092   3.763  0.1794 -0.0139 -0.1554
 4967W        W21101   4.138  14.823   3.891  0.2426 -0.3778 -0.0823
 4968W        W21102   4.081   9.922  12.506  0.1702 -0.1897 -0.0505
 4969W        W21103  10.866   2.882   3.240  0.1439  0.0935  0.0041
 4970W        W21104  15.358   0.088  10.133 -0.4180  0.0117  0.0242
 4971W        W21105   5.111  10.908  13.482 -0.0174  0.3659  0.1122
 4972W        W21106   2.600  13.538   1.306  0.1880  0.0273  0.4461
 4973W        W21107   1.568   9.366  12.004 -0.1225  0.0669  0.1619
 4974W        W21108  16.207   7.466   1.346  0.5210  0.2343  0.0820
 4975W        W21109   0.687   2.368  12.877  0.0368 -0.0524 -0.0936
 4976W        W21110   5.019   8.459  10.826  0.1480 -0.0269  0.1506
 4977W        W21111  12.431   4.642  10.295  0.1826  0.0343  0.0562
 4978W        W21112   7.051  17.109  11.073  0.4223 -0.0081 -0.1763
 4979W        W21113  11.367   6.116   2.864  0.1103 -0.0877  0.1513
 4980W        W21114   0.308  13.878   0.130  0.0114  0.2275 -0.0195
 4981W        W21115  18.319   4.981  13.811  0.0266 -0.2872 -0.1606
 4982W        W21116  17.425   7.923   3.487  0.0802  0.2722 -0.1841
 4983W        W21117   0.280   5.427   0.654  0.2555 -0.0280 -0.2089
 4984W        W21118   7.784  14.209   3.608 -0.1472 -0.0744 -0.1735
 4985W        W21119   3.141  12.898  11.450  0.3448  0.0919  0.2718
 4986W        W21120  15.771   8.276   0.377  0.1353 -0.1956  0.2281
 4987W        W21121   2.895  12.199   4.142  0.0970 -0.0756 -0.0959
 4988W        W21122  15.613   8.636  13.327 -0.0775  0.0124  0.1916
 4989W        W21123   8.650  15.704  13.945 -0.0349 -0.0001  0.1270
 4990W        W21124  17.220   1.214  13.677 -0.0850 -0.0568 -0.0653
 4991W        W21125   6.097   5.553  11.827  0.3796 -0.1046 -0.0226
 4992W        W21126   6.187   4.620  11.429  0.0326 -0.2796  0.3821
 4993W        W21127   2.600   2.687  10.907 -0.0962  0.0526 -0.0278
 4994W        W21128   3.648  15.130   4.996 -0.0161 -0.0767  0.0555
 4995W        W21129  15.112   4.181   4.587 -0.0441 -0.0854 -0.1656
 4996W        W21130   2.043  12.602   4.628 -0.0807  0.1918  0.1700
 4997W        W21131  16.548   2.767   0.876 -0.1154  0.1847 -0.1144
 4998W        W21132   9.258   9.151   0.200  0.0193  0.3465  0.2420
 4999W        W21133  13.981  12.977   0.122 -0.2611 -0.0543 -0.2139
 5000W        W21134  17.602  15.292   2.941 -0.1212  0.0296 -0.2238
 5001W        W21135   3.924   5.578   4.485 -0.0101  0.2683  0.0410
 5002W        W21136  17.315   7.732  12.113 -0.0087  0.0545  0.2043
 5003W        W21137   2.352   6.945   0.785  0.0314  0.1447 -0.1256
 5004W        W21138   7.330   8.923   5.762 -0.0059  0.0115 -0.1621
 5005W        W21139   1.662   1.747  10.907  0.1975  0.0670  0.1339
 5006W        W21140  18.300  12.543   0.874 -0.2372  0.1376  0.0827
 5007W        W21141  16.563   0.435  15.335  0.0354 -0.3229 -0.0934
 5008W        W21142  12.048   0.945  13.523  0.1508 -0.0812 -0.2953
 5009W        W21143   9.368   3.466  15.211  0.0835 -0.0128  0.2104
 5010W        W21144   0.839   3.915   4.121  0.2727  0.0824  0.3705
 5011W        W21145   6.105   2.867  13.993  0.2603 -0.0982  0.1088
 5012W        W21146   0.893  17.700   2.001  0.1412  0.1449  0.0914
 5013W        W21147  15.464  12.817  13.370  0.1428 -0.0841  0.0486
 5014W        W21148  18.295   1.089  11.005 -0.2095 -0.1198  0.1586
 5015W        W21149  14.658  15.423   2.650  0.0218  0.1017  0.0363
 5016W        W21150  10.942   5.240  14.247  0.1652 -0.0550 -0.1895
 5017W        W21151   7.340  13.908   1.668  0.3287 -0.1725  0.1405
 5018W        W21152  10.082  14.335   3.414 -0.1881  0.0701  0.1532
 5019W        W21153  14.753  14.711   4.343 -0.0002  0.3388  0.0216
 5020W        W21154  11.217   3.946  14.150  0.1397  0.1660 -0.1980
 5021W        W21155   9.092   7.082  14.889 -0.0663  0.0970  0.0565
 5022W        W21156   3.733  17.259  11.672 -0.0880 -0.1220  0.0684
 5023W        W21157   4.393  16.394   3.248  0.3654  0.1885  0.2970
 5024W        W21158   8.797  18.035  12.343  0.0028 -0.2679  0.0774
 5025W        W21159   6.799   0.164   4.392 -0.0764  0.4817 -0.1355
 5026W        W21160   9.885   2.593  13.574  0.0735 -0.0491 -0.1715
 5027W        W21161   5.279   6.795   0.585 -0.0814  0.0563 -0.1918
 5028W        W21162  14.731  15.467   1.708 -0.0009  0.1127 -0.1702
 5029W        W21163   2.020  15.260   3.860 -0.1320  0.0296  0.1937
 5030W        W21164   3.420   0.008  12.849 -0.1205 -0.2547  0.0799
 5031W        W21165   1.277   2.073   4.242  0.0863  0.0081 -0.2361
 5032W        W21166  12.885  18.265   1.621 -0.1040 -0.1831  0.3268
 5033W        W21167   7.704   1.642   4.402 -0.1102  0.2098 -0.0330
 5034W        W21168  18.331   7.053  11.311 -0.0435  0.0805  0.2180
 5035W        W21169   5.715   3.079  15.024 -0.2113  0.0906 -0.0490
 5036W        W21170  11.033   4.723   2.029 -0.0069  0.0719  0.1668
 5037W        W21171   7.336   7.733  13.717 -0.2769 -0.0367 -0.0546
 5038W        W21172  15.493  18.181   4.022 -0.1713  0.0456 -0.1971
 5039W        W21173  11.578   9.559  12.852  0.0968 -0.0528 -0.3616
 5040W        W21174   2.368   2.611   2.443 -0.1163  0.2396 -0.0949
 5041W        W21175   6.324   9.313   4.737 -0.0337 -0.5111  0.1393
 5042W        W21176  14.379   5.240  15.775  0.1488 -0.2606 -0.2932
 5043W        W21177   3.102   1.245  14.912 -0.1196  0.0052 -0.3254
 5044W        W21178   4.284  10.462   4.983  0.0384 -0.0903 -0.1031
 5045W        W21179   1.383   4.215  11.855  0.1147  0.0892 -0.1186
 5046W        W21180   0.981   7.350   0.550 -0.0044  0.2309  0.0178
 5047W        W21181   7.702  17.960  15.576  0.1476 -0.1008 -0.1446
 5048W        W21182   0.798  13.445  12.310  0.1407  0.0098  0.0451
 5049W        W21183   4.918   3.074  11.733 -0.1759 -0.3608 -0.1219
 5050W        W21184   1.549   3.341   0.344  0.3961 -0.1488 -0.1218
 5051W        W21185  18.035  15.161   2.106  0.3485  0.2327 -0.1026
 5052W        W21186  11.055  11.589   2.770 -0.0790 -0.2761 -0.0560
 5053W        W21187  10.254   4.153   5.738 -0.3171 -0.1101  0.1484
 5054W        W21188   2.176  12.197  11.607  0.0616 -0.0087 -0.2969
 5055W        W21189  17.156  14.583  13.925 -0.0919  0.3085 -0.2221
 5056W        W21190  16.719   2.209  11.709 -0.0455  0.2199  0.0233
 5057W        W21191  12.771   1.926  12.509 -0.1803 -0.2467 -0.3921
 5058W        W21192  16.223  18.347   9.763 -0.3518  0.1229  0.2923
 5059W        W21193  13.846   5.956   3.089 -0.0741  0.1459  0.3538
 5060W        W21194   2.617   6.580   2.842  0.0240  0.0731  0.4255
 5061W        W21195   9.555  11.061   2.391  0.2690  0.0885 -0.0638
 5062W        W21196  12.028   3.261  10.200 -0.2661  0.0567  0.3580
 5063W        W21197  10.974   7.948  15.085  0.0723 -0.2099 -0.1648
 5064W        W21198  14.762   6.739   4.653  0.1874  0.2342 -0.4114
 5065W        W21199   5.483  16.742   1.641 -0.3244 -0.0807 -0.0302
 5066W        W21200   6.527   8.671  14.435  0.0845  0.0001  0.0586
 5067W        W21201   9.233  15.021  12.283  0.0404  0.0808  0.1427
 5068W        W21202   6.503   4.986  10.052 -0.0769  0.0515  0.1157
 5069W        W21203  10.948   7.681   3.155  0.0332 -0.1107  0.2107
 5070W        W21204  14.763  18.379  15.357 -0.2909 -0.1424 -0.0359
 5071W        W21205   1.941  12.497  14.145 -0.1058  0.0814 -0.0347
 5072W        W21206  12.348   9.949   3.207 -0.1002 -0.0812  0.0556
 5073W        W21207  15.157  11.961  10.867  0.1379 -0.0181  0.1365
 5074W        W21208   5.495   0.012  14.737  0.0254  0.2910 -0.0533
 5075W        W21209   0.762  17.939   0.597 -0.1900 -0.0047  0.1122
 5076W        W21210  10.443  10.024   0.691 -0.0213 -0.0071  0.3508
 5077W        W21211   9.966   4.868  12.496 -0.1224  0.2311 -0.1447
 5078W        W21212   5.734  17.398   3.750  0.3394 -0.2100  0.2148
 5079W        W21213   9.227  11.910   5.672 -0.1396 -0.0755  0.0463
 5080W        W21214  18.185   1.056  13.433  0.5008  0.2498  0.0636
 5081W        W21215   1.044   0.671  13.179 -0.0579 -0.2917 -0.1416
 5082W        W21216   3.716  11.875   5.442 -0.2444  0.1897  0.0194
 5083W        W21217   9.365  18.115   2.090  0.3403 -0.0266 -0.1127
 5084W        W21218   8.030   5.768   3.622  0.2444  0.1928  0.0795
 5085W        W21219   4.184   5.824   5.340 -0.0020 -0.2808 -0.0947
 5086W        W21220   0.478   4.586   1.581  0.0823  0.1787  0.0892
 5087W        W21221  13.906   8.165  13.369 -0.3471  0.1005 -0.0715
 5088W        W21222  17.788   5.169  11.244  0.0126 -0.1538 -0.2099
 5089W        W21223  14.011  14.472   2.046 -0.2637  0.2229  0.0282
 5090W        W21224   4.720  10.289   1.280  0.0902  0.1135  0.2218
 5091W        W21225   3.926   3.996   3.540 -0.0905 -0.2028  0.0688
 5092W        W21226   0.226  16.396   4.161  0.1414  0.0903 -0.2629
 5093W        W21227   8.618   7.846   4.371 -0.3065  0.1553 -0.1237
 5094W        W21228  10.025   7.204   2.191 -0.0714  0.1799 -0.0953
 5095W        W21229  17.497   5.016   1.430 -0.1940  0.3350 -0.3870
 5096W        W21230  12.330   1.514  12.645 -0.0037  0.0962  0.0669
 5097W        W21231   3.448   8.111   4.981  0.2983  0.0943  0.1003
 5098W        W21232  11.783  15.748  12.388 -0.0415 -0.1486 -0.0576
 5099W        W21233   3.799   8.220  15.034  0.0937  0.0872 -0.0649
 5100W        W21234   6.870  11.474  12.883 -0.2250  0.0548 -0.0093
 5101W        W21235   1.990   4.628   5.432 -0.0858 -0.0924 -0.1348
 5102W        W21236   2.505  12.182   3.101  0.3683 -0.2578  0.0794
 5103W        W21237   5.827  11.138  14.272  0.0322 -0.0024 -0.3048
 5104W        W21238   4.873  10.517  15.593 -0.1448  0.0044 -0.2413
 5105W        W21239  15.542   1.239   0.259 -0.0151 -0.1869  0.0455
 5106W        W21240  11.355   0.018   3.897  0.3261 -0.1430 -0.1469
 5107W        W21241  16.277  17.784   2.940  0.0302 -0.1751 -0.0463
 5108W        W21242  15.458  17.303  13.240  0.3908  0.0284 -0.1720
 5109W        W21243   2.726   8.855  12.860  0.0496 -0.2186 -0.0517
 5110W        W21244   3.907  11.864  14.164  0.0484  0.0596 -0.0080
 5111W        W21245  10.400   5.788  10.516 -0.0824  0.0481  0.1807
 5112W        W21246   8.832   5.166   1.404  0.0309  0.3275  0.1410
 5113W        W21247  11.125  11.736  11.087 -0.1176  0.1052 -0.1920
 5114W        W21248  12.152  10.377   3.939 -0.0129  0.1477  0.0349
 5115W        W21249  17.602  14.588   0.264  0.0310 -0.2024  0.1459
 5116W        W21250   4.966  16.190   4.417  0.2638  0.2615 -0.0739
 5117W        W21251   9.030  13.053   3.979  0.0750 -0.0729  0.1468
 5118W        W21252  14.692   6.488  10.410  0.0124 -0.0714  0.0218
 5119W        W21253   7.676  12.533  15.224  0.2411 -0.1427  0.5283
 5120W        W21254   7.153   9.400   1.826 -0.2592  0.3617 -0.2319
 5121W        W21255   7.165   7.614   0.937  0.2409  0.0362 -0.2638
 5122W        W21256  17.293  17.778   1.030 -0.4347  0.4113 -0.2158
 5123W        W21257  16.262   8.016   0.421  0.2796  0.0369 -0.0001
 5124W        W21258  10.276   9.047   0.849  0.1128  0.0602  0.3009
 5125W        W21259  12.094  18.400  14.801 -0.2919 -0.2124 -0.0946
 5126W        W21260  10.634   3.729  15.201 -0.0084 -0.1526  0.0560
 5127W        W21261  10.824   5.726   0.668 -0.0368 -0.0785 -0.2523
 5128W        W21262   2.722   6.209   1.404 -0.1689 -0.2132  0.0141
 5129W        W21263   7.877   4.234  15.414  0.0622  0.0783 -0.0145
 5130W        W21264   2.149   4.017   4.737  0.2827 -0.1279 -0.1560
 5131W        W21265  15.955  10.749   2.950  0.1857  0.2016 -0.0081
 5132W        W21266   7.237  11.043   1.514 -0.0759 -0.0127 -0.1123
 5133W        W21267   8.464   1.765   3.656 -0.2172 -0.0646 -0.3109
 5134W        W21268  14.319  10.312  15.548 -0.3309 -0.1691 -0.0896
 5135W        W21269  14.017  14.040   5.193 -0.1532 -0.0073  0.0783
 5136W        W21270   7.129   9.986  14.546 -0.0731 -0.2290 -0.1925
 5137W        W21271  10.866  13.529  11.923  0.0907  0.3165  0.1611
 5138W        W21272   8.936  12.988   4.502  0.0348 -0.0201 -0.1940
 5139W        W21273  13.928  17.580   2.121  0.0223  0.1905 -0.2338
 5140W        W21274   0.160  17.786   3.976  0.0868 -0.3768  0.0558
 5141W        W21275  10.253   8.826   1.344 -0.0060 -0.0367 -0.0778
 5142W        W21276   2.217   7.603  12.192  0.0248 -0.0870 -0.1700
 5143W        W21277  15.543   9.203  14.282 -0.1045  0.1736  0.1366
 5144W        W21278   8.771  16.943   1.497  0.0983 -0.3735 -0.0919
 5145W        W21279   9.407  10.704   4.824 -0.1777 -0.2410 -0.0449
 5146W        W21280   5.369  14.984  15.001  0.2091 -0.2822 -0.0523
 5147W        W21281  16.639   7.358  13.668 -0.0441  0.0555 -0.2568
 5148W        W21282   3.386  18.104   0.848 -0.2081  0.1428  0.1363
 5149W        W21283  17.723  15.263  10.266 -0.0246 -0.0182 -0.1269
 5150W        W21284   8.095  16.571  14.953 -0.1099 -0.0676  0.1720
 5151W        W21285   3.128   4.235  14.034  0.1143 -0.0273 -0.0587
 5152W        W21286  17.614  17.912  13.785  0.0165  0.1895 -0.0202
 5153W        W21287   7.588   8.550  14.091  0.3457 -0.0498  0.0220
 5154W        W21288   4.653   4.114   4.230 -0.1160 -0.0589 -0.2410
 5155W        W21289  11.854   7.440   3.339  0.0381  0.0470  0.1472
 5156W        W21290  12.418   9.638   4.386  0.0681  0.1824 -0.1973
 5157W        W21291  17.620   0.093   3.349 -0.2197 -0.2945  0.2093
 5158W        W21292  13.969  17.569   2.622 -0.1756 -0.1325  0.0271
 5159W        W21293   3.542  12.128   1.882  0.2080  0.2879 -0.0418
 5160W        W21294   8.044  17.328   3.700 -0.1009 -0.0371 -0.1563
 5161W        W21295   4.742   9.637  11.393  0.2025 -0.1955 -0.1009
 5162W        W21296   5.799  11.887  14.603 -0.0681  0.3103  0.2073
 5163W        W21297   5.608   3.506   0.032  0.3895 -0.0763  0.0973
 5164W        W21298   8.503   7.956  15.841 -0.1994  0.1693  0.2086
 5165W        W21299  17.245  15.910  15.711  0.1194  0.0237  0.0574
 5166W        W21300  10.822  16.594   3.854 -0.0135 -0.1153 -0.1363
 5167W        W21301  15.438  11.797   4.000  0.0335  0.0471 -0.1568
 5168W        W21302   1.294  17.927  11.346 -0.3161 -0.0032 -0.0323
 5169W        W21303  16.772  13.822   3.129 -0.0973  0.0248 -0.2285
 5170W        W21304   0.917  11.740  14.486  0.0074  0.0789 -0.0199
 5171W        W21305   7.804  10.087  15.086  0.4502  0.0113 -0.0234
 5172W        W21306   5.747  12.574   1.616  0.4034  0.0929  0.1590
 5173W        W21307   0.001  15.637  12.577  0.2592 -0.0067 -0.2400
 5174W        W21308  16.997   1.096   4.030  0.2406  0.0604 -0.1038
 5175W        W21309  12.723  16.606  13.080  0.0716  0.0509  0.3758
 5176W        W21310  12.484  11.373   1.472  0.1482  0.0695 -0.2230
 5177W        W21311  12.309   6.250  13.909 -0.4300 -0.1203 -0.0855
 5178W        W21312   8.304  18.192   4.654  0.1699 -0.0986 -0.1208
 5179W        W21313   7.177   0.723  13.630 -0.0166  0.0925 -0.0325
 5180W        W21314  15.720   4.626   3.856  0.1312  0.0907  0.0358
 5181W        W21315  12.582   2.682  14.656 -0.2072  0.1249 -0.2295
 5182W        W21316  10.759  17.087  11.261 -0.0140  0.0753 -0.0710
 5183W        W21317  12.101   8.592  10.833  0.0186 -0.0637  0.1069
 5184W        W21318   2.321   8.551   1.905 -0.0633 -0.0706  0.0962
 5185W        W21319   8.272  17.006   1.753 -0.1490  0.2680  0.0199
 5186W        W21320  17.367  16.714   2.874 -0.2275 -0.0273 -0.0918
 5187W        W21321   6.273   7.649  13.452  0.1615 -0.1914 -0.1981
 5188W        W21322  16.046  14.947   3.235  0.1797 -0.2653  0.2363
 5189W        W21323   3.445  16.982   4.170  0.1454 -0.0528 -0.1283
 5190W        W21324  11.575  14.302  11.205  0.1434 -0.0163  0.0376
 5191W        W21325   4.830   9.405   1.894  0.0352  0.1138 -0.0658
 5192W        W21326  11.657   3.954  14.917 -0.2607 -0.2437 -0.1004
 5193W        W21327  10.910  17.856   0.055  0.0600 -0.2716 -0.1930
 5194W        W21328  11.910  18.299   3.256 -0.0355 -0.0270  0.0021
 5195W        W21329  10.745   9.582   4.293  0.2172  0.0378  0.1480
 5196W        W21330   2.200  10.482  15.218 -0.1716  0.2462  0.0601
 5197W        W21331  13.500   6.710   2.609  0.1132 -0.0150 -0.5172
 5198W        W21332   7.063  14.927  13.320  0.1287 -0.2697 -0.0840
 5199W        W21333  12.031   3.738  11.845 -0.2741  0.0922 -0.3694
 5200W        W21334   1.769   7.348  10.685 -0.2152 -0.0804 -0.0699
 5201W        W21335   7.752  16.902   2.969  0.0836 -0.3774  0.2068
 5202W        W21336   3.700   3.234  15.882  0.1222 -0.1467  0.0577
 5203W        W21337  15.435  11.232  14.151 -0.0003  0.0611 -0.1508
 5204W        W21338   8.152   0.702  11.932 -0.1181 -0.0195 -0.1102
 5205W        W21339   8.308   4.643  14.160 -0.0903 -0.0230 -0.0846
 5206W        W21340   3.515  18.155   5.368 -0.1298  0.1683  0.0050
 5207W        W21341   6.814   6.007   4.319  0.0441 -0.2225 -0.2809
 5208W        W21342  11.120  12.264  15.517  0.0585 -0.1013 -0.0817
 5209W        W21343   4.574   9.644  15.095 -0.1713 -0.0494 -0.2459
 5210W        W21344   3.435  12.533   5.606  0.4051  0.0689 -0.1488
 5211W        W21345  13.655   0.446   2.978  0.2250  0.0929  0.0704
 5212W        W21346   1.040   0.253   4.534  0.0401 -0.2276  0.1638
 5213W        W21347   8.564   8.019   3.528  0.0245 -0.2037  0.0119
 5214W        W21348  14.514   4.723   1.039  0.0153  0.1064 -0.0961
 5215W        W21349   0.266  14.881  14.238 -0.1468  0.0275 -0.0940
 5216W        W21350  13.632  16.511   3.455 -0.1714  0.2064  0.1636
 5217W        W21351   3.707  18.201   2.377 -0.1031 -0.0898 -0.2076
 5218W        W21352   2.061  18.139  10.664  0.2442  0.1084  0.1491
 5219W        W21353  13.266  14.630   0.719  0.1435  0.0268  0.0318
 5220W        W21354   8.203  10.940   2.436  0.0882 -0.3269  0.2060
 5221W        W21355   5.979  10.960   4.932  0.4763  0.3329  0.3084
 5222W        W21356  13.748   1.522   3.741 -0.2645  0.1943 -0.2561
 5223W        W21357  16.507  11.288   4.077  0.1308 -0.0199  0.0567
 5224W        W21358   7.793   3.095  10.249 -0.0842 -0.2336  0.1662
 5225W        W21359   0.184   9.389   0.670  0.3385  0.1099  0.0294
 5226W        W21360   0.009   8.129   2.005 -0.0233  0.1849 -0.1561
 5227W        W21361  11.582   7.278  11.530  0.0896  0.0545  0.0258
 5228W        W21362   8.513   8.853   2.263  0.1314 -0.1469  0.0998
 5229W        W21363  14.760  10.772  13.753 -0.0100  0.0056 -0.2809
 5230W        W21364   7.277  12.796  14.350 -0.0730 -0.2432 -0.1889
 5231W        W21365   4.710  17.136  14.943  0.0392  0.1211  0.0606
 5232W        W21366  13.151  10.297  11.563  0.0536 -0.1736  0.1936
 5233W        W21367   8.055  13.276  14.894  0.0442  0.1560 -0.0554
 5234W        W21368  11.799   8.795   3.488 -0.2186 -0.0225 -0.2459
 5235W        W21369   3.141   1.020  14.433 -0.2113 -0.0234  0.1519
 5236W        W21370  10.554  15.236   2.497 -0.3792 -0.1290  0.1713
 5237W        W21371  14.865   9.005  11.907 -0.0529 -0.2069 -0.0424
 5238W        W21372   1.130  11.036   1.081  0.0192 -0.1940 -0.0506
 5239W        W21373  12.614  11.618  11.023 -0.3568 -0.0297 -0.2973
 5240W        W21374   6.909  14.454  13.632 -0.1067 -0.0199 -0.5631
 5241W        W21375   9.116   2.978  14.935  0.1074  0.2032  0.0363
 5242W        W21376   9.147  12.801   4.905 -0.1570 -0.3048  0.1879
 5243W        W21377  10.796   3.106   4.823  0.1298 -0.4067  0.1126
 5244W        W21378   8.793   6.212  12.582 -0.3489 -0.0396 -0.1389
 5245W        W21379   9.261   1.092  14.091 -0.1504  0.0260  0.0665
 5246W        W21380   0.053   8.344   1.189 -0.3661 -0.1190 -0.0929
 5247W        W21381   1.761   6.563  11.900 -0.0119 -0.0059 -0.0435
 5248W        W21382   9.440   2.132   4.998 -0.0370  0.2472  0.1013
 5249W        W21383   1.767   1.490   2.531 -0.4135 -0.1320 -0.1111
 5250W        W21384  11.645   8.378   2.157 -0.0312  0.3523 -0.2762
 5251W        W21385   1.723   1.748   4.480 -0.1862  0.0108  0.0454
 5252W        W21386  11.325   4.256  14.650  0.0239 -0.1429 -0.0661
 5253W        W21387  17.370   4.916   4.128 -0.0607  0.0801 -0.0122
 5254W        W21388  16.480  14.583  11.216 -0.1552 -0.0710 -0.0095
 5255W        W21389  14.374   3.796   0.479 -0.1780  0.0900 -0.0383
 5256W        W21390   7.126  17.873   3.657  0.1807 -0.1509  0.1881
 5257W        W21391   8.244   6.088   4.468 -0.2062 -0.0782  0.0661
 5258W        W21392  12.038   2.524   4.073  0.2837 -0.3263  0.0705
 5259W        W21393   7.055  15.891   2.447 -0.0420 -0.1002  0.0378
 5260W        W21394  10.096  14.182   2.880 -0.0229 -0.0461  0.2750
 5261W        W21395  13.406  11.244  15.659 -0.2189  0.0376  0.1224
 5262W        W21396   2.143  16.881   1.332 -0.1222  0.0674  0.0873
 5263W        W21397   1.398   4.657   9.920  0.1427  0.2302  0.5003
 5264W        W21398   4.563   3.807  14.778 -0.2078 -0.1888  0.2659
 5265W        W21399  15.179  11.356   2.170 -0.4092  0.1215 -0.1501
 5266W        W21400   1.293  13.697  14.203  0.4784  0.1792 -0.3930
 5267W        W21401  15.053  11.742   1.858 -0.1183 -0.1746 -0.0585
 5268W        W21402  12.523   6.734   3.576  0.1146 -0.2049 -0.1277
 5269W        W21403  15.604  12.199  12.040  0.1567 -0.1571 -0.0918
 5270W        W21404  12.250   1.548   0.823 -0.1869 -0.0093 -0.1569
 5271W        W21405  14.673  14.122   3.229 -0.1138  0.1963  0.1777
 5272W        W21406  17.798  12.434   3.554  0.0223 -0.0235  0.2336
 5273W        W21407   4.672  11.246  10.667  0.0316 -0.0140 -0.2345
 5274W        W21408  16.305  11.237  13.671 -0.0262  0.1710 -0.1342
 5275W        W21409   1.020   1.137   4.225 -0.1014  0.0175  0.3371
 5276W        W21410   1.828  13.531  12.558 -0.0213 -0.2182  0.2880
 5277W        W21411  14.959  15.697   3.013 -0.3033  0.1158  0.1030
 5278W        W21412  16.021   1.113   3.260  0.0104 -0.1592  0.0767
 5279W        W21413   5.799   0.728  15.245  0.2006 -0.2137  0.2855
 5280W        W21414   8.387  17.954   5.130  0.0319 -0.2487 -0.2543
 5281W        W21415  16.569  16.713   3.765 -0.1516  0.3019  0.0762
 5282W        W21416  14.882  12.166   4.015  0.1318 -0.4336  0.0456
 5283W        W21417  16.321   5.329   0.848  0.0401  0.2964  0.0651
 5284W        W21418   3.594  12.800  13.911  0.1605  0.2472  0.0907
 5285W        W21419  14.994  15.900   1.705 -0.2184 -0.1782 -0.2515
 5286W        W21420   1.151   1.203   1.872 -0.0428 -0.0155  0.2159
 5287W        W21421  14.387  10.946   1.955  0.2094  0.1170  0.0494
 5288W        W21422  14.963   8.863   1.961 -0.1622  0.1555  0.1099
 5289W        W21423  12.280  12.717   1.734 -0.3705  0.2960  0.0108
 5290W        W21424  15.687   4.465   3.201  0.0066  0.1857 -0.0485
 5291W        W21425  18.068   8.871   0.552  0.2355  0.2321  0.0256
 5292W        W21426   7.740  12.911  14.178 -0.0702  0.0771 -0.0128
 5293W        W21427  11.765   2.408  14.599 -0.0038  0.1853  0.0443
 5294W        W21428   2.184  11.539  13.872 -0.0031 -0.0729  0.2853
 5295W        W21429   2.463   8.827  13.903 -0.4044 -0.0044  0.1338
 5296W        W21430   7.969   9.007  14.662 -0.0711  0.1919 -0.0268
 5297W        W21431   7.524   9.019  13.303 -0.0615 -0.2992 -0.1430
 5298W        W21432   6.253  15.239  15.261 -0.0880 -0.3131  0.1824
 5299W        W21433  10.787  18.423   4.949  0.2166 -0.2747  0.1279
 5300W        W21434   2.419  17.049  13.944 -0.2079  0.0535 -0.0721
 5301W        W21435   9.681   6.173   0.126 -0.0219  0.2540 -0.1819
 5302W        W21436   1.783  10.289   4.341 -0.0263 -0.0387 -0.1025
 5303W        W21437  11.756  16.400   4.498 -0.2409  0.0110 -0.1960
 5304W        W21438  14.600   9.012   5.290 -0.1561 -0.0680  0.1552
 5305W        W21439  16.471   9.651  12.201 -0.0684 -0.1329 -0.2759
 5306W        W21440   6.985  11.405   1.334 -0.2884 -0.3107  0.2445
 5307W        W21441   3.800   4.519  13.655  0.1942 -0.1669  0.0511
 5308W        W21442  14.268  10.426  11.103 -0.1247 -0.0401 -0.0870
 5309W        W21443   6.356   4.083  10.187  0.0985  0.0828  0.1904
 5310W        W21444  13.270   5.099   3.943 -0.0631  0.3580 -0.0420
 5311W        W21445   1.297   3.531  12.642  0.0724 -0.1143  0.0594
 5312W        W21446  16.510  13.307  14.367 -0.0357  0.1758 -0.0392
 5313W        W21447   9.333   4.967  12.028  0.2668 -0.0467  0.1313
 5314W        W21448   2.934   6.421  12.070 -0.0158  0.0837  0.0019
 5315W        W21449   0.952   0.887  14.078 -0.0668 -0.1126 -0.2732
 5316W        W21450  14.788   2.925  13.009 -0.0419 -0.0223  0.2514
 5317W        W21451  16.481   2.067   4.210 -0.1522  0.0645  0.0363
 5318W        W21452   4.612   8.762   3.953 -0.0318  0.2238  0.0264
 5319W        W21453   6.593   5.173   5.477 -0.1418  0.1404 -0.0236
 5320W        W21454   2.915   1.765  11.175 -0.1500 -0.2565  0.2406
 5321W        W21455  13.915   8.834  12.024  0.2410 -0.0554 -0.0038
 5322W        W21456   0.318  13.729  10.749 -0.1076  0.2032  0.0746
 5323W        W21457  11.734  15.706  15.907 -0.1195  0.1162 -0.0143
 5324W        W21458  11.554  11.813   5.200 -0.2935  0.0921 -0.4484
 5325W        W21459  14.753   7.836   0.415 -0.0641  0.0771 -0.1846
 5326W        W21460   0.834   7.269   2.841  0.1019  0.0031  0.0910
 5327W        W21461   1.011   3.723   5.074  0.2226  0.0891  0.0387
 5328W        W21462   9.081  12.503  15.885  0.0359  0.1527  0.1886
 5329W        W21463  10.740   3.914   4.534 -0.1932  0.0964 -0.1730
 5330W        W21464   0.222   2.092   9.881 -0.2458  0.0050  0.2433
 5331W        W21465  12.606  13.482  12.992 -0.2248  0.0017 -0.2168
 5332W        W21466  11.998   9.536  15.205 -0.1025  0.1157 -0.1187
 5333W        W21467   0.899  16.748   0.130 -0.2312  0.0095  0.2909
 5334W        W21468   9.748  14.256  11.750  0.1293 -0.1352 -0.1473
 5335W        W21469  10.327  14.756   3.230  0.1425 -0.1594 -0.0151
 5336W        W21470   8.528  10.425   3.738  0.0507  0.0022 -0.2961
 5337W        W21471   9.870  14.885   1.629  0.1033  0.1350  0.0454
 5338W        W21472   5.535   7.670  12.370  0.0280  0.1128 -0.0315
 5339W        W21473  15.480   7.989   0.033  0.0406 -0.1318 -0.0314
 5340W        W21474  11.549   9.145   3.785 -0.0389 -0.2187 -0.3790
 5341W        W21475   0.839  10.527  15.028 -0.1187 -0.2237  0.0550
 5342W        W21476  13.152   7.009   5.739 -0.1830 -0.1253 -0.2721
 5343W        W21477   2.910  16.219  12.116  0.0011  0.1060 -0.2106
 5344W        W21478  16.692  10.630   4.816 -0.3433 -0.1453  0.3395
 5345W        W21479   5.725   6.277  14.931  0.3328 -0.1934  0.1730
 5346W        W21480  17.850  10.569   2.577  0.1939 -0.2072  0.1057
 5347W        W21481   1.177   9.487  10.626 -0.0085 -0.0468 -0.2664
 5348W        W21482   8.543  12.773  12.565 -0.0638  0.1296  0.1395
 5349W        W21483   5.754   8.543   3.577  0.0041 -0.2121  0.1595
 5350W        W21484  18.219   3.430   1.043  0.1342  0.0606  0.0495
 5351W        W21485  14.508  13.197   4.231  0.0714 -0.2053 -0.0833
 5352W        W21486   0.376  17.107   0.904 -0.1463  0.0549 -0.0510
 5353W        W21487  11.251   4.040   3.270  0.2279 -0.2451  0.2213
 5354W        W21488  10.658   1.206  15.248 -0.1132  0.1095 -0.0444
 5355W        W21489   8.136   5.694   1.942  0.1614  0.0583  0.0969
 5356W        W21490  17.904  13.172  13.193 -0.3778  0.0198 -0.2453
 5357W        W21491  11.050   7.760   5.562  0.1976 -0.2740  0.0688
 5358W        W21492   9.309  16.175   1.144 -0.0767  0.0913 -0.0635
 5359W        W21493   9.659   4.555  11.147 -0.0058 -0.0218 -0.0713
 5360W        W21494  18.163  16.101  13.736 -0.0775 -0.2601 -0.0328
 5361W        W21495   7.855  14.440  14.794  0.0125  0.2505  0.1904
 5362W        W21496  13.417   3.593  13.588 -0.1617  0.4196  0.0225
 5363W        W21497   7.034   3.842  14.907 -0.2321  0.3784 -0.0887
 5364W        W21498   1.857   7.953   3.089 -0.1751 -0.0703  0.1932
 5365W        W21499   7.270   6.891  15.156  0.2822  0.3335 -0.1994
 5366W        W21500  13.455   0.737  11.208 -0.1579 -0.2493 -0.1353
 5367W        W21501   5.187   7.881   4.707 -0.0982 -0.1614 -0.0710
 5368W        W21502   7.643   1.569  12.360  0.1329  0.0786 -0.2006
 5369W        W21503   7.596   1.499   0.181 -0.2739 -0.1469  0.1497
 5370W        W21504   0.427  11.482  14.204 -0.0933  0.0377 -0.2094
 5371W        W21505   2.017  11.173   0.071 -0.2060 -0.0407  0.2493
 5372W        W21506   5.006  12.838  14.884  0.1055 -0.1680  0.0784
 5373W        W21507  11.015  15.257  12.887  0.0735 -0.0228  0.0197
 5374W        W21508   5.686   3.657  13.697  0.1252 -0.0282  0.1324
 5375W        W21509   9.099   4.335   5.640  0.3013  0.3136 -0.0989
 5376W        W21510   7.988  18.418   0.652 -0.0990 -0.1218  0.0901
 5377W        W21511  12.465   8.581   4.319 -0.5149 -0.1238  0.0159
 5378W        W21512   8.238   4.489  13.466  0.0411 -0.0084  0.0150
 5379W        W21513  13.912  13.500  10.283 -0.5008 -0.0736 -0.0991
 5380W        W21514   1.871  14.209   3.703 -0.1707 -0.0280  0.2331
 5381W        W21515  16.219  14.856   1.844 -0.3174  0.3201  0.1927
 5382W        W21516   9.538  18.195   4.949 -0.1938 -0.0339 -0.0048
 5383W        W21517   4.034  17.524   1.120 -0.3017 -0.2674 -0.5100
 5384W        W21518  15.949   6.922   2.341  0.0052  0.0286 -0.0482
 5385W        W21519   1.791  10.334   4.823 -0.3875 -0.2809 -0.0346
 5386W        W21520  13.804   5.772   4.430 -0.2356 -0.1599  0.1735
 5387W        W21521   3.869  11.038  14.673  0.0728  0.0934  0.0095
 5388W        W21522   3.917  14.791   2.285  0.0501 -0.0154 -0.1940
 5389W        W21523  15.635  15.605   4.940 -0.0512  0.1519  0.2970
 5390W        W21524  16.956  11.895   1.983 -0.0832  0.3978  0.4928
 5391W        W21525   8.050   0.229   1.898  0.0032  0.1007 -0.1081
 5392W        W21526   7.741   7.903   2.564  0.2202 -0.0231 -0.1295
 5393W        W21527   0.859  10.960  15.397  0.0753  0.0436 -0.1539
 5394W        W21528   6.176  14.245  12.931  0.1775 -0.2534 -0.1038
 5395W        W21529  10.444  15.461   5.666  0.0055  0.0972  0.2909
 5396W        W21530   2.705   0.893  12.804  0.0970 -0.1846 -0.0834
 5397W        W21531  17.813   9.058   4.918  0.1576 -0.1448 -0.3269
 5398W        W21532   9.106   6.024   0.964  0.1536 -0.1504 -0.2035
 5399W        W21533  11.987  14.874  15.629 -0.0722 -0.0741 -0.0420
 5400W        W21534   3.083   7.185   2.263 -0.0206  0.0560 -0.1304
 5401W        W21535  10.884  12.481   0.400  0.0483 -0.0203  0.2575
 5402W        W21536  11.443   1.583  13.073 -0.0698 -0.2767 -0.3594
 5403W        W21537  13.952  10.214   0.958  0.1485  0.0085 -0.1352
 5404W        W21538   0.353  13.239  13.611  0.2522  0.0949 -0.2553
 5405W        W21539   5.034   5.785   3.364 -0.1125  0.1017 -0.2169
 5406W        W21540   2.636  17.913   1.257 -0.1803  0.0268 -0.0640
 5407W        W21541   4.012   3.442  12.188 -0.1250 -0.1195  0.0641
 5408W        W21542   5.889  13.474   3.794  0.2797 -0.1031 -0.4799
 5409W        W21543   2.014  17.112   4.245  0.1773  0.0156  0.1410
 5410W        W21544   4.847   7.036   2.947 -0.0940 -0.1057 -0.2868
 5411W        W21545  16.416  13.275   3.698  0.0028 -0.1183 -0.0693
 5412W        W21546   9.289  17.023   1.625  0.0545 -0.1100  0.1867
 5413W        W21547  15.455   9.658  14.477  0.1537  0.3978  0.0977
 5414W        W21548  17.123   9.165  15.892  0.2492  0.1984 -0.3365
 5415W        W21549   9.747   2.522   1.598 -0.0737 -0.2086  0.0033
 5416W        W21550   4.521  15.119  12.051 -0.0783  0.1019  0.0713
 5417W        W21551  13.201  12.872  14.795  0.2362 -0.0934 -0.1073
 5418W        W21552   4.499   2.359  12.688 -0.1852 -0.1306 -0.0736
 5419W        W21553   2.712   5.720  15.393  0.2726 -0.0857  0.0967
 5420W        W21554  13.269  14.160   4.705 -0.2459 -0.0884 -0.1619
 5421W        W21555   9.267   8.148  12.345  0.3114  0.3215  0.0367
 5422W        W21556  10.797  13.580  14.155 -0.0521 -0.1274  0.2111
 5423W        W21557  14.284  16.222  13.076  0.3908 -0.1886 -0.1729
 5424W        W21558   0.931   2.048  15.766 -0.0859  0.1173 -0.0568
 5425W        W21559  13.759   7.880   2.018 -0.2213 -0.0430  0.0330
 5426W        W21560  10.189  16.026   2.163 -0.0262 -0.0847  0.4726
 5427W        W21561  17.624   8.428   2.725 -0.3210  0.2103 -0.0395
 5428W        W21562  14.327   3.806  12.716  0.0951  0.2141 -0.0702
 5429W        W21563  13.982   7.626  13.467  0.1523 -0.1034 -0.0497
 5430W        W21564   5.892   9.966  11.558  0.1002 -0.1338 -0.0335
 5431W        W21565   4.663  14.972   5.027  0.2078 -0.4484  0.2520
 5432W        W21566   3.358   0.733  15.758 -0.2475  0.0370 -0.1511
 5433W        W21567   4.038   5.598  12.789 -0.3059  0.1106  0.1410
 5434W        W21568   4.629   6.036  15.408  0.2282 -0.1319 -0.3140
 5435W        W21569   7.252   7.222   3.404  0.5088  0.0885  0.4273
 5436W        W21570   9.052  13.807   0.415 -0.1039 -0.2121  0.1405
 5437W        W21571  11.293  14.786  14.785 -0.2336  0.0575  0.0305
 5438W        W21572  14.330   8.977   0.461 -0.0502 -0.1366  0.1080
 5439W        W21573  10.680   4.013  12.005  0.0825 -0.0196 -0.0314
 5440W        W21574   3.654  13.771   3.253 -0.1570  0.0722 -0.2199
 5441W        W21575  16.463   5.930   0.351  0.0397 -0.0007  0.0376
 5442W        W21576  11.180  10.271   1.732  0.0658 -0.0065  0.2677
 5443W        W21577  11.751   4.141  13.609 -0.0049  0.1824  0.2813
 5444W        W21578   3.714  13.537   1.879  0.4261  0.0281  0.0006
 5445W        W21579  13.449  16.757  15.206  0.0087  0.0800 -0.4946
 5446W        W21580  16.790  14.429  15.785  0.0922 -0.0040  0.0620
 5447W        W21581  18.283   2.450  11.277  0.1653  0.5262 -0.0368
 5448W        W21582   1.840  17.691  11.278 -0.0780  0.0178  0.2658
 5449W        W21583  16.491   4.398  13.331 -0.0348  0.0856  0.1067
 5450W        W21584  13.927  10.368   2.722 -0.2772  0.0274 -0.0752
 5451W        W21585  15.843   8.303   5.086  0.1937  0.0430  0.1852
 5452W        W21586   8.835   5.066  12.028 -0.2450 -0.0607  0.3938
 5453W        W21587  10.282   4.616  14.729 -0.1176  0.2516 -0.0528
 5454W        W21588  15.032  14.339   0.688  0.0539 -0.0118  0.2499
 5455W        W21589  14.560   9.455   5.508  0.1431 -0.1708  0.0329
 5456W        W21590   6.685   5.559   1.811 -0.2741  0.0850 -0.0355
 5457W        W21591  15.935  10.993   5.256  0.1191  0.2850 -0.0522
 5458W        W21592  17.455  16.670   1.825  0.2059  0.2142  0.3001
 5459W        W21593   2.239  12.521   0.835 -0.4922 -0.1104 -0.0752
 5460W        W21594   4.406  17.119   4.862 -0.0315  0.0237 -0.0371
 5461W        W21595   3.190  16.195   1.736 -0.1823  0.1032  0.0571
 5462W        W21596  14.510  15.023   1.313  0.3055 -0.1758  0.1095
 5463W        W21597   0.432   1.497   2.226 -0.4048 -0.1487 -0.0840
 5464W        W21598  11.208   5.625   5.998 -0.1436  0.1453 -0.1611
 5465W        W21599   2.721   3.522  13.486 -0.0384  0.2272  0.0554
 5466W        W21600  11.353   9.883   5.562  0.0692  0.2233 -0.0817
 5467W        W21601  14.574   3.465   1.677 -0.2644 -0.0334  0.1225
 5468W        W21602  10.701   7.682  14.745  0.0678 -0.0653  0.1954
 5469W        W21603   5.831   2.381  10.861 -0.2703 -0.2206 -0.0563
 5470W        W21604   3.781   1.936   4.555 -0.0267 -0.0915 -0.1287
 5471W        W21605  16.016  18.222  13.190 -0.4927 -0.0490  0.0092
 5472W        W21606  10.221   3.939  12.642  0.2411  0.1273  0.3839
 5473W        W21607   7.434  11.033   0.091  0.1301 -0.0161  0.1549
 5474W        W21608  11.161   2.194   3.782 -0.0841  0.4785  0.2244
 5475W        W21609   1.147   5.619  15.165  0.2053  0.4651 -0.0564
 5476W        W21610   2.469  17.576   3.235  0.0140 -0.2314 -0.0060
 5477W        W21611   3.113   7.975  14.905  0.2211 -0.2550  0.0449
 5478W        W21612   2.058   3.136   0.031 -0.2427  0.2068  0.1816
 5479W        W21613  13.758   4.588  14.459 -0.0348 -0.2299 -0.2563
 5480W        W21614  15.340  14.621   1.877 -0.3878  0.1670 -0.0364
 5481W        W21615   3.206   0.926   0.381  0.2516 -0.2371  0.0089
 5482W        W21616  12.665  13.568   3.802 -0.2089 -0.0217 -0.2405
 5483W        W21617  12.236  13.530   0.121 -0.0716  0.0482 -0.2376
 5484W        W21618   4.931   4.258   4.752  0.1000  0.0108 -0.0487
 5485W        W21619  15.266   4.029  15.474 -0.0254  0.2007 -0.2189
 5486W        W21620   1.645   3.532  11.540 -0.3961  0.1413 -0.2373
 5487W        W21621  12.185  17.644  13.098  0.0047 -0.1627  0.3228
 5488W        W21622   1.597   1.713  12.861  0.1540 -0.1277 -0.3268
 5489W        W21623   8.188  10.222   4.073 -0.0527 -0.2603  0.1159
 5490W        W21624  12.436  18.117  11.455 -0.2031 -0.3021 -0.0899
 5491W        W21625   1.267   0.148   0.576  0.0198  0.0666  0.1242
 5492W        W21626   8.781  16.319  13.069 -0.0005  0.3901  0.0390
 5493W        W21627  16.653  11.901  13.329  0.1446  0.0619 -0.1714
 5494W        W21628   0.136  11.667   2.443  0.2086  0.0867 -0.2234
 5495W        W21629   7.530   9.061  11.524  0.3308 -0.0003  0.2869
 5496W        W21630   8.511   8.900  12.162  0.0525  0.1386 -0.1051
 5497W        W21631   5.120  11.393  10.898  0.1433 -0.1651 -0.1247
 5498W        W21632   1.141   6.567   2.090  0.0269  0.2968 -0.1241
 5499W        W21633  15.935  15.835  12.187  0.1957 -0.0202  0.1172
 5500W        W21634   4.442   4.865   2.024  0.0974 -0.1541  0.1175
 5501W        W21635   2.167   8.209   2.325  0.1835  0.0595  0.0527
 5502W        W21636  13.068  17.999  15.508 -0.0950 -0.1838 -0.1320
 5503W        W21637  16.761   6.067   2.805 -0.0332  0.2481  0.0717
 5504W        W21638   7.282   9.052  15.636 -0.0672  0.5562 -0.1646
 5505W        W21639  17.325   9.729  11.359  0.1081  0.0516  0.0924
 5506W        W21640   8.125   7.674   3.538  0.0071  0.2124  0.0311
 5507W        W21641  12.311   6.823  11.927 -0.1328  0.3904 -0.1054
 5508W        W21642   4.294  14.553  11.256 -0.0474 -0.1637  0.1299
 5509W        W21643  18.008   7.145  15.768 -0.1431 -0.1979  0.1741
 5510W        W21644   2.161  11.729   4.414 -0.3684  0.1069 -0.4479
 5511W        W21645   4.855   4.554   4.067 -0.1284 -0.2278 -0.2868
 5512W        W21646   5.311  13.113   3.697  0.1042 -0.1064  0.1243
 5513W        W21647  11.284   0.311   2.126  0.0563 -0.2406 -0.2957
 5514W        W21648  18.144  16.208   1.097  0.1133  0.1607 -0.0252
 5515W        W21649  13.789   0.372  11.201 -0.4577  0.1607  0.0464
 5516W        W21650  11.590   3.219   1.501  0.1222  0.0633  0.0512
 5517W        W21651   9.661   9.742   3.070  0.1354  0.2393  0.0850
 5518W        W21652  15.239  16.023  14.815  0.1451  0.1867  0.3977
 5519W        W21653  11.475   1.010   3.607  0.1143 -0.1135 -0.1956
 5520W        W21654  11.805  10.449  14.235 -0.0091  0.0994  0.0602
 5521W        W21655   9.573  16.247   0.191 -0.1075 -0.1597 -0.3227
 5522W        W21656   5.979   0.494  13.002  0.0621  0.0428 -0.0976
 5523W        W21657   3.085   5.405  11.548  0.0483 -0.3581 -0.0510
 5524W        W21658  14.661   2.898   0.052 -0.2038  0.0005 -0.0119
 5525W        W21659  13.876  13.864  11.597  0.0685 -0.0537  0.1019
 5526W        W21660  10.285   1.449   2.641  0.0817 -0.0763 -0.0610
 5527W        W21661   4.666  11.601   2.158  0.2574 -0.1151 -0.1978
 5528W        W21662   5.518  12.375  15.414 -0.0198  0.0696  0.0224
 5529W        W21663   7.931  10.739  13.788 -0.2644 -0.0658 -0.2413
 5530W        W21664  11.467  10.108  12.845 -0.2129  0.1664 -0.1976
 5531W        W21665  14.679   3.128   3.836 -0.0650  0.2204 -0.1911
 5532W        W21666  10.459   6.140  14.222  0.0986  0.0596  0.2571
 5533W        W21667   3.350   9.654   2.947 -0.0207 -0.1215  0.2255
 5534W        W21668   6.289  14.766   1.323 -0.0578 -0.0947  0.2193
 5535W        W21669  12.862  16.373   1.814 -0.0087 -0.2507  0.2445
 5536W        W21670  10.750  12.297   0.817  0.0886 -0.1175  0.1211
 5537W        W21671  17.429   9.748  15.068 -0.1940  0.1250  0.2164
 5538W        W21672   7.121  16.846  15.542 -0.1961 -0.2545 -0.0776
 5539W        W21673  16.774  11.596   1.082 -0.2057 -0.0215  0.0434
 5540W        W21674   8.186   7.640   1.754  0.3288  0.0627 -0.1271
 5541W        W21675   0.095  13.893   1.252  0.1359  0.0606 -0.0054
 5542W        W21676   0.876   4.618   3.154 -0.0944  0.1231  0.5798
 5543W        W21677   9.290  17.347   3.160  0.0639  0.0074 -0.1831
 5544W        W21678  17.568  15.175   4.517 -0.0850  0.0103 -0.1913
 5545W        W21679  11.071   0.191  12.373 -0.2583 -0.0955  0.2742
 5546W        W21680   8.528  11.185  12.220 -0.0295 -0.2768 -0.2175
 5547W        W21681   6.503  17.431   0.255 -0.2229 -0.1609 -0.0989
 5548W        W21682  14.809  12.266   3.122  0.1120 -0.0633  0.1129
 5549W        W21683  13.857  15.045   4.088 -0.2589 -0.2237  0.1371
 5550W        W21684   2.634   5.329  12.308 -0.1572 -0.1970  0.3215
 5551W        W21685  17.277   9.986   4.301 -0.1567  0.2301  0.0423
 5552W        W21686   5.236  16.313   5.017 -0.1451 -0.2056 -0.0267
 5553W        W21687   7.925  10.188  11.356  0.2354  0.2031 -0.2026
 5554W        W21688  13.094   9.295  13.802 -0.3123  0.0595  0.1855
 5555W        W21689  16.933   4.192   0.179  0.0957 -0.0334 -0.1255
 5556W        W21690  14.840  14.667   3.840 -0.0673  0.0621 -0.0115
 5557W        W21691  10.108  15.887  13.876 -0.2412  0.0314 -0.0951
 5558W        W21692  15.729   0.683   5.148  0.0856 -0.0549  0.2675
 5559W        W21693  13.099   3.701  14.723 -0.4242 -0.0014 -0.0648
 5560W        W21694   2.107  17.434  15.885  0.1496  0.0284  0.2387
 5561W        W21695  13.838   4.766  13.282  0.2438  0.2034  0.1065
 5562W        W21696  13.879  12.222  11.391 -0.0095  0.1230 -0.0564
 5563W        W21697  17.524   8.726  12.451  0.2324  0.0191 -0.0169
 5564W        W21698  14.694  16.696  14.872 -0.0035  0.1196  0.2231
 5565W        W21699  17.898  11.631   0.162  0.1873 -0.1505  0.1263
 5566W        W21700  16.454  10.139   2.449  0.2420  0.0168  0.0611
 5567W        W21701   3.390  10.582  14.785  0.1685  0.0074 -0.0170
 5568W        W21702  17.317  15.575  12.788  0.1787  0.2136 -0.0337
 5569W        W21703  18.021  14.110   3.265 -0.1458 -0.3185  0.0053
 5570W        W21704  16.390  14.815  13.551  0.0305 -0.2656  0.1355
 5571W        W21705   4.706   6.227   3.622 -0.0590  0.0175  0.0689
 5572W        W21706  13.824   2.641  14.597 -0.0226  0.1556  0.3790
 5573W        W21707   9.534   8.818  14.014 -0.0203 -0.2386 -0.1575
 5574W        W21708   6.587   0.860   4.529 -0.0652 -0.1475  0.5055
 5575W        W21709   2.360   6.735  12.676 -0.1066  0.0292 -0.1130
 5576W        W21710  13.680  12.143   3.385  0.0591  0.0239  0.0796
 5577W        W21711   9.454   2.028   2.920  0.0538  0.1553 -0.2508
 5578W        W21712   3.762  15.614  11.064 -0.0608 -0.1611  0.1199
 5579W        W21713  18.121  17.037  13.724  0.0133  0.0776  0.2595
 5580W        W21714  17.611   3.923  12.049 -0.0280 -0.0800 -0.6192
 5581W        W21715   7.429   5.973   0.153 -0.4392 -0.1001  0.2354
 5582W        W21716  17.097   8.191  13.508  0.0544  0.1622 -0.0570
 5583W        W21717   4.919  10.981  14.332  0.3724  0.1822  0.2428
 5584W        W21718   2.312  16.745   2.348  0.1482 -0.0875  0.1937
 5585W        W21719   9.111  11.191   1.544 -0.0906  0.0712  0.2967
 5586W        W21720  14.571  11.483  12.592 -0.0408 -0.1076 -0.2794
 5587W        W21721  15.701   1.525   3.083  0.2292  0.2600 -0.0298
 5588W        W21722   1.238   1.450   3.251  0.1458 -0.0949  0.1585
 5589W        W21723   1.180  14.474   2.068 -0.4024  0.3311 -0.0452
 5590W        W21724  13.728   1.100  13.029  0.1765 -0.2401  0.2213
 5591W        W21725  14.404  17.956  14.881  0.1243 -0.0746  0.1106
 5592W        W21726  15.689   1.310   6.157  0.3188  0.2173  0.2381
 5593W        W21727  13.923   9.647   1.518  0.3820 -0.0292 -0.1359
 5594W        W21728   4.940   3.030   1.009 -0.1502 -0.2428  0.1004
 5595W        W21729   2.719  11.715   2.276  0.0288  0.0132  0.0082
 5596W        W21730   3.243  15.303   1.973 -0.1825  0.0571  0.0577
 5597W        W21731   7.700  11.155  15.186 -0.0481  0.0858  0.0724
 5598W        W21732  10.390  12.261  14.356  0.1830 -0.1036  0.0423
 5599W        W21733  11.845  12.710  14.741  0.1556 -0.0139  0.1672
 5600W        W21734  10.673  15.653  12.050  0.3226  0.0933  0.1644
 5601W        W21735   2.294  17.577  15.363 -0.0019 -0.1452  0.1943
 5602W        W21736  10.167  15.707   4.584 -0.4453 -0.1718 -0.1088
 5603W        W21737   6.179  12.407  13.416  0.1847 -0.1058 -0.0176
 5604W        W21738   7.317  13.618  11.506 -0.1948  0.4492  0.3121
 5605W        W21739  12.761  15.179   0.000 -0.3132 -0.0544 -0.2809
 5606W        W21740   2.684  12.837  13.535  0.0488 -0.1819  0.2826
 5607W        W21741   5.755   2.557   4.171 -0.0078 -0.1479 -0.2068
 5608W        W21742   4.908  16.694  13.178 -0.0266  0.2974 -0.0370
 5609W        W21743   4.495  13.960   2.008  0.2180  0.1143 -0.0898
 5610W        W21744  15.313   3.174  10.215  0.1496 -0.0521 -0.1521
 5611W        W21745   0.409  13.098   2.955 -0.1167 -0.1111  0.2727
 5612W        W21746  10.457   0.767   1.804 -0.1171 -0.0118  0.1670
 5613W        W21747   2.565   7.797   1.523 -0.1199  0.3249  0.1443
 5614W        W21748   3.210   3.105   4.936  0.0455  0.0074 -0.1431
 5615W        W21749  14.092   9.975  15.857 -0.1293 -0.1495 -0.1187
 5616W        W21750   9.785  15.427  15.157  0.0570  0.2098 -0.0613
 5617W        W21751   5.664  11.418  11.137  0.0453 -0.4542 -0.1631
 5618W        W21752   5.501  18.056   5.331 -0.1995 -0.2866  0.2577
 5619W        W21753   5.843   0.821  10.253 -0.2558  0.1736 -0.1110
 5620W        W21754  14.319   4.646  14.767  0.1311  0.4342 -0.2173
 5621W        W21755   0.357   1.191   0.041  0.2826 -0.3593  0.2686
 5622W        W21756  13.348   7.618  11.644 -0.2021  0.2548 -0.1498
 5623W        W21757   7.899  12.957  12.707  0.0740 -0.0796 -0.0763
 5624W        W21758   9.293  14.795  10.492  0.1326  0.1209  0.0214
 5625W        W21759   6.850  10.448   0.472 -0.0669 -0.1346 -0.0461
 5626W        W21760  10.506  11.961   5.175  0.0983  0.0287  0.1246
 5627W        W21761  13.394   9.161   0.110  0.0032 -0.1412  0.0415
 5628W        W21762  10.089   2.451  14.446  0.1773 -0.2794  0.3994
 5629W        W21763  15.272   8.246  15.489  0.0034  0.0617 -0.1261
 5630W        W21764   7.416  10.376  11.137 -0.2124 -0.0727 -0.0803
 5631W        W21765   1.689   8.632  14.875  0.0424 -0.0231 -0.1946
 5632W        W21766  10.268   5.862  12.273  0.2013  0.1039 -0.1392
 5633W        W21767  17.774  11.007   5.176 -0.0368  0.0910 -0.0680
 5634W        W21768  10.513  10.251  12.556  0.2619  0.0201 -0.3343
 5635W        W21769   6.156  16.122   1.424 -0.2877  0.1577  0.2645
 5636W        W21770   3.826  14.388   3.969  0.0584 -0.2232 -0.0589
 5637W        W21771  12.519   2.684  15.222 -0.1853  0.0036  0.1720
 5638W        W21772  11.265   2.813   1.269 -0.3804  0.0747 -0.2774
 5639W        W21773   3.758  15.522   1.883 -0.0477  0.0640 -0.0849
 5640W        W21774   7.862  14.170  13.871  0.0450 -0.1395  0.1182
 5641W        W21775  17.043   3.810  15.253  0.5166 -0.0743  0.2431
 5642W        W21776   3.280   2.003   1.955  0.2513 -0.1419 -0.0705
 5643W        W21777   7.136   1.617  15.825 -0.1618  0.1525 -0.2116
 5644W        W21778   1.064   5.496  15.668 -0.0101 -0.1398 -0.1498
 5645W        W21779   4.082   0.435  11.509  0.0057 -0.0170  0.1310
 5646W        W21780   1.434  11.058   3.452 -0.0142 -0.0670 -0.2755
 5647W        W21781   3.657   0.774   4.867 -0.0067  0.0594 -0.1446
 5648W        W21782  11.063   9.099   2.586 -0.0264 -0.0877  0.0138
 5649W        W21783  14.958   1.732   5.018 -0.1718  0.1727 -0.1352
 5650W        W21784  14.199   5.390   4.488  0.1735  0.1512 -0.1317
 5651W        W21785   6.631  17.444  11.244  0.1069  0.0303  0.0394
 5652W        W21786  10.751   9.568  13.508  0.0216 -0.0579 -0.0702
 5653W        W21787   1.671  10.769   1.985 -0.1919 -0.2291 -0.1929
 5654W        W21788  18.269  15.300   1.180 -0.0004  0.0415  0.1942
 5655W        W21789  13.409   9.019  13.428 -0.1454  0.1507  0.1286
 5656W        W21790  16.560  17.576   4.109  0.1687  0.0786  0.1519
 5657W        W21791   6.256  10.184  11.855 -0.1182  0.3039  0.0744
 5658W        W21792   5.532  18.226  11.316 -0.4206  0.0676  0.2548
 5659W        W21793   3.646   0.173   0.214 -0.1503  0.1285  0.4049
 5660W        W21794   1.461  12.079   2.069 -0.0100  0.1304 -0.2389
 5661W        W21795   2.288  12.616   4.118  0.4069 -0.0142  0.0090
 5662W        W21796  16.022   9.500  12.610  0.1566 -0.2339  0.0462
 5663W        W21797  17.831  12.145   2.836 -0.2861 -0.1023 -0.3072
 5664W        W21798   2.178   9.685   3.633  0.0160 -0.1014 -0.2497
 5665W        W21799  13.024  14.172  14.926  0.1920 -0.2544  0.1040
 5666W        W21800   6.215  12.320   2.824  0.2707 -0.0214 -0.0256
 5667W        W21801   6.070   3.823  10.554 -0.1318 -0.2969  0.0142
 5668W        W21802   3.175  14.645  11.886  0.0412  0.1082 -0.1643
 5669W        W21803  16.194   7.681   0.840 -0.0422  0.1128 -0.1456
 5670W        W21804  16.355   8.347   5.093  0.0721  0.0857 -0.2954
 5671W        W21805  15.394  10.442   1.733  0.0220 -0.0085 -0.2538
 5672W        W21806  10.313   0.332   0.255 -0.1335  0.0120  0.0071
 5673W        W21807  16.996  13.253   0.030 -0.0762 -0.0208  0.0006
 5674W        W21808  17.658  13.908   0.843  0.1769 -0.0697 -0.1137
 5675W        W21809  16.961  15.551   3.519  0.2323  0.4210 -0.0630
 5676W        W21810   9.919   7.063   2.684 -0.0261  0.2269 -0.0153
 5677W        W21811   4.738   8.923   1.991 -0.1494  0.0817  0.2099
 5678W        W21812  12.091   9.556   2.866 -0.1817  0.0849 -0.2213
 5679W        W21813   3.077   7.912  14.329 -0.1547  0.0175  0.2627
 5680W        W21814   4.601   0.573  11.552 -0.4067 -0.3351 -0.2624
 5681W        W21815   7.465   0.826   2.137 -0.2597 -0.1567  0.3041
 5682W        W21816  11.212   7.002   3.830 -0.2030  0.3237  0.0165
 5683W        W21817  11.669   1.066   4.742 -0.0482 -0.0593 -0.0616
 5684W        W21818  17.589  18.355  14.760  0.1107 -0.1917  0.0522
 5685W        W21819  14.420   3.845  11.473 -0.2018 -0.1677  0.0394
 5686W        W21820   5.112   8.762   4.133 -0.3366 -0.0457 -0.1508
 5687W        W21821  16.457  14.929  14.581 -0.0919  0.0507  0.0082
 5688W        W21822  14.258  13.148  13.005 -0.1621 -0.0913  0.0653
 5689W        W21823  15.855  12.672  14.659 -0.0018 -0.0113  0.1263
 5690W        W21824   3.494   9.099   4.968 -0.0041  0.1103 -0.0169
 5691W        W21825  17.275  14.142   3.783 -0.0184  0.2460  0.3863
 5692W        W21826  12.420   9.561   1.917 -0.0411  0.3283  0.3581
 5693W        W21827   8.405   2.349  12.628  0.0660  0.0665  0.0302
 5694W        W21828  15.943   6.794  15.525 -0.0489 -0.0996 -0.2087
 5695W        W21829  14.399   0.251   0.888  0.0611 -0.3182 -0.0177
 5696W        W21830   2.644   7.203  14.473 -0.0244  0.5176 -0.0823
 5697W        W21831  14.697  17.629  15.749 -0.0810  0.1470 -0.0156
 5698W        W21832   3.086   8.667  11.604 -0.2760 -0.1115  0.0207
 5699W        W21833   5.497   5.284  13.135 -0.2483  0.0451  0.2695
 5700W        W21834  15.597   1.295   1.335  0.1203  0.5694  0.1749
 5701W        W21835  11.715  12.023   4.242  0.0477 -0.1457 -0.2517
 5702W        W21836   3.176  17.486  15.903  0.1715  0.1138 -0.0515
 5703W        W21837  13.915  15.663  14.625 -0.1567 -0.2156 -0.1270
 5704W        W21838   4.979  16.832  12.343 -0.3331  0.2301  0.2117
 5705W        W21839  12.231   0.696   4.261  0.0728 -0.1249 -0.2432
 5706W        W21840  13.725   8.201   3.282 -0.2100 -0.1069  0.3362
 5707W        W21841  12.182   9.825   1.046  0.0020  0.1638 -0.0241
 5708W        W21842   8.282   4.807   3.132 -0.0602 -0.0404 -0.0718
 5709W        W21843  15.450  15.536  13.396 -0.0111 -0.0288 -0.0448
 5710W        W21844  15.240  14.153   1.655 -0.2153 -0.1480 -0.2817
 5711W        W21845   6.329   5.563  15.830 -0.0065  0.1942  0.0950
 5712W        W21846   9.612  12.148   0.868 -0.0012  0.0184 -0.2762
 5713W        W21847  13.079  10.809  14.619 -0.2362 -0.0570 -0.0777
 5714W        W21848  16.209   2.128  12.897  0.3258 -0.0677  0.1304
 5715W        W21849   0.250   3.847  10.620 -0.2031  0.1205 -0.0496
 5716W        W21850  11.266  15.564   0.023 -0.2841 -0.4649 -0.0116
 5717W        W21851   0.757   7.771   2.891  0.1868 -0.1493  0.2925
 5718W        W21852   2.303   9.069  12.744  0.3327 -0.3742 -0.1040
 5719W        W21853   3.166   3.299   4.014 -0.3011 -0.3553 -0.5322
 5720W        W21854   6.658  15.918   2.879  0.1485  0.1494 -0.1785
 5721W        W21855  13.364   4.709   2.445  0.2726  0.0427 -0.0147
 5722W        W21856  17.635   3.423  12.687  0.0918 -0.1211  0.0612
 5723W        W21857   9.594   7.067   3.075 -0.0153 -0.1094 -0.1175
 5724W        W21858   5.469   9.404  14.044  0.2363  0.0570  0.1558
 5725W        W21859  15.328   8.139   1.365  0.1106 -0.4178  0.3395
 5726W        W21860   9.708   6.277  14.790 -0.2580 -0.2490  0.1304
 5727W        W21861   3.897  13.038   1.450 -0.2423  0.0410  0.0524
 5728W        W21862   8.789   0.892   2.152 -0.0154  0.2273 -0.2703
 5729W        W21863   6.225   4.506   5.230 -0.1259 -0.1747  0.3637
 5730W        W21864   7.530  11.434   4.202 -0.0406 -0.0515 -0.1078
 5731W        W21865   3.967   6.365  14.052 -0.2351 -0.1604 -0.1509
 5732W        W21866   0.190  10.028  13.438 -0.3080  0.0766  0.0112
 5733W        W21867  10.083  12.003  12.712  0.0155  0.0175  0.2316
 5734W        W21868   7.863   9.697  15.435 -0.1735 -0.0608  0.0384
 5735W        W21869   1.991   0.188  15.310 -0.2366  0.2819  0.1990
 5736W        W21870   7.138   6.186   3.623  0.1387  0.0574 -0.0760
 5737W        W21871   2.024  12.452  15.134 -0.1200  0.2177 -0.0509
 5738W        W21872  13.125   6.979   4.767 -0.3057 -0.1384  0.0448
 5739W        W21873   9.653   7.701   0.596  0.1257 -0.2394  0.0783
 5740W        W21874   8.076   6.192   1.631 -0.0588  0.0712  0.1694
 5741W        W21875   1.920   6.065   1.861 -0.2406 -0.0362  0.1932
 5742W        W21876   9.876   6.419  12.679 -0.1560  0.1430  0.3155
 5743W        W21877   5.129   2.714   0.228 -0.1753 -0.1262  0.2048
 5744W        W21878   9.772   1.189   0.845 -0.1775  0.0202 -0.0175
 5745W        W21879   6.554   4.475  13.933 -0.3070  0.2547 -0.0687
 5746W        W21880   2.239   2.876  12.021  0.0084 -0.0793 -0.0226
 5747W        W21881   0.649  16.504   3.278  0.1849  0.0610 -0.1303
 5748W        W21882  17.603   5.925   0.253 -0.1657  0.0620 -0.2425
 5749W        W21883   8.822  14.312  12.794  0.3619  0.0510 -0.0320
 5750W        W21884  17.906   9.658   1.084 -0.0758  0.0925  0.2117
 5751W        W21885   2.169   1.742   2.393  0.2196 -0.0460 -0.0214
 5752W        W21886   8.667   3.765  14.456  0.3215 -0.0749  0.1136
 5753W        W21887   2.003  16.131  15.150  0.0526  0.1616 -0.1010
 5754W        W21888   6.668   4.167   0.213 -0.4200 -0.0699  0.0202
 5755W        W21889  18.248   5.309  12.228 -0.1148  0.0249 -0.0788
 5756W        W21890  14.097   9.115  10.823 -0.1775 -0.1354  0.0573
 5757W        W21891  11.674  14.885   4.540 -0.1280  0.1541  0.0265
 5758W        W21892  10.230  18.367   2.496 -0.2855  0.0749 -0.1519
 5759W        W21893  10.190  12.806   2.912 -0.2333  0.2458  0.2263
 5760W        W21894   2.365  10.887  14.444 -0.1237 -0.0608  0.1145
 5761W        W21895  18.385  11.047   3.320  0.0517  0.0235 -0.1247
 5762W        W21896  14.068   3.587  12.308  0.0340  0.0696  0.2337
 5763W        W21897   8.718   2.907  13.017  0.0710  0.2949  0.1001
 5764W        W21898   5.131   5.184  12.771  0.0510 -0.2012  0.0812
 5765W        W21899  17.763  11.839   4.101  0.0570  0.1510  0.0419
 5766W        W21900  12.241  12.683  15.169  0.0476  0.0048 -0.2028
 5767W        W21901  11.171  12.802  12.263  0.2008 -0.0593 -0.1550
 5768W        W21902  15.028   1.260   3.407 -0.0652  0.1382  0.1343
 5769W        W21903   9.339   4.121   3.600 -0.2623 -0.1010  0.0411
 5770W        W21904   2.796  16.126   5.191 -0.0474  0.0512  0.2471
 5771W        W21905  12.964   8.868   1.962 -0.0894  0.0126 -0.0169
 5772W        W21906  11.824  13.798   0.147 -0.1104  0.2766 -0.2815
 5773W        W21907   3.394  13.694   2.772 -0.0896  0.0287  0.3665
 5774W        W21908   0.427   6.176   2.096 -0.1091  0.1123  0.4814
 5775W        W21909  17.455   1.997  10.872  0.2477 -0.0113 -0.3267
 5776W        W21910   8.579  11.152   4.209 -0.2033 -0.2065 -0.1168
 5777W        W21911   7.225   1.275   3.260 -0.1899 -0.1260  0.3341
 5778W        W21912   0.919   2.375   2.581 -0.1909 -0.2036  0.3034
 5779W        W21913   7.821  14.856  13.067 -0.0508 -0.0532  0.0393
 5780W        W21914   2.607  12.891  15.625 -0.4266  0.0628 -0.2416
 5781W        W21915  16.468   0.448   3.937  0.2082 -0.1418 -0.1166
 5782W        W21916  15.627   1.160  11.318 -0.1643  0.1674  0.0429
 5783W        W21917  17.644  12.001   0.303  0.1867 -0.1819 -0.4664
 5784W        W21918   8.682  18.368   0.240 -0.2292  0.1294 -0.2010
 5785W        W21919  14.643  10.730  10.838 -0.0999  0.1902 -0.0683
 5786W        W21920  17.371  17.541   5.405  0.0537  0.2686 -0.5134
 5787W        W21921   2.967  10.478   2.617 -0.0008 -0.1198 -0.2409
 5788W        W21922   1.389   9.123   3.300  0.1256  0.0715  0.3187
 5789W        W21923   9.325  10.938  13.137 -0.0806  0.0109 -0.2353
 5790W        W21924  15.115  16.629  14.184 -0.0032  0.0321 -0.1190
 5791W        W21925  12.065   5.712   3.901 -0.1029  0.2123  0.0062
 5792W        W21926  13.653   3.698   2.010 -0.3445 -0.1430 -0.1891
 5793W        W21927   0.717   6.366  11.136  0.1033 -0.3504 -0.2301
 5794W        W21928  13.223   8.466  14.462  0.1159  0.0328 -0.2131
 5795W        W21929  16.612   8.137   3.295  0.0804 -0.2759  0.1185
 5796W        W21930  14.121  15.397  13.061  0.0010  0.2998  0.0404
 5797W        W21931  15.558   6.648  13.315 -0.0913 -0.2129 -0.5049
 5798W        W21932   7.647   7.350   4.182 -0.1700 -0.0343 -0.1902
 5799W        W21933  16.375   1.431  12.367  0.0197  0.2093 -0.0921
 5800W        W21934   9.779  14.055  12.192 -0.2426  0.1021  0.2020
 5801W        W21935  10.349   8.900   3.166  0.0866 -0.0141  0.2811
 5802W        W21936   9.803  10.750  12.974  0.2193 -0.0931  0.1445
 5803W        W21937   0.816  11.761   5.117  0.1574  0.0512 -0.1302
 5804W        W21938  18.339   0.190   4.158  0.1437 -0.0099 -0.0692
 5805W        W21939  12.812  12.022   4.883 -0.4026  0.0635  0.0135
 5806W        W21940  12.427  15.388   5.088 -0.4121  0.4237  0.2825
 5807W        W21941   6.227   9.621  13.070  0.2139  0.0133 -0.2244
 5808W        W21942   6.602  15.568  14.984  0.0371  0.1346  0.1008
 5809W        W21943  15.937   8.761   4.348  0.0323  0.1265 -0.0722
 5810W        W21944  14.790   3.773   2.727  0.2959  0.3443 -0.1030
 5811W        W21945   3.578  12.401  13.639  0.0719 -0.2191  0.1484
 5812W        W21946  14.375   8.987   4.816 -0.0400  0.1786 -0.0681
 5813W        W21947  11.875   0.603  15.171  0.1790 -0.0276  0.1371
 5814W        W21948  13.243  16.301  11.894 -0.1965  0.0011 -0.0489
 5815W        W21949   7.570  18.232   3.596 -0.2933 -0.3438  0.0539
 5816W        W21950   9.955   2.069  14.190 -0.1375  0.0924  0.2555
 5817W        W21951   1.323   5.710  12.101  0.0079  0.0577 -0.1503
 5818W        W21952  10.880  16.710  10.965 -0.2525  0.0559  0.0953
 5819W        W21953   1.769   2.375   1.907 -0.3273 -0.1039 -0.0608
 5820W        W21954   9.815  14.246   6.058  0.3482 -0.1721  0.1578
 5821W        W21955   5.270   0.404   5.482 -0.0234 -0.3632  0.1335
 5822W        W21956   2.872   2.710   4.827  0.2659 -0.2038  0.2450
 5823W        W21957   6.279   4.200  12.533  0.0236 -0.3530  0.0297
 5824W        W21958   5.402  14.774  15.636 -0.1601 -0.2307  0.0483
 5825W        W21959   7.328   0.638  14.883  0.1176 -0.1474  0.3305
 5826W        W21960  18.326  13.695   5.477 -0.1746 -0.0051  0.1127
 5827W        W21961   6.773  13.625   0.043 -0.0329  0.1874 -0.1503
 5828W        W21962   3.362   9.985   1.397 -0.1227  0.0854  0.0561
 5829W        W21963  12.910   1.292  15.443 -0.0713 -0.0334 -0.3523
 5830W        W21964   4.052   2.369  14.055  0.1672 -0.0701 -0.1230
 5831W        W21965   5.166   9.008   0.454 -0.0148  0.3206 -0.1172
 5832W        W21966   1.938   6.800  10.866 -0.3508  0.0921  0.2114
 5833W        W21967  11.182   8.426  15.729 -0.0810  0.1744  0.1812
 5834W        W21968  10.147   5.413   0.563 -0.0503  0.0268 -0.0460
 5835W        W21969  11.150   2.367  11.735  0.2259  0.0102 -0.0566
 5836W        W21970   9.275  18.332  11.557  0.0655 -0.1722 -0.0641
 5837W        W21971  14.539   2.376   4.787  0.2707  0.0806 -0.1464
 5838W        W21972   8.772  15.209   0.752 -0.4910 -0.0063  0.3469
 5839W        W21973  13.359  10.753  15.023 -0.1466 -0.2322  0.1403
 5840W        W21974  16.542  10.561  14.868 -0.1987  0.0864  0.4200
 5841W        W21975  14.310   3.296   3.533  0.0652  0.0521  0.0387
 5842W        W21976   8.453  13.222   4.700  0.0593 -0.1302  0.3302
 5843W        W21977   9.505  10.172   2.778  0.0411  0.1934 -0.0163
 5844W        W21978   7.312   8.626  15.402  0.1163 -0.1639  0.0954
 5845W        W21979   0.509  16.617   1.005 -0.1032 -0.1094 -0.0827
 5846W        W21980   0.627  16.264  15.178  0.0393 -0.0414  0.2281
 5847W        W21981   9.393   1.946   2.437 -0.1255 -0.2201  0.1994
 5848W        W21982  17.692   6.705   4.711 -0.0703 -0.2528 -0.0640
 5849W        W21983   6.817  16.619   4.256 -0.1044  0.0460  0.0536
 5850W        W21984  17.478   1.622  13.810 -0.0970 -0.0191 -0.0877
 5851W        W21985  11.386   5.622   2.698 -0.2755 -0.3008  0.3703
 5852W        W21986   1.150   8.249   3.699 -0.2075 -0.0233  0.3000
 5853W        W21987   0.683   2.734   1.298 -0.1171  0.1707 -0.0895
 5854W        W21988   5.618  14.212  11.281 -0.0218  0.2318 -0.0878
 5855W        W21989  16.494   0.752   1.732 -0.2897  0.0576 -0.2029
 5856W        W21990  14.783   3.888  15.736  0.0598 -0.0236  0.3216
 5857W        W21991   3.695   0.986   0.092 -0.2998 -0.2778  0.1355
 5858W        W21992   5.906   4.244  15.757 -0.0249  0.0312 -0.0535
 5859W        W21993   9.195   4.435   1.957 -0.2514  0.2197  0.0609
 5860W        W21994   7.821   1.213   3.471 -0.3770  0.2804  0.0174
 5861W        W21995  12.495   4.147  11.934 -0.1451 -0.0050 -0.0289
 5862W        W21996   0.866   0.494   2.768  0.3249 -0.3957 -0.1628
 5863W        W21997  14.818   7.609   2.116  0.0160  0.2752 -0.0459
 5864W        W21998  15.235   2.353  14.141 -0.0532  0.0231  0.0029
 5865W        W21999  14.070  17.897  11.332  0.3382 -0.0004 -0.1374
 5866W        W22000   5.661   7.631   0.425 -0.2351 -0.0841 -0.0471
 5867W        W22001  16.305   5.239   2.076  0.0917  0.0268 -0.1218
 5868W        W22002   3.517   5.086   4.306 -0.0309 -0.1478 -0.0737
 5869W        W22003   4.574  13.483   6.197  0.0555 -0.3636  0.1791
 5870W        W22004  11.244  17.845  14.626  0.1879  0.1189  0.0547
 5871W        W22005  11.145   1.822  12.544  0.2161 -0.0901 -0.0522
 5872W        W22006  16.700  12.399   4.164  0.2464 -0.0173  0.1725
 5873W        W22007  18.139   5.089   1.966 -0.0024  0.1510 -0.2527
 5874W        W22008   4.318  12.972  10.241  0.0719 -0.0043  0.0852
 5875W        W22009   6.302  16.409  15.589  0.1177 -0.0455 -0.5246
 5876W        W22010  12.589  14.407  14.125 -0.0161 -0.1539 -0.1249
 5877W        W22011  17.141  10.786   1.146 -0.0106 -0.1692 -0.0623
 5878W        W22012  15.870  15.349  12.079  0.1254  0.1102 -0.2501
 5879W        W22013  11.729   8.196   5.034  0.0674  0.2844  0.1201
 5880W        W22014  15.844   4.994  13.388 -0.0098 -0.0853 -0.4323
 5881W        W22015   2.790  15.561   4.305 -0.0204 -0.2369 -0.2704
 5882W        W22016   5.475   1.254  13.143 -0.3150  0.0708  0.5076
 5883W        W22017  13.088  17.471   1.453  0.1975  0.0128 -0.0782
 5884W        W22018   7.067  10.811  12.580 -0.1721  0.0038 -0.1177
 5885W        W22019  11.684   4.246   4.389 -0.0415 -0.3533 -0.1323
 5886W        W22020   2.113  16.701  14.579  0.2695  0.3561 -0.0102
 5887W        W22021   9.913   6.124  11.924  0.1916 -0.3533  0.3084
 5888W        W22022  15.200  15.039  10.935  0.0054  0.0590  0.1937
 5889W        W22023   4.107   3.531   3.904  0.0961  0.2661  0.2725
 5890W        W22024   2.327  17.437  11.437  0.0342  0.1366  0.2300
 5891W        W22025   8.450  11.737  12.604 -0.3613 -0.1806 -0.1764
 5892W        W22026  12.132   3.828   2.039  0.1585  0.4394 -0.0711
 5893W        W22027  13.769  14.334   5.479 -0.1423  0.2337  0.0957
 5894W        W22028  14.869  16.977   3.604  0.1477  0.1699 -0.1332
 5895W        W22029  10.483  12.651  10.572 -0.1706 -0.1076 -0.4274
 5896W        W22030  14.797   3.643   3.953  0.0661  0.1177 -0.1378
 5897W        W22031  10.281  12.142   5.595  0.0767  0.2793  0.1513
 5898W        W22032   2.051   3.610  11.245  0.1766  0.0512  0.0367
 5899W        W22033  11.914  14.888   5.749  0.0284  0.0473 -0.1047
 5900W        W22034   4.094  16.443   2.190 -0.1435 -0.1014  0.0644
 5901W        W22035   6.514  14.069   3.639 -0.0499  0.1186 -0.2684
 5902W        W22036   8.504   8.516   4.693  0.3262 -0.1226 -0.1118
 5903W        W22037  14.643   6.622  14.982 -0.1144  0.2167  0.1344
 5904W        W22038   1.353  12.848   3.786 -0.1882  0.0545  0.1145
 5905W        W22039   6.029  10.706   0.385 -0.2779  0.3355  0.0227
 5906W        W22040   4.966  17.526   5.649 -0.0461  0.2846 -0.2178
 5907W        W22041   7.475   0.022  13.382  0.0437  0.0252 -0.1722
 5908W        W22042   2.003   3.368   1.615 -0.0445  0.3197  0.0110
 5909W        W22043   9.531   9.937  14.626  0.1633  0.3053 -0.2588
 5910W        W22044   5.001  13.431  13.365 -0.3423  0.0968  0.1724
 5911W        W22045   9.139   8.478  14.657  0.0689  0.1456 -0.0816
 5912W        W22046  18.098  11.456   3.240  0.1867 -0.1770 -0.0760
 5913W        W22047  11.000  10.639   0.330 -0.0783  0.0680  0.2117
 5914W        W22048   8.564   5.030  11.634 -0.2986 -0.0196 -0.0366
 5915W        W22049   9.684   2.530  14.083  0.1639  0.1684  0.0098
 5916W        W22050   0.167   3.747   1.747 -0.0679 -0.2789 -0.0140
 5917W        W22051  12.105   7.108  13.287  0.0213 -0.3928  0.0310
 5918W        W22052   5.732   9.762  13.082  0.2411 -0.3509  0.1596
 5919W        W22053   0.716   2.911   0.427 -0.1133 -0.1278  0.0051
 5920W        W22054  16.274   4.492   1.384  0.2623 -0.1226  0.0514
 5921W        W22055   0.692   8.764   4.297 -0.0308  0.1942  0.3055
 5922W        W22056   0.878  15.021  15.205  0.0316 -0.4216  0.2512
 5923W        W22057   1.377   3.376   4.808 -0.0707  0.1935 -0.5301
 5924W        W22058   2.222   1.251   3.565  0.1069  0.0327  0.1168
 5925W        W22059  10.453   2.594  14.731 -0.1572 -0.0192 -0.1566
 5926W        W22060   2.427   5.664   2.476  0.0180 -0.2282  0.1508
 5927W        W22061   1.937   9.999  14.281 -0.0775 -0.0367 -0.1105
 5928W        W22062   1.952  17.279  12.664  0.0446 -0.1614  0.3731
 5929W        W22063   3.576  17.134  10.697  0.3039  0.0503 -0.0852
 5930W        W22064   2.144   7.647  10.964 -0.0647  0.0969  0.1438
 5931W        W22065   5.845  10.743   5.421 -0.2334  0.4398  0.3249
 5932W        W22066   5.919   5.818   1.531  0.2569 -0.2069 -0.1037
 5933W        W22067   1.666   3.070  15.130  0.0036 -0.2074 -0.3356
 5934W        W22068  13.521  15.433   0.280  0.1350  0.2045 -0.1182
 5935W        W22069   5.122   3.417   5.287 -0.2828  0.1668  0.0430
 5936W        W22070   5.296  11.361  13.483 -0.1481 -0.0116  0.0177
 5937W        W22071   7.051   2.670  13.947 -0.0201 -0.1220 -0.0062
 5938W        W22072  17.336  17.097  11.968 -0.0164 -0.1791 -0.1063
 5939W        W22073   8.751  13.675  11.208 -0.1666 -0.2319 -0.0534
 5940W        W22074  15.118   8.045  11.569  0.0437  0.1604  0.0197
 5941W        W22075  11.532   7.501  12.094  0.0837  0.1774 -0.0706
 5942W        W22076   3.204   3.253  14.302  0.0668  0.1320 -0.0264
 5943W        W22077   0.302  13.125  11.492 -0.1170  0.0820 -0.1551
 5944W        W22078   3.287  11.177   2.854  0.1240  0.0776 -0.1545
 5945W        W22079   7.022   4.813   2.972  0.4302  0.0542 -0.0431
 5946W        W22080   9.176   1.138  15.737  0.0602 -0.1514 -0.1851
 5947W        W22081   4.193   7.171   4.722  0.0665  0.1412  0.1621
 5948W        W22082   7.005   5.499  13.568  0.0636  0.0286  0.2860
 5949W        W22083  12.147  17.846  14.553  0.0217 -0.1925  0.2048
 5950W        W22084   8.153   9.764  14.091  0.1409  0.3013  0.1104
 5951W        W22085  13.355   4.955  13.192 -0.2529 -0.1843 -0.1229
 5952W        W22086   3.073   5.255   2.404 -0.1064  0.1819  0.3819
 5953W        W22087  11.890  11.610   2.758 -0.0556  0.1356  0.1565
 5954W        W22088  18.063  10.797  11.574  0.1228  0.0924  0.3390
 5955W        W22089   1.841  11.863  15.347 -0.1069 -0.2638 -0.0678
 5956W        W22090  16.383   1.563   2.387  0.1609  0.0074  0.0081
 5957W        W22091  12.277   9.746   2.382  0.1642  0.1005 -0.4463
 5958W        W22092  15.704   3.858  15.860 -0.1483 -0.0529 -0.0611
 5959W        W22093  12.050  10.977  13.199  0.0723 -0.1289 -0.0769
 5960W        W22094   3.831  12.594  15.322  0.1317  0.2852 -0.1667
 5961W        W22095   6.202  10.279  12.921  0.1130  0.1924 -0.0202
 5962W        W22096  17.100   5.229   2.610 -0.0732 -0.2010 -0.1185
 5963W        W22097  10.215  12.344   3.504 -0.0317  0.3174  0.1560
 5964W        W22098  12.841  12.495   2.685  0.1732  0.2284 -0.0901
 5965W        W22099  11.110  17.434   4.037 -0.1804  0.2994 -0.0018
 5966W        W22100   6.147  13.653  14.153  0.1824 -0.2925  0.2495
 5967W        W22101  10.633  18.038   0.827  0.0560 -0.1592 -0.1239
 5968W        W22102   8.025   8.902  11.427  0.1932 -0.2011 -0.2923
 5969W        W22103  15.069  14.077  13.016  0.0086  0.2212 -0.2618
 5970W        W22104  15.275   1.752   0.116 -0.0568 -0.1027 -0.1887
 5971W        W22105  10.684  13.002   4.073 -0.2863 -0.1745  0.1355
 5972W        W22106   4.342   4.250   2.763 -0.0588  0.1416  0.0960
 5973W        W22107  18.407   3.213   1.784 -0.0524  0.3306 -0.1733
 5974W        W22108  10.468   6.144   4.411 -0.0426  0.0822  0.0112
 5975W        W22109   9.272   6.976   3.725 -0.0747 -0.1486  0.2567
 5976W        W22110   7.844   9.131  15.195  0.3021 -0.0820 -0.1341
 5977W        W22111  12.521   6.406  12.329 -0.0626  0.1959 -0.2285
 5978W        W22112   7.600  14.242  11.690 -0.0203 -0.0387  0.0398
 5979W        W22113   0.874   1.319  13.916 -0.3208 -0.0109 -0.0761
 5980W        W22114  12.763   1.046   3.561 -0.3026 -0.1528  0.1810
 5981W        W22115  16.976   1.269  10.482  0.0748  0.2575 -0.0132
 5982W        W22116   0.522  17.761  15.890 -0.0258 -0.2555  0.1161
 5983W        W22117   7.713   5.924  13.227  0.1269 -0.2667 -0.0834
 5984W        W22118  16.565   7.471   5.319 -0.3011  0.0189  0.1561
 5985W        W22119  16.069   0.539   4.258  0.0172  0.0384  0.1033
 5986W        W22120   5.375  16.587   3.612  0.1431  0.1273 -0.0386
 5987W        W22121  13.968   4.277  15.171 -0.0180  0.1533 -0.4756
 5988W        W22122  16.747   3.472   3.976 -0.0878 -0.0167 -0.3028
 5989W        W22123  11.401  10.686  14.092 -0.1021  0.0351 -0.1477
 5990W        W22124  15.462   8.782   2.005 -0.1057  0.0128  0.2130
 5991W        W22125  13.022   7.681   3.536 -0.1560 -0.2535  0.0259
 5992W        W22126   7.239  17.779  15.714 -0.0951 -0.2664 -0.2540
 5993W        W22127   0.536   9.370   3.963 -0.0689  0.4434  0.1384
 5994W        W22128  14.400   1.432  15.432  0.0526 -0.0464  0.1533
 5995W        W22129  10.603   2.538   5.844  0.0836  0.0111  0.1074
 5996W        W22130   1.506  16.048  13.680 -0.1686 -0.2169 -0.0574
 5997W        W22131  18.322   8.965  14.817 -0.0467  0.0741 -0.0803
 5998W        W22132   3.898   9.997   0.576  0.4446 -0.0163 -0.4908
 5999W        W22133  15.574  17.112   0.543  0.1697  0.0999 -0.1020
 6000W        W22134   1.032   0.219  12.917 -0.0648  0.6261 -0.0036
 6001W        W22135   1.982   4.988  10.509 -0.2267 -0.3280 -0.0680
 6002W        W22136   4.341  16.691   4.579  0.1499 -0.0692  0.2603
 6003W        W22137  14.120  14.924   2.952 -0.1521  0.0349 -0.0473
 6004W        W22138  10.328  14.032   1.911  0.0112  0.1921  0.3866
 6005W        W22139   9.709   9.229   5.446  0.0539  0.1409 -0.1153
 6006W        W22140   1.335  10.753  14.088  0.3802  0.1440  0.0822
 6007W        W22141   4.078  11.462   1.212 -0.1082  0.2547 -0.0343
 6008W        W22142  10.843   6.014   0.203  0.0630  0.0079  0.0578
 6009W        W22143  10.549   9.238  15.494  0.0374  0.0092  0.0353
 6010W        W22144   1.287  10.311  15.191 -0.0917 -0.0253 -0.1978
 6011W        W22145   0.657   2.951  13.010  0.1267  0.0034 -0.3001
 6012W        W22146   6.568   2.384   0.563  0.0308 -0.1389 -0.0945
 6013W        W22147   8.238   4.051   2.643 -0.0032 -0.1542 -0.0651
 6014W        W22148  10.233   7.768   3.981 -0.2727 -0.3655 -0.2261
 6015W        W22149   8.461  18.222   4.053  0.1511  0.1613 -0.0514
 6016W        W22150  10.056   9.389   3.084  0.0890  0.0453 -0.1543
 6017W        W22151  15.917  12.237  11.546  0.1710 -0.0397 -0.3152
 6018W        W22152   0.915  10.134   1.546  0.2519  0.1817 -0.3412
 6019W        W22153   2.797  12.110  15.099 -0.1248 -0.0834  0.0936
 6020W        W22154  13.604   9.484   3.252  0.0844 -0.0855 -0.1361
 6021W        W22155   8.569  16.955   0.764 -0.4743  0.2640  0.1571
 6022W        W22156   4.046   1.278  11.785 -0.2036  0.0899  0.0018
 6023W        W22157  10.931   9.302  11.275 -0.1246  0.1546  0.0922
 6024W        W22158  13.228  12.265   2.518  0.0618  0.0167  0.1085
 6025W        W22159  12.838  11.969   2.571  0.0247  0.2322  0.1288
 6026W        W22160  11.031   1.901   1.163 -0.1570 -0.0676  0.1069
 6027W        W22161   9.755   6.151   2.019  0.1340  0.0561  0.3975
 6028W        W22162  10.835   0.297  12.778  0.1733 -0.0027  0.1492
 6029W        W22163   1.945   9.561   0.953  0.0769  0.1580  0.2566
 6030W        W22164   8.454  17.776  13.495 -0.1830  0.1272 -0.1162
 6031W        W22165   2.446  12.071  12.379 -0.3574 -0.2440 -0.0593
 6032W        W22166  12.941  16.723   0.846  0.0838 -0.0204  0.0414
 6033W        W22167  13.951   2.113   9.949 -0.0280  0.0279 -0.0583
 6034W        W22168   0.750   5.458   0.535  0.1147 -0.0673 -0.2874
 6035W        W22169   7.062  17.339  15.478 -0.0547 -0.0453 -0.0743
 6036W        W22170  11.174   5.762   4.015 -0.2598  0.2555  0.3501
 6037W        W22171  14.773  16.426  14.480 -0.1705  0.2120 -0.0096
 6038W        W22172  11.888  13.041   1.297  0.0420 -0.1574 -0.3181
 6039W        W22173   7.504   3.053  13.406 -0.0886 -0.3142  0.0967
 6040W        W22174  13.376   5.519  11.979 -0.4016 -0.0767  0.2018
 6041W        W22175  11.619   9.805  13.322 -0.0784 -0.0951  0.0040
 6042W        W22176  17.597  12.709  12.506 -0.0130 -0.0454  0.0153
 6043W        W22177  12.961  18.363  13.675 -0.1676  0.2307  0.1233
 6044W        W22178   1.993   2.887   1.797 -0.0026  0.2281 -0.3739
 6045W        W22179   0.850  14.352   2.529  0.0491  0.1548  0.3075
 6046W        W22180   3.024   6.405   3.031  0.1288  0.0509 -0.0846
 6047W        W22181   7.533  18.216  13.802 -0.0395  0.2138 -0.0999
 6048W        W22182  16.081  11.551   2.281 -0.0403  0.0256  0.0060
 6049W        W22183   7.196   3.635   0.910  0.0079 -0.3740  0.1498
 6050W        W22184  12.809   1.843  15.183 -0.1389  0.2037 -0.1132
 6051W        W22185   2.859   2.686  12.709  0.2725  0.0402 -0.0768
 6052W        W22186  17.123  12.065  13.225  0.2735  0.3837 -0.1697
 6053W        W22187   2.181   0.954  11.948 -0.1444 -0.0655 -0.1078
 6054W        W22188  16.725  10.725   2.146 -0.0068  0.1007  0.2108
 6055W        W22189  15.232   1.568  11.769 -0.0592 -0.1755  0.0266
 6056W        W22190  17.323   6.140   3.165  0.0669  0.0756 -0.1006
 6057W        W22191  14.382  15.220  11.154 -0.1182 -0.4331 -0.1412
 6058W        W22192   1.548   1.706  12.321  0.2529 -0.2259 -0.2728
 6059W        W22193   9.603  12.201   2.780  0.0015 -0.0949 -0.1085
 6060W        W22194   9.593  14.843   5.079  0.0342 -0.0836 -0.0711
 6061W        W22195  13.881   2.786  15.634  0.0213  0.2857  0.1172
 6062W        W22196  15.609  11.464   0.319 -0.0857  0.0592  0.0145
 6063W        W22197   1.980  10.104  13.716  0.1996 -0.3577  0.3073
 6064W        W22198  15.724   6.177  15.901  0.1887  0.1329 -0.0310
 6065W        W22199  18.128   0.301  14.065 -0.3047 -0.1696  0.2128
 6066W        W22200   6.030   2.762  10.175  0.0247 -0.2967 -0.0514
 6067W        W22201  11.171  18.415  13.551 -0.0609  0.0836 -0.2504
 6068W        W22202  16.760  14.759  12.103 -0.2548 -0.1483 -0.3824
 6069W        W22203   0.523  13.676  13.822 -0.0544 -0.0697 -0.1307
 6070W        W22204  16.038  14.313  12.994 -0.0687 -0.1475 -0.2063
 6071W        W22205  11.767   0.944  15.678  0.1249  0.1326  0.2613
 6072W        W22206  16.689  12.269   0.216 -0.0021  0.0314  0.0937
 6073W        W22207   2.540  17.202   0.269  0.2789  0.0708 -0.0890
 6074W        W22208   9.864   0.966   0.181 -0.0299 -0.2948  0.1706
 6075W        W22209   2.404   1.065  10.954 -0.1621  0.0888 -0.3229
 6076W        W22210  16.093   2.702   1.284  0.3702 -0.1340  0.1569
 6077W        W22211   4.698   2.340   0.906  0.1412 -0.1225 -0.3804
 6078W        W22212   1.231   4.688  13.911  0.0890  0.0720  0.3516
 6079W        W22213  14.316  15.578   0.286  0.0183 -0.2045 -0.2442
 6080W        W22214  17.227   4.999  12.313  0.1396  0.2994 -0.1386
 6081W        W22215  10.658   1.301   2.939  0.1357  0.1773  0.0889
 6082W        W22216   6.830   3.400   5.508 -0.1529  0.0258  0.0288
 6083W        W22217  12.987  12.062   4.395  0.0686 -0.1481  0.2795
 6084W        W22218   0.262  12.818   3.427  0.1912 -0.0773  0.2336
 6085W        W22219   4.693  11.072   0.528  0.0902 -0.1487 -0.1737
 6086W        W22220  16.904   2.126   3.309 -0.0263  0.1172  0.0437
 6087W        W22221  11.556   0.860   0.927  0.0697 -0.0800 -0.3028
 6088W        W22222   0.384  16.390   1.593 -0.2512  0.1227  0.1286
 6089W        W22223  15.038   2.512  14.659  0.0135  0.1565 -0.2432
 6090W        W22224  12.028  15.380   1.539 -0.3307 -0.0058  0.0190
 6091W        W22225  10.886   3.034  13.978 -0.2859 -0.1973  0.0390
 6092W        W22226  10.282  18.409  14.750 -0.1037  0.1256  0.2690
 6093W        W22227  14.842  14.623   3.303 -0.2335  0.0121  0.1288
 6094W        W22228   7.404  17.031   5.664 -0.2517  0.0272 -0.0108
 6095W        W22229   6.849  16.527  14.893 -0.0282 -0.3973 -0.0201
 6096W        W22230  14.179  12.920  12.581 -0.0744  0.0061  0.2990
 6097W        W22231   7.604  17.379   1.253  0.1964 -0.2364  0.2380
 6098W        W22232   8.362   6.949   1.366  0.0900  0.0619  0.0107
 6099W        W22233  13.879   5.490  12.738  0.0082  0.0840  0.2014
 6100W        W22234  14.331   2.150   3.906 -0.1262  0.2272 -0.2047
 6101W        W22235   1.030   7.533   4.669 -0.1782 -0.2172 -0.1600
 6102W        W22236   5.818   6.001   5.794 -0.0275 -0.1324 -0.0229
 6103W        W22237   5.145   5.886  15.479 -0.2740  0.1305  0.0221
 6104W        W22238   8.458  14.823   3.098 -0.0101 -0.1232 -0.0590
 6105W        W22239  14.442   8.656  15.139 -0.2715 -0.1711  0.0547
 6106W        W22240   9.222   9.300  15.231  0.0098  0.0672  0.1293
 6107W        W22241   3.558  15.122   0.443  0.1330  0.3930 -0.0537
 6108W        W22242   6.367  13.024   0.699 -0.2736  0.0109 -0.3357
 6109W        W22243  15.031  12.865   4.587 -0.1543  0.1446 -0.0120
 6110W        W22244  13.603   4.087  11.195 -0.1774  0.2642 -0.0081
 6111W        W22245  16.434   1.377   0.996 -0.2014 -0.0062  0.4964
 6112W        W22246   3.315  15.005   2.735  0.0617  0.0830 -0.1225
 6113W        W22247   3.200   6.765  12.832 -0.0473  0.3096  0.1681
 6114W        W22248   6.045   3.781  15.535  0.0478 -0.1952 -0.1744
 6115W        W22249   4.751   9.743   1.116 -0.1461 -0.1711  0.2882
 6116W        W22250   0.036   3.232   3.921 -0.6530  0.1188  0.0666
 6117W        W22251   8.226   4.073   0.295  0.0885  0.1684 -0.1225
 6118W        W22252  18.262  14.870   1.461 -0.1138  0.0431 -0.2295
 6119W        W22253  16.930   9.388  12.247 -0.0999 -0.1269 -0.2435
 6120W        W22254   0.820   7.351   9.841  0.0473  0.1426  0.1783
 6121W        W22255   1.090   5.052   4.107 -0.1032  0.0346  0.1130
 6122W        W22256  12.821   4.744  13.862 -0.2173 -0.3718  0.0003
 6123W        W22257  12.861   7.664   1.702  0.0616 -0.1738  0.1908
 6124W        W22258   7.047  13.457   3.049 -0.0277 -0.0816 -0.1187
 6125W        W22259   1.661  13.578  14.532 -0.2345  0.0447  0.0198
 6126W        W22260  11.755   9.086  11.428 -0.0389  0.4026 -0.0936
 6127W        W22261   8.969   2.341   4.963  0.0450  0.2083 -0.0347
 6128W        W22262   9.351   7.466   3.882 -0.0914  0.3998 -0.0867
 6129W        W22263  16.405  12.926   2.486  0.1984 -0.0295  0.1975
 6130W        W22264   3.147   1.909   2.917 -0.0916  0.0774  0.0667
 6131W        W22265   8.834   7.199   3.874  0.1496 -0.0097 -0.0912
 6132W        W22266  17.322  11.286  11.007 -0.4172 -0.2576 -0.1738
 6133W        W22267   3.622   4.382  14.124 -0.1567  0.2051  0.2134
 6134W        W22268   8.853   2.763   0.398 -0.3370  0.0668 -0.0592
 6135W        W22269   5.378   9.362   3.951  0.0927  0.0124 -0.5510
 6136W        W22270   9.333   3.777  12.921  0.0335 -0.0054  0.0939
 6137W        W22271   5.172   1.858  13.227  0.0619  0.1733 -0.0256
 6138W        W22272   4.741  14.293   3.228  0.0833 -0.0674  0.1252
 6139W        W22273   2.097  12.818   1.413  0.0853 -0.3620  0.0327
 6140W        W22274   1.393   3.714  13.572 -0.1480  0.1656 -0.1295
 6141W        W22275   3.695   9.917  11.957 -0.1094  0.1498 -0.4098
 6142W        W22276   7.700  11.266  13.079  0.0759 -0.0159 -0.0077
 6143W        W22277   7.357  10.702   3.999 -0.1269  0.2424  0.0311
 6144W        W22278   0.218  16.153   2.685  0.1572 -0.2837  0.2157
 6145W        W22279   6.998  15.851   0.260 -0.1956 -0.0161  0.0886
 6146W        W22280   1.405   9.388  14.547  0.1717 -0.4147 -0.0749
 6147W        W22281  16.692   1.792  12.533 -0.4015  0.2818  0.0752
 6148W        W22282  16.832   8.997   4.530  0.3808 -0.0776  0.1095
 6149W        W22283   0.463  13.625   2.956  0.1541  0.4016 -0.1896
 6150W        W22284  15.271   1.675  12.647  0.2775  0.0779 -0.2716
 6151W        W22285  16.657  12.924  12.335 -0.3642  0.1558  0.0077
 6152W        W22286  17.226  15.304  14.900  0.1868  0.0311 -0.0130
 6153W        W22287   5.857  14.162  15.107 -0.1525 -0.0621 -0.2094
 6154W        W22288   3.480   0.188   5.066 -0.3183 -0.0856 -0.3800
 6155W        W22289  14.214  15.427   2.919 -0.0414  0.1293 -0.0223
 6156W        W22290   5.491   4.894   4.699 -0.2551 -0.2750  0.0269
 6157W        W22291  10.520   8.801   0.491 -0.0167  0.2055 -0.1138
 6158W        W22292   5.326   7.286  13.462 -0.0206 -0.0084 -0.0540
 6159W        W22293  13.006   1.823  14.635  0.4425  0.0643 -0.2460
 6160W        W22294   4.162   6.738   1.458 -0.1386 -0.4226 -0.1642
 6161W        W22295   9.007  15.036   4.131 -0.0238  0.1693 -0.1319
 6162W        W22296  15.602  12.805  12.208 -0.0320  0.1048 -0.0656
 6163W        W22297  18.242   3.062   0.571  0.3898 -0.2546 -0.1467
 6164W        W22298   1.891  13.494  12.065 -0.1519 -0.2285 -0.2470
 6165W        W22299  16.116   2.870   3.685 -0.1332  0.0043 -0.2347
 6166W        W22300   9.655  16.533   1.094  0.4619 -0.4825 -0.1182
 6167W        W22301  11.681  12.156   0.209 -0.1695 -0.3132 -0.1055
 6168W        W22302  16.782   5.165   2.931  0.3388 -0.2785  0.1791
 6169W        W22303  17.566  10.666   3.098  0.1162  0.2074  0.1250
 6170W        W22304   1.128  13.213  14.269  0.2568 -0.1179  0.0263
 6171W        W22305  17.326   1.332  10.149 -0.0974  0.2793 -0.1117
 6172W        W22306   7.003  15.432  13.377  0.1616  0.1081  0.1094
 6173W        W22307  14.529   9.907   2.079  0.3480  0.0913 -0.0294
 6174W        W22308  17.996   0.212  11.490 -0.1521 -0.3230 -0.1865
 6175W        W22309  12.418  17.991   2.624  0.2158  0.1831  0.0967
 6176W        W22310  11.515  17.027  15.387 -0.1728  0.2953  0.0663
 6177W        W22311   2.444   3.136  10.700 -0.0717 -0.3950  0.0617
 6178W        W22312  13.851   8.536   0.453  0.0897 -0.0688  0.1103
 6179W        W22313   9.418  17.378  11.989  0.1694 -0.0693 -0.2328
 6180W        W22314   6.561  16.073   1.702  0.2076 -0.2290  0.0898
 6181W        W22315  13.941   9.514   3.621 -0.0148 -0.0993 -0.0239
 6182W        W22316   0.929  10.758  13.199 -0.1180  0.3005  0.2171
 6183W        W22317   7.881  16.582  14.117  0.0179 -0.0711  0.1970
 6184W        W22318   3.499   7.742   4.687  0.1657  0.1364  0.2235
 6185W        W22319  15.319   6.445  11.969  0.0195  0.0674 -0.0063
 6186W        W22320   1.889  13.463   5.897  0.1533  0.0116 -0.0209
 6187W        W22321   7.274   4.905   4.328 -0.0896  0.0646  0.0345
 6188W        W22322   3.922   8.320   3.948  0.1488  0.1796  0.1393
 6189W        W22323   9.680  15.327  13.027 -0.1190 -0.0948 -0.1297
 6190W        W22324  16.115  12.076  13.419  0.0786 -0.1566  0.0947
 6191W        W22325  13.627  17.349   0.052 -0.2450 -0.0579 -0.0520
 6192W        W22326   6.351   1.876  12.610 -0.0787  0.1895 -0.1599
 6193W        W22327  10.907   9.386  15.846 -0.0901  0.2323  0.0437
 6194W        W22328  12.338   1.130   9.860  0.1738  0.0487  0.0965
 6195W        W22329  17.474  15.549  11.616 -0.0675 -0.0242 -0.2090
 6196W        W22330   9.203   4.280   2.444 -0.2050 -0.1481 -0.0549
 6197W        W22331   2.352   0.488  12.158  0.2114  0.1477 -0.1436
 6198W        W22332  13.116   7.345   1.450 -0.1216 -0.0154  0.0246
 6199W        W22333   4.155   0.165  15.762 -0.0819  0.0205  0.3537
 6200W        W22334  15.554   0.310  15.179  0.1281  0.1999  0.0404
 6201W        W22335  16.558   6.161  13.882 -0.1078 -0.2524  0.2597
 6202W        W22336   8.548   3.252   2.937  0.0358  0.2564 -0.0672
 6203W        W22337  14.746   0.904   4.218  0.1175 -0.4230 -0.2347
 6204W        W22338   4.100   9.298   4.454 -0.0734 -0.2769  0.0521
 6205W        W22339  10.643   2.363   3.965  0.0318  0.0525 -0.1130
 6206W        W22340   5.226  16.866  15.904  0.1225 -0.0611 -0.0917
 6207W        W22341  17.668   0.000  11.213  0.0247  0.0208 -0.2567
 6208W        W22342   7.614  10.356  15.714 -0.2003 -0.2343  0.0865
 6209W        W22343   5.534  10.803   2.207 -0.0353  0.1996 -0.0004
 6210W        W22344   9.422  13.884  11.888 -0.0941 -0.1930  0.0179
 6211W        W22345   2.609   5.411   3.260 -0.0573 -0.0086 -0.0209
 6212W        W22346  12.652  11.070  11.148 -0.0157 -0.1350  0.2856
 6213W        W22347  11.561  17.183   3.698 -0.2230  0.1891 -0.3117
 6214W        W22348   7.668  12.185   2.113  0.0924  0.0906  0.2253
 6215W        W22349   4.211   8.971  13.778 -0.1269 -0.0952  0.1480
 6216W        W22350  15.091  17.826   1.064 -0.1339  0.0628  0.0155
 6217W        W22351  13.343   7.500   5.870 -0.0303  0.0606 -0.0068
 6218W        W22352  16.534   1.783  11.460 -0.2295 -0.0813  0.1108
 6219W        W22353   0.812  12.228  10.868 -0.0706  0.0292 -0.1354
 6220W        W22354  14.912  13.650  13.541  0.2335  0.0303  0.0010
 6221W        W22355  17.152   0.103  13.569 -0.1391 -0.0405 -0.1013
 6222W        W22356  15.255  13.601  11.371 -0.3888 -0.1892 -0.0957
 6223W        W22357   6.090  10.903  13.562  0.0598  0.1178  0.0125
 6224W        W22358   6.022   0.731  14.282 -0.1375  0.0577  0.0380
 6225W        W22359  14.811  15.155   4.075  0.0875  0.2220 -0.3861
 6226W        W22360   2.989   5.665  13.621  0.0661 -0.2041 -0.2785
 6227W        W22361   8.782  10.475   1.324 -0.1569  0.1046  0.2344
 6228W        W22362   1.726  16.880  15.027 -0.0822  0.1894  0.2772
 6229W        W22363   8.119  10.308  12.382  0.2344 -0.1849  0.1032
 6230W        W22364  16.498  12.459  12.134  0.0436 -0.3557  0.0720
 6231W        W22365   2.609   1.644  15.876 -0.0079 -0.4861  0.2304
 6232W        W22366  12.093   6.379   3.148  0.0919 -0.0885  0.1205
 6233W        W22367  16.676  18.169  13.768 -0.1644  0.1308  0.2101
 6234W        W22368   6.990   1.202   0.740  0.2536  0.2437 -0.2956
 6235W        W22369  17.328  11.866   4.350  0.0244 -0.0074  0.0239
 6236W        W22370  10.239  15.985  15.798  0.0438 -0.3001 -0.1948
 6237W        W22371   2.025   7.017   4.656 -0.0064  0.2193  0.1988
 6238W        W22372  10.335   0.603  12.741 -0.2573 -0.1139  0.3606
 6239W        W22373  15.946  11.790   0.154 -0.0032  0.2829  0.0832
 6240W        W22374  16.211   0.613   5.213 -0.1151  0.1320  0.0294
 6241W        W22375  13.213  10.258   3.338  0.0800  0.0643 -0.1231
 6242W        W22376  15.404   3.980  11.348  0.1294 -0.3175 -0.2858
 6243W        W22377   6.577   5.593  12.698 -0.0349 -0.0607  0.0340
 6244W        W22378   3.629  17.038   1.558 -0.0838  0.2283 -0.2478
 6245W        W22379   8.038   3.272   4.375 -0.3839  0.2976 -0.2077
 6246W        W22380   5.518   3.163  12.316 -0.0119 -0.0169  0.0341
 6247W        W22381   2.592   8.557   2.333 -0.0824  0.0311  0.3114
 6248W        W22382  13.978   1.858   4.938  0.2278  0.0220 -0.0169
 6249W        W22383  17.916  16.286   3.807 -0.0830  0.3969  0.0430
 6250W        W22384   4.095   0.957  10.441  0.0169  0.0348  0.0768
 6251W        W22385  17.234  18.337  15.078 -0.1587 -0.1942 -0.1151
 6252W        W22386  12.435   6.415   1.635  0.0351 -0.1487  0.2894
 6253W        W22387   2.414  10.580   1.249  0.2823  0.1443  0.0966
 6254W        W22388   5.877  12.272  11.409  0.2972 -0.2885 -0.3225
 6255W        W22389   4.963   2.217  13.981 -0.2184 -0.2577  0.3171
 6256W        W22390   7.985  16.703   0.682 -0.1696 -0.1706 -0.1364
 6257W        W22391  16.756  12.413  14.765 -0.2362  0.0049 -0.1070
 6258W        W22392   3.442  18.092  14.185 -0.1956 -0.1344  0.2458
 6259W        W22393   2.795  11.640  11.116 -0.0262  0.1837  0.1700
 6260W        W22394   9.269  15.870   2.894  0.2449 -0.1896 -0.1394
 6261W        W22395  17.965  11.803  11.101  0.1243  0.1017 -0.1089
 6262W        W22396  13.524   6.368   3.779  0.1846 -0.1070 -0.1193
 6263W        W22397   0.890   0.039  12.037  0.0682 -0.1969 -0.1513
 6264W        W22398  10.066  17.099  15.044 -0.0751  0.0811  0.0618
 6265W        W22399   8.357   7.785  10.494  0.1567  0.0959  0.2447
 6266W        W22400  12.950  12.390  14.105  0.3411  0.1001  0.3556
 6267W        W22401   1.183  18.210   4.603  0.2300 -0.4536  0.1758
 6268W        W22402   9.603  15.483   4.690  0.1857  0.0886 -0.0061
 6269W        W22403  12.437   6.812   1.910  0.1080 -0.0127 -0.0451
 6270W        W22404  16.014   6.254  12.908 -0.2116 -0.3202  0.4206
 6271W        W22405  15.391   8.813  15.543 -0.1097 -0.0068  0.2779
 6272W        W22406   8.653   0.265  15.492  0.5241 -0.0745  0.0932
 6273W        W22407  16.807  17.514   5.395 -0.0983  0.2157 -0.2148
 6274W        W22408  17.592  15.859   3.447 -0.1829 -0.2195  0.0485
 6275W        W22409   4.384   6.246   3.266 -0.1025  0.0229  0.3453
 6276W        W22410   0.222  11.333  15.382 -0.0195  0.1866  0.1877
 6277W        W22411  10.338  16.982   4.417  0.0049  0.0836  0.1901
 6278W        W22412   5.158   1.023  11.633 -0.0574 -0.0161  0.0183
 6279W        W22413   7.778   2.228   4.374 -0.1300  0.0762 -0.0448
 6280W        W22414   1.136   3.610   1.426  0.1720 -0.0006 -0.1218
 6281W        W22415   7.209  14.817   1.823  0.3133  0.0720  0.1394
 6282W        W22416  16.860   6.743  15.410 -0.0784  0.1271  0.1775
 6283W        W22417  12.828  16.684   2.912 -0.0519  0.0015 -0.0571
 6284W        W22418  15.069   9.189   5.329  0.0960  0.2486 -0.4502
 6285W        W22419  17.934  14.014   5.175  0.2288 -0.1153 -0.0289
 6286W        W22420  11.266  15.590  14.313  0.0720 -0.1495 -0.1865
 6287W        W22421  14.489   5.212  12.108 -0.1017 -0.3226 -0.0332
 6288W        W22422   3.619  11.756   2.965 -0.0659 -0.0774  0.0033
 6289W        W22423  18.229   2.009  15.823 -0.2185 -0.2044  0.0214
 6290W        W22424  10.303  14.650  15.211  0.1176 -0.0010  0.2954
 6291W        W22425  17.714   2.092  14.939 -0.1378 -0.0532 -0.0398
 6292W        W22426   0.476  14.135  12.652  0.1869  0.0984  0.1152
 6293W        W22427   2.060  16.606   3.477  0.0785 -0.2525  0.0157
 6294W        W22428  16.584   6.451  13.388 -0.2360 -0.0217 -0.1745
 6295W        W22429   8.092   2.232   5.001 -0.3373 -0.0704 -0.3275
 6296W        W22430   9.337   7.357  12.049 -0.0812 -0.0490 -0.1521
 6297W        W22431  14.422  12.301  12.572 -0.2186  0.0704 -0.0361
 6298W        W22432   9.960   1.376   4.064 -0.0932 -0.1194  0.0572
 6299W        W22433  10.513   1.604  13.064  0.0282 -0.1085  0.0702
 6300W        W22434   2.956  12.455  15.467  0.0231  0.0497  0.0611
 6301W        W22435   7.088   2.159   2.189 -0.2050  0.1790 -0.0128
 6302W        W22436   7.033   4.945   5.647  0.0949  0.0631 -0.2405
 6303W        W22437  11.410   5.263  14.532 -0.0089  0.4203 -0.0109
 6304W        W22438   3.486  10.738   2.749  0.2360  0.0079  0.0079
 6305W        W22439   8.669  13.443   4.251 -0.1346 -0.1495  0.1935
 6306W        W22440   5.910  12.498  12.982  0.0182  0.0760  0.0372
 6307W        W22441  12.293   4.565  15.791 -0.1993  0.1286  0.0553
 6308W        W22442  14.514   5.564   2.517 -0.1184 -0.0980  0.1336
 6309W        W22443   0.549  11.733   2.819  0.1149  0.2380  0.3410
 6310W        W22444  17.743   2.669  11.421  0.0840 -0.1302 -0.1389
 6311W        W22445   2.070   7.819   2.680 -0.2322 -0.1512 -0.2827
 6312W        W22446   1.881   4.171  15.408 -0.0842 -0.3338 -0.2537
 6313W        W22447   9.248  17.173   2.149 -0.1902 -0.1028  0.2775
 6314W        W22448  11.371  10.189  14.053 -0.0918 -0.2349 -0.1629
 6315W        W22449   9.613   5.587  13.116  0.3307 -0.0194 -0.0390
 6316W        W22450   4.958  14.726   2.418 -0.0668  0.0454 -0.2036
 6317W        W22451   4.804  17.300  12.515 -0.1011 -0.1357  0.0300
 6318W        W22452  14.961  13.442  12.287 -0.3046 -0.2217 -0.0573
 6319W        W22453  13.136   4.683   0.767  0.0492  0.0463  0.0478
 6320W        W22454   4.206   5.427   5.636 -0.2915  0.1630 -0.2542
 6321W        W22455  17.810  11.365   2.783  0.2049  0.0657  0.0453
 6322W        W22456   8.428  17.391   5.797  0.2395 -0.0038 -0.1686
 6323W        W22457   4.234   0.946   2.761  0.0004  0.1171 -0.2342
 6324W        W22458   7.561   6.698  13.730 -0.3754 -0.0007  0.2169
 6325W        W22459   5.203  17.256   5.282  0.2034 -0.0354  0.2232
 6326W        W22460  13.195  10.632   5.871  0.0219  0.2917 -0.1354
 6327W        W22461   8.040  14.013   2.359  0.0370 -0.2113 -0.1314
 6328W        W22462   9.630  15.546   5.250  0.0118 -0.2405  0.0495
 6329W        W22463   2.388   4.684  11.677 -0.0836 -0.0502  0.0718
 6330W        W22464  17.231  10.945  15.751 -0.0625 -0.0483 -0.2024
 6331W        W22465   9.443   0.484   1.422 -0.1916 -0.2834  0.0968
 6332W        W22466  15.571  15.605  11.737  0.1998  0.2303 -0.0043
 6333W        W22467  11.574  16.131  13.765 -0.0904  0.5055 -0.0107
 6334W        W22468  15.517  14.940  13.324  0.2006  0.1804 -0.0753
 6335W        W22469  16.000   8.981   0.231 -0.1025 -0.0434  0.0211
 6336W        W22470  13.679  13.021  14.646  0.0293  0.4820  0.1464
 6337W        W22471  11.583  18.345  11.060 -0.4011  0.0722 -0.3084
 6338W        W22472   4.266   5.318   1.212 -0.1303  0.0406  0.1808
 6339W        W22473   4.064   1.532   4.623 -0.0413  0.0685  0.2588
 6340W        W22474  17.941   6.758   2.069  0.1835  0.2263  0.0420
 6341W        W22475  10.095   9.373   0.417 -0.2717 -0.3839 -0.2690
 6342W        W22476   7.155  10.317   3.726  0.2835 -0.0990 -0.0235
 6343W        W22477  12.937   7.440  11.989 -0.1876  0.0129  0.1757
 6344W        W22478   4.769   7.552  11.878  0.0734 -0.2048 -0.1334
 6345W        W22479   4.165  12.705  15.718 -0.0198  0.1577 -0.5988
 6346W        W22480  11.999  13.965  12.136  0.2292  0.0765 -0.0054
 6347W        W22481  17.599  14.838   2.671 -0.3262 -0.0267 -0.1971
 6348W        W22482  14.132   7.851  10.511  0.0435  0.1860 -0.2510
 6349W        W22483   8.538   3.609   0.568 -0.1000 -0.1828  0.4094
 6350W        W22484  14.880   6.066   2.279  0.0520  0.1777 -0.3211
 6351W        W22485  10.963  14.892  15.179  0.1626 -0.0936 -0.0806
 6352W        W22486   0.139   2.538  14.045  0.4703  0.1705  0.0913
 6353W        W22487   6.797   2.766   0.346 -0.2953  0.2561 -0.1173
 6354W        W22488  15.266  10.710   4.927  0.0049  0.1392 -0.1874
 6355W        W22489  16.674   4.826   1.292  0.1428  0.0216 -0.0981
 6356W        W22490   6.689   5.679  10.834 -0.0243 -0.3212  0.1918
 6357W        W22491   0.559   8.999   3.520 -0.1481 -0.0976  0.1152
 6358W        W22492   2.557   3.851   4.204  0.1620  0.0217 -0.1327
 6359W        W22493   1.184  16.150  11.764 -0.0236 -0.0688  0.1578
 6360W        W22494  10.092  16.406  15.422  0.0039  0.1181 -0.1148
 6361W        W22495  13.442   0.632   1.100  0.1158 -0.2127 -0.2173
 6362W        W22496  16.089   3.447  15.291 -0.0331 -0.1280 -0.2290
 6363W        W22497   3.029   5.839  11.744 -0.1654  0.1099  0.3612
 6364W        W22498  14.250   8.812   1.426 -0.0172 -0.2055 -0.1063
 6365W        W22499   7.928   5.627  13.595 -0.0255 -0.0355  0.0052
 6366W        W22500   4.609   0.243   4.557 -0.2024 -0.0156  0.3078
 6367W        W22501   4.379  10.926  15.506  0.1564  0.2761 -0.0922
 6368W        W22502   3.796  10.999  12.185  0.0151 -0.0334  0.1008
 6369W        W22503  14.428   2.221  13.591 -0.1505  0.1734 -0.0260
 6370W        W22504  13.507   8.038   3.674  0.0302 -0.0421 -0.1843
 6371W        W22505  18.047   1.189  15.258  0.1246 -0.0342  0.1171
 6372W        W22506  11.320  11.784  13.248  0.0675  0.2075  0.0462
 6373W        W22507   4.707   5.562  12.671  0.2037  0.0419  0.1747
 6374W        W22508  15.798   2.398  12.721  0.1668  0.2152  0.1202
 6375W        W22509   4.591  15.365  14.632 -0.3390 -0.0280  0.1003
 6376W        W22510   7.496  17.975   5.318 -0.1167  0.0209  0.0388
 6377W        W22511  17.895  11.225   1.943  0.0068 -0.0367 -0.0902
 6378W        W22512  14.120  17.212  13.049  0.1259 -0.4555  0.0433
 6379W        W22513  10.477  18.096  12.414 -0.2378 -0.2661  0.0903
 6380W        W22514  17.794  13.057   0.325  0.0282  0.1037 -0.0230
 6381W        W22515  10.718  11.512  14.698 -0.2339 -0.0207  0.1906
 6382W        W22516   8.425   5.279   0.177  0.1599 -0.1471  0.1279
 6383W        W22517  14.570  15.265  13.477 -0.1122 -0.0405  0.1551
 6384W        W22518   7.396   7.568  14.671  0.1177 -0.1151 -0.0297
 6385W        W22519  15.812   1.730   1.719 -0.1206 -0.0482 -0.0874
 6386W        W22520   0.441   4.042   3.752  0.2505  0.1424 -0.3182
 6387W        W22521  11.711   9.984   1.272  0.1541  0.1700  0.1987
 6388W        W22522   3.499  17.696  11.833  0.1118  0.1161  0.1568
 6389W        W22523   6.608   9.495  11.332  0.1430 -0.4088 -0.0192
 6390W        W22524  17.224  15.188   1.207 -0.0637  0.4249  0.1699
 6391W        W22525   2.415  14.688   2.668 -0.3566  0.0279 -0.0350
 6392W        W22526   1.151  11.050   3.067 -0.0818  0.2240 -0.0723
 6393W        W22527   7.401  16.850   2.515 -0.5447  0.1084 -0.0512
 6394W        W22528   9.920   3.598   4.935  0.0924 -0.2450  0.0523
 6395W        W22529  17.350  14.052  10.721  0.1121 -0.2161  0.1080
 6396W        W22530   0.913   0.092   3.633 -0.2370 -0.1406  0.1567
 6397W        W22531   3.913   3.874   5.398 -0.1029 -0.4808  0.2699
 6398W        W22532   4.019   7.657   2.822 -0.0127 -0.0724 -0.1421
 6399W        W22533  10.407   3.762   4.187  0.0024 -0.0612 -0.0965
 6400W        W22534  17.952  11.828  13.711 -0.1535  0.2058 -0.0853
 6401W        W22535  10.732  11.196   5.343  0.0796 -0.0877 -0.0552
 6402W        W22536  15.313   0.797  13.980 -0.0976 -0.4211 -0.1070
 6403W        W22537   4.343  15.938   3.016  0.1931  0.0108 -0.0045
 6404W        W22538  18.429   8.990  15.782  0.1100 -0.0297 -0.0254
 6405W        W22539  12.293  12.336   2.100 -0.3258 -0.2387  0.0102
 6406W        W22540   9.641  12.194  13.592  0.0547 -0.1310  0.2432
 6407W        W22541  14.624  13.195  14.671  0.0001 -0.0453 -0.2203
 6408W        W22542   3.567  17.515   1.346 -0.1514  0.2517 -0.2842
 6409W        W22543   4.667  18.098   3.610 -0.0055 -0.1075 -0.1427
 6410W        W22544   1.608   2.716   1.558  0.1489 -0.3197  0.2173
 6411W        W22545  15.472   2.277  15.033  0.0334 -0.0388 -0.3174
 6412W        W22546   1.027   4.334  11.122 -0.0929 -0.0412  0.1276
 6413W        W22547  15.919   0.488   2.632  0.0974 -0.0440  0.1726
 6414W        W22548  12.406  11.455   3.291 -0.3056 -0.2494 -0.0435
 6415W        W22549  11.287  14.796  12.682 -0.0342 -0.0417  0.1310
 6416W        W22550  16.971   5.286   3.883 -0.1798  0.1043  0.2016
 6417W        W22551  11.447  12.320   5.178  0.1057  0.0239 -0.1167
 6418W        W22552   2.682   7.713  11.914  0.0077 -0.2383 -0.0377
 6419W        W22553   0.212   5.669   2.549 -0.3803  0.1661 -0.2772
 6420W        W22554   9.140  13.511  12.187  0.0940  0.0086  0.2576
 6421W        W22555   7.153  15.848   1.099  0.0096 -0.1724 -0.1512
 6422W        W22556  12.465   5.062  10.013  0.1986 -0.1406 -0.0982
 6423W        W22557  16.867   0.522  15.769 -0.0206 -0.1376  0.3967
 6424W        W22558   3.141   8.251   0.310 -0.1413  0.0248 -0.0090
 6425W        W22559   6.317  16.379   4.859  0.5191 -0.3082 -0.1019
 6426W        W22560   7.479  14.378   3.258 -0.0244 -0.2296 -0.3336
 6427W        W22561   1.054   4.627   5.616 -0.0741  0.0218 -0.0095
 6428W        W22562   0.923   7.213  15.050  0.0615 -0.0134 -0.1035
 6429W        W22563  12.773   8.184   2.768 -0.0460  0.0308  0.0364
 6430W        W22564  10.254   4.833   1.356  0.0801 -0.2142  0.1752
 6431W        W22565  15.797  14.504   3.069  0.1363 -0.0821  0.0159
 6432W        W22566  14.299  13.858   1.079  0.5857  0.0086 -0.1237
 6433W        W22567  12.558  16.311  11.136  0.0742 -0.1076 -0.2002
 6434W        W22568  14.648   5.907  14.467 -0.3273  0.0377  0.1923
 6435W        W22569  11.470   2.745   5.685  0.0457 -0.1125  0.1816
 6436W        W22570  13.923   7.603   0.672 -0.2091  0.2154  0.2296
 6437W        W22571   6.048  11.466   0.890 -0.2672  0.1436  0.1504
 6438W        W22572   3.630   9.597  14.287  0.1415 -0.2926 -0.2630
 6439W        W22573   4.714  12.799  15.305 -0.0509 -0.0799  0.1359
 6440W        W22574   7.141   2.900  13.118 -0.0429  0.0014 -0.2171
 6441W        W22575  17.704   4.564   2.361  0.0740 -0.1245  0.4245
 6442W        W22576  15.602   5.960  12.613  0.0527 -0.0524 -0.2330
 6443W        W22577  17.705  15.310  13.570  0.3490  0.1789  0.0215
 6444W        W22578   3.363   5.935   0.140 -0.1761 -0.0484  0.0466
 6445W        W22579  14.880   4.563   1.647 -0.1148 -0.0599 -0.1835
 6446W        W22580   9.471   6.725  15.634 -0.2709 -0.1769 -0.3065
 6447W        W22581  12.529  17.856   6.114 -0.5698 -0.3701  0.1542
 6448W        W22582   9.225  16.471  15.385 -0.1049  0.1684  0.0293
 6449W        W22583  18.451   6.112  12.785  0.0014  0.2341  0.0655
 6450W        W22584  11.806  17.533   4.905 -0.3347  0.1722 -0.0049
 6451W        W22585  16.917   3.347  12.273  0.2087 -0.0056  0.1505
 6452W        W22586  13.150  16.178   4.567 -0.2492 -0.2410  0.0772
 6453W        W22587  11.046   1.428  11.080 -0.3465 -0.2947  0.1082
 6454W        W22588  15.843  12.993  15.733  0.0116 -0.2781 -0.0137
 6455W        W22589   8.640   6.200  14.616  0.1188  0.2603  0.1986
 6456W        W22590   9.349   4.328  12.883 -0.2164  0.2301 -0.0227
 6457W        W22591   2.594   8.270   0.283 -0.1189  0.2535 -0.1661
 6458W        W22592  16.710   4.685   4.167  0.2982  0.1146  0.0459
 6459W        W22593   5.112   7.543   0.856 -0.1307 -0.2412 -0.0821
 6460W        W22594   0.663  15.876   5.022  0.3337  0.0948  0.1442
 6461W        W22595  11.419  17.602   2.826 -0.0535 -0.0152 -0.1747
 6462W        W22596  11.600   6.008   2.469  0.0957  0.2163 -0.0608
 6463W        W22597   3.674   8.603   4.286 -0.2256  0.1727  0.2124
 6464W        W22598  16.370   7.902   2.130  0.2749  0.1783 -0.5240
 6465W        W22599   1.996   3.325  15.497 -0.1888 -0.0327 -0.0240
 6466W        W22600  12.488  10.871   2.027 -0.0883 -0.3589  0.3924
 6467W        W22601  17.032   3.217  12.742 -0.1643 -0.2772 -0.0857
 6468W        W22602   1.108  14.559  15.245 -0.2028  0.1782  0.1812
 6469W        W22603   7.495  16.457   6.072 -0.2510 -0.1201 -0.2258
 6470W        W22604  14.490  14.417  14.519 -0.2647 -0.0493 -0.3800
 6471W        W22605  17.361   3.157   5.629 -0.0344 -0.4727 -0.0131
 6472W        W22606   7.615  14.067   0.573 -0.2994  0.1002 -0.1189
 6473W        W22607  17.730  12.335  13.741 -0.3313 -0.1636  0.3519
 6474W        W22608  13.061   5.079  11.898 -0.0319  0.2048  0.1626
 6475W        W22609  16.552   3.021  15.107  0.1562 -0.2210 -0.3665
 6476W        W22610  13.973  18.165  14.945 -0.0233 -0.1671  0.1778
 6477W        W22611  15.879  10.034   1.092  0.0942 -0.0395 -0.2012
 6478W        W22612   1.503   9.613   5.597  0.0641 -0.0096 -0.1468
 6479W        W22613   3.117  14.867  12.780  0.0791 -0.0911  0.3661
 6480W        W22614   5.428   8.747  10.741  0.0487  0.3241 -0.0186
 6481W        W22615  12.611   6.481   2.644 -0.0310  0.1833 -0.0609
 6482W        W22616   5.927   1.091   1.265 -0.2349  0.0591 -0.2457
 6483W        W22617   5.245   2.925   5.230 -0.1659  0.5053 -0.0999
 6484W        W22618   4.753   7.910  11.525 -0.1882  0.0068 -0.1006
 6485W        W22619   8.084  14.242  15.831  0.1467  0.1118  0.2197
 6486W        W22620   9.792  10.182   1.281 -0.1756  0.0165  0.0677
 6487W        W22621   7.999  16.708   0.053  0.0231 -0.1211  0.1833
 6488W        W22622   3.704   9.018   0.547  0.0439 -0.1394  0.2120
 6489W        W22623  11.532  14.912  15.303 -0.0383  0.1527 -0.0926
 6490W        W22624  12.210  12.962  13.696  0.1901 -0.1565 -0.0136
 6491W        W22625   6.087   1.973   3.529 -0.2241 -0.0195 -0.0903
 6492W        W22626   3.031   6.180  13.649  0.3815 -0.0020  0.0292
 6493W        W22627  13.435   4.115  14.522  0.3126  0.0129 -0.1890
 6494W        W22628  11.637   2.796   1.759  0.1281 -0.3490 -0.0216
 6495W        W22629   3.966   2.878   2.281  0.0651  0.0395  0.0178
 6496W        W22630  16.326  14.283  14.420 -0.3471 -0.3543  0.0410
 6497W        W22631  14.508   0.677   1.157  0.2258 -0.0438  0.0611
 6498W        W22632  17.367  13.371   0.389  0.0622 -0.1905  0.1114
 6499W        W22633   8.035   8.972   1.426 -0.0888 -0.0865 -0.2580
 6500W        W22634   5.921   1.259  12.167 -0.3007 -0.1728  0.0261
 6501W        W22635  13.322  15.606  13.391  0.2153 -0.2186  0.1827
 6502W        W22636   6.442   1.245  12.261  0.0191 -0.2170  0.3288
 6503W        W22637  15.703  11.815  13.560 -0.1030  0.0644  0.0059
 6504W        W22638  15.854   8.528  11.720 -0.2763 -0.1076 -0.2205
 6505W        W22639  14.713   4.875   5.582 -0.0616 -0.0932 -0.3219
 6506W        W22640  13.946  10.358  13.481 -0.1090  0.0629  0.2593
 6507W        W22641   7.237   0.184   4.162 -0.1927  0.1810 -0.2372
 6508W        W22642  11.413   6.685  10.893  0.5030 -0.0911 -0.0435
 6509W        W22643  12.594   5.249   3.041 -0.1712  0.1830 -0.1431
 6510W        W22644  11.095  17.448  11.354 -0.2779 -0.2513  0.1581
 6511W        W22645  15.664   2.705  11.970  0.3187 -0.3013 -0.2835
 6512W        W22646  13.917  17.193   3.370 -0.0892  0.1422 -0.0007
 6513W        W22647  11.787  10.234  12.439 -0.4766  0.0799 -0.2415
 6514W        W22648  17.585  15.180  12.750  0.0391 -0.1092  0.0090
 6515W        W22649  13.793  16.846   1.175 -0.0348  0.1647  0.1498
 6516W        W22650  16.020  16.569   1.771  0.0378  0.0622 -0.1165
 6517W        W22651  10.979  11.841   1.305  0.0516  0.1642 -0.2228
 6518W        W22652  13.269   0.025   1.341 -0.0774  0.0013  0.0434
 6519W        W22653  16.562   5.489   1.694 -0.1130 -0.2144  0.2425
 6520W        W22654   9.824  15.914   4.966 -0.0150 -0.1739 -0.2605
 6521W        W22655   4.396   7.651   4.526 -0.3468  0.0031  0.1801
 6522W        W22656   5.382   7.710   2.442 -0.0651  0.0829 -0.4680
 6523W        W22657   6.512  16.359  14.337 -0.0720 -0.0151 -0.1100
 6524W        W22658   1.099   9.076   4.937 -0.1551  0.2166  0.4078
 6525W        W22659   4.527  13.214   1.561  0.3062  0.1548 -0.1162
 6526W        W22660   1.906   1.926  15.301  0.2598  0.0739 -0.4199
 6527W        W22661  12.809   6.769  15.657  0.0435  0.3163 -0.0129
 6528W        W22662   4.104   7.923  13.404  0.2462  0.5394  0.3781
 6529W        W22663   3.360  11.541  15.233  0.1401 -0.0718 -0.0341
 6530W        W22664  13.702   5.997  11.928 -0.0698 -0.0682 -0.2673
 6531W        W22665  15.802   2.429  11.579 -0.1801 -0.0628  0.0703
 6532W        W22666   6.124  11.667   6.014 -0.1192  0.0505  0.0355
 6533W        W22667  12.923  11.499   1.282 -0.1477  0.0987  0.0200
 6534W        W22668  17.539  11.220  11.848  0.2672 -0.0687 -0.2595
 6535W        W22669  17.290  14.811  13.497  0.5235  0.0071  0.0758
 6536W        W22670  12.313   8.260   1.474  0.0425  0.0731 -0.0520
 6537W        W22671   4.935   7.464  15.257  0.1945 -0.3819  0.1153
 6538W        W22672   7.104   3.860   0.179 -0.2531  0.2066  0.0149
 6539W        W22673  13.799   4.136   4.846  0.2885 -0.2309 -0.0374
 6540W        W22674   0.913   9.371  14.091 -0.1287 -0.0292 -0.0651
 6541W        W22675  14.370   0.186   5.829  0.0610 -0.5247 -0.2145
 6542W        W22676  12.869   2.757  13.343  0.3341 -0.1238 -0.2611
 6543W        W22677  13.814   2.606   4.158  0.0297  0.0851 -0.2651
 6544W        W22678   3.597   9.879  10.720 -0.3620  0.4557 -0.1514
 6545W        W22679   4.022  15.088  14.519  0.0935  0.3186  0.1393
 6546W        W22680   8.953  16.577   0.896  0.1415  0.0664 -0.1975
 6547W        W22681   3.593   3.769   3.995  0.0591  0.1332  0.0125
 6548W        W22682  10.682   6.803  14.672 -0.3391  0.1727  0.1164
 6549W        W22683   5.848  14.445  12.575  0.1450  0.0180  0.0470
 6550W        W22684  11.111  14.997   0.737 -0.4286 -0.0505  0.1194
 6551W        W22685  13.554   6.937   3.799 -0.3441  0.2554  0.1251
 6552W        W22686   7.625  17.461   4.534  0.2893  0.0906  0.4119
 6553W        W22687  12.990   9.423  13.319 -0.0767  0.0455 -0.0292
 6554W        W22688  13.989  13.377  10.878  0.3895 -0.1764 -0.2401
 6555W        W22689  15.882  11.972   3.703 -0.0974 -0.0131 -0.2280
 6556W        W22690  14.806  11.514  13.412 -0.1303 -0.2463  0.3033
 6557W        W22691   6.870   3.180  12.773 -0.3399 -0.0295  0.2579
 6558W        W22692  15.364   9.957   1.939 -0.2116  0.0418  0.0831
 6559W        W22693   3.905  11.926   3.715 -0.2277 -0.1886  0.0854
 6560W        W22694  15.367  13.245   1.971 -0.1674  0.1962  0.3699
 6561W        W22695   6.370  13.124   2.181 -0.0393  0.0431 -0.0171
 6562W        W22696   8.755  12.325  13.412 -0.4927 -0.0721 -0.3693
 6563W        W22697   6.457  13.841   2.675 -0.1027 -0.2903  0.0374
 6564W        W22698   4.212  12.670   0.843  0.1313 -0.0965 -0.1053
 6565W        W22699   0.967  10.386   4.610 -0.4401 -0.0198  0.3455
 6566W        W22700  11.587  11.103  12.780  0.2140  0.0653 -0.2309
 6567W        W22701  12.730  15.628   3.796  0.5533 -0.1635  0.0513
 6568W        W22702   0.318   0.454   3.860 -0.2232 -0.0969  0.0928
 6569W        W22703   9.061   1.515   1.544  0.1704  0.2617  0.0782
 6570W        W22704  10.692  14.687   2.344 -0.1607  0.1909 -0.3817
 6571W        W22705  15.067   3.759  11.676  0.0165 -0.1547  0.0663
 6572W        W22706  13.299   5.713   4.332  0.0690 -0.1065  0.1951
 6573W        W22707   3.146  13.345  11.797  0.2722  0.0735  0.2423
 6574W        W22708   2.678   4.909   3.233 -0.2113 -0.1039 -0.2299
 6575W        W22709  14.524  15.573  12.799 -0.1549  0.0910  0.1455
 6576W        W22710   4.193   9.407  14.653  0.0282  0.0330 -0.2675
 6577W        W22711  16.025  17.226   4.871  0.0455 -0.1800 -0.2665
 6578W        W22712   2.177  17.132  14.428 -0.3812 -0.0743 -0.1916
 6579W        W22713  16.905  11.356   4.316 -0.1152  0.0150  0.1105
 6580W        W22714  15.174  12.842  12.454 -0.3740  0.1365  0.3383
 6581W        W22715  12.730  10.642  13.059 -0.2477  0.1617  0.3986
 6582W        W22716   2.626   6.756  14.992  0.3310 -0.1476  0.0399
 6583W        W22717   1.777  14.474  13.820  0.3281 -0.0122 -0.2612
 6584W        W22718   1.195   8.790   1.454 -0.2418  0.0515 -0.1894
 6585W        W22719   9.010   8.009  10.345  0.0432 -0.0070 -0.2128
 6586W        W22720  14.609  12.556   4.858  0.0073  0.1454  0.0978
 6587W        W22721  15.439   4.234   3.705  0.1666 -0.4608  0.0328
 6588W        W22722  11.863  15.628   6.038  0.2230 -0.0411 -0.1167
 6589W        W22723   6.116  13.798   4.214  0.0929 -0.2050 -0.0834
 6590W        W22724  14.360  15.730  15.745 -0.1609 -0.5182 -0.0535
 6591W        W22725  12.408   3.722  15.294 -0.2285  0.1518  0.3579
 6592W        W22726  14.364  16.622   1.503 -0.0096  0.1371 -0.0345
 6593W        W22727  12.750   0.543   2.674 -0.2416 -0.0805 -0.2944
 6594W        W22728  10.206  11.142  15.417  0.0253 -0.0773 -0.3383
 6595W        W22729   1.635   5.212   2.087  0.0736 -0.0149 -0.4166
 6596W        W22730   2.397   1.974  15.115 -0.0920  0.0582 -0.1023
 6597W        W22731  10.767   2.184   0.848  0.0924  0.0264  0.0746
 6598W        W22732   4.372   9.460  13.665  0.0320  0.3997 -0.0198
 6599W        W22733  15.295   6.058   4.021 -0.2825 -0.4923  0.2977
 6600W        W22734  12.278   7.302   4.814  0.0119  0.2417  0.1691
 6601W        W22735  13.859   0.620   1.960  0.3614 -0.1116 -0.1632
 6602W        W22736   3.453  13.037   2.066  0.3790  0.4308 -0.2202
 6603W        W22737   2.699   4.234   2.505 -0.0068  0.1918 -0.0548
 6604W        W22738   0.044   1.494   4.050  0.0534 -0.0589  0.1377
 6605W        W22739   3.609   1.176   5.534  0.0306 -0.0810  0.1069
 6606W        W22740  14.601   6.420   2.871 -0.1839  0.3968  0.0499
 6607W        W22741   6.907  10.728  13.465  0.0133 -0.1959 -0.0227
 6608W        W22742   0.096   3.884  12.030  0.0261 -0.3008  0.0482
 6609W        W22743  14.779  14.094  14.265  0.0175  0.1458 -0.0939
 6610W        W22744   8.234  18.194   0.283 -0.0264 -0.0835  0.1211
 6611W        W22745   3.617  15.496   0.153  0.0228 -0.2473 -0.2297
 6612W        W22746   4.704  18.355   1.033 -0.1953 -0.3847  0.2139
 6613W        W22747   7.617   4.310   1.582 -0.2688  0.1089  0.0038
 6614W        W22748   1.957   9.335   0.009 -0.2926  0.2174  0.0184
 6615W        W22749  14.789  10.478  10.345  0.1000  0.0599  0.1451
 6616W        W22750   6.501  12.398   5.682 -0.1942 -0.0352 -0.4016
 6617W        W22751  17.086  17.109   5.241 -0.0845 -0.0074  0.3379
 6618W        W22752   2.129  16.596  15.065 -0.0959  0.2741  0.0783
 6619W        W22753   7.932  14.599  12.288  0.3750  0.2200  0.1272
 6620W        W22754   5.550  18.246   0.073  0.3340 -0.1600 -0.1431
 6621W        W22755  14.073  14.342   0.208  0.2588 -0.2469  0.0534
 6622W        W22756  13.607   9.053   3.463  0.1082  0.2161  0.0482
 6623W        W22757   7.147   3.393   1.849 -0.1957 -0.1475  0.1099
 6624W        W22758  13.581   3.479  14.995 -0.0147 -0.0861 -0.0037
 6625W        W22759   5.045  14.123  15.205 -0.4182  0.0712  0.0779
 6626W        W22760   3.294   9.036   1.443  0.0048  0.0191 -0.1324
 6627W        W22761   9.028   0.092   2.733  0.0065  0.0207 -0.1636
 6628W        W22762  11.891  11.397  10.577  0.2259 -0.1123 -0.0339
 6629W        W22763  10.907   5.891   1.212  0.2194  0.0908  0.0988
 6630W        W22764  12.239  14.815  15.123  0.1727  0.0558  0.0747
 6631W        W22765  16.503  13.689  15.263 -0.1526  0.2592  0.0785
 6632W        W22766   0.347  14.909  13.318  0.2425  0.0791 -0.3599
 6633W        W22767  13.124  15.861  12.813 -0.0799  0.0687  0.1585
 6634W        W22768   4.311   3.064  11.862  0.0397 -0.0085  0.1788
 6635W        W22769   1.228  11.879  11.783 -0.0248 -0.0727  0.0632
 6636W        W22770  12.757   4.446   3.440 -0.0546  0.1373  0.2522
 6637W        W22771  12.845  13.811   4.458 -0.1368 -0.0923  0.2088
 6638W        W22772   7.305   5.166   3.339 -0.1076 -0.0163  0.1268
 6639W        W22773   4.186  15.364  13.649 -0.0725 -0.2822  0.0106
 6640W        W22774   0.982  18.264   5.482  0.0534  0.0016  0.1895
 6641W        W22775   6.904   7.466  11.598 -0.1395 -0.0501  0.3281
 6642W        W22776  13.493  17.830  11.764 -0.3074  0.1345  0.0896
 6643W        W22777  16.470  17.181  12.901  0.0936  0.2737 -0.0291
 6644W        W22778  18.171   0.666  14.574 -0.2333 -0.2010 -0.0121
 6645W        W22779   4.061  13.865   4.224 -0.2866  0.0477  0.0092
 6646W        W22780   0.678   0.124   3.089 -0.4187 -0.1984  0.1579
 6647W        W22781  13.403   2.613  12.016 -0.0454 -0.2440  0.1201
 6648W        W22782   8.185   8.151   5.111  0.1281  0.0194 -0.2805
 6649W        W22783  17.241   3.116  15.647  0.0396 -0.3204  0.1138
 6650W        W22784   0.882   0.485   0.318  0.0728 -0.1023  0.0101
 6651W        W22785  13.834   5.139   3.778 -0.1972 -0.2240 -0.1287
 6652W        W22786   1.932   7.354  15.461 -0.0223  0.0015  0.0539
 6653W        W22787  12.342  15.654   2.904  0.1482  0.0227  0.0641
 6654W        W22788   0.026  11.112   4.322  0.0075 -0.0556 -0.0588
 6655W        W22789   0.703   5.810   4.567  0.1182 -0.2484 -0.2685
 6656W        W22790   0.132  12.312  14.052  0.3386  0.2559 -0.0875
 6657W        W22791   2.410   0.652  15.806 -0.0727 -0.6012  0.6096
 6658W        W22792  14.124  13.844  13.535  0.1072 -0.1219  0.2320
 6659W        W22793  10.946  11.126   0.147  0.0907  0.0698 -0.0467
 6660W        W22794  16.714   0.602  11.629 -0.0215 -0.2802 -0.3138
 6661W        W22795   2.425   3.667   5.116  0.1895 -0.2562 -0.2148
 6662W        W22796   1.032  12.229  14.310 -0.1650 -0.1235  0.2626
 6663W        W22797  10.047   6.670   0.911  0.1923  0.1186  0.3271
 6664W        W22798  10.013   9.454   1.277  0.0661 -0.1047 -0.0108
 6665W        W22799   0.962  14.983  14.276  0.1196 -0.0269 -0.0704
 6666W        W22800   3.923   0.766   1.251  0.0077 -0.0869  0.0012
 6667W        W22801   0.146  17.740  13.697 -0.2271 -0.1984 -0.2032
 6668W        W22802  17.693   7.515   4.237 -0.0822 -0.0827  0.0929
 6669W        W22803  16.947  11.902  14.619 -0.0415 -0.3560 -0.1271
 6670W        W22804  15.432  17.605   5.470  0.0868  0.0405  0.0587
 6671W        W22805   6.059  11.700   1.288  0.1066 -0.0438 -0.2810
 6672W        W22806   9.966  12.125   3.996  0.1273 -0.2368 -0.0004
 6673W        W22807  15.117  10.872  13.279  0.1554 -0.3693  0.0723
 6674W        W22808   7.520   0.965  14.547  0.2051 -0.2495  0.1538
 6675W        W22809   1.560   9.494   9.895 -0.2985 -0.0637 -0.1812
 6676W        W22810  10.224  17.294   2.263 -0.1298  0.0225 -0.1505
 6677W        W22811   3.887   1.723  14.712 -0.1227 -0.1700 -0.1204
 6678W        W22812   8.002   2.599   5.505 -0.4892  0.0917 -0.0120
 6679W        W22813  13.382  12.178   0.285 -0.1524 -0.1700 -0.1650
 6680W        W22814  10.115   0.198   1.867  0.2733  0.0808  0.3903
 6681W        W22815   0.902  14.804   4.823 -0.2835  0.1126 -0.2599
 6682W        W22816  15.084   1.726  10.008  0.0063 -0.1345  0.0939
 6683W        W22817   8.946   4.580   1.514  0.0533 -0.1645  0.0276
 6684W        W22818  13.014   6.320   2.344  0.2161 -0.2302  0.2752
 6685W        W22819   7.651   5.292   0.666  0.1291  0.1930 -0.1330
 6686W        W22820  11.269  14.593   1.071 -0.1007  0.0377 -0.0708
 6687W        W22821  11.810   9.345  12.054 -0.0201 -0.1367 -0.0399
 6688W        W22822  15.257  10.873   3.703  0.0517  0.0886 -0.1391
 6689W        W22823  18.320  11.073  15.166  0.0468  0.1268 -0.0464
 6690W        W22824   9.145   2.901   1.205  0.0239 -0.0077  0.0837
 6691W        W22825   6.708   6.959   0.446 -0.2901  0.3346  0.0765
 6692W        W22826   5.639   0.593   5.724 -0.0336  0.0659  0.1494
 6693W        W22827  17.488  11.959   5.308  0.0676  0.1487 -0.0413
 6694W        W22828  10.642  11.428   3.031 -0.3285  0.0168 -0.2525
 6695W        W22829  11.484   1.399  12.529 -0.0030 -0.3268  0.1914
 6696W        W22830  10.205   8.462  13.468 -0.2194  0.1877 -0.0741
 6697W        W22831  10.584   0.384  13.238 -0.1821 -0.0261  0.3954
 6698W        W22832  11.896   4.289   1.613 -0.2256 -0.0498 -0.0027
 6699W        W22833   6.857  12.199  15.406 -0.1529 -0.1250 -0.1335
 6700W        W22834   1.545  16.214   2.395 -0.0624  0.1156  0.1643
 6701W        W22835   3.103  11.669  13.902 -0.1571 -0.2489 -0.1628
 6702W        W22836   5.303   3.967  11.163  0.3540  0.2522  0.1954
 6703W        W22837  15.096   2.141   0.439 -0.1995  0.0655 -0.0066
 6704W        W22838   1.939  18.434   4.068  0.1947  0.2721  0.1242
 6705W        W22839  10.866   6.117  11.788 -0.1636 -0.1928  0.0546
 6706W        W22840  10.356  14.655  10.478 -0.1316  0.0810 -0.0195
 6707W        W22841   4.930  11.651  13.578  0.0835  0.0290 -0.0857
 6708W        W22842   0.542   0.394  12.984 -0.3716 -0.2125 -0.0364
 6709W        W22843   2.832  14.457   1.593  0.0807  0.1272 -0.1570
 6710W        W22844  10.955   7.961  11.384  0.0715 -0.1493  0.0242
 6711W        W22845  17.459  17.565   2.845  0.1422 -0.0664 -0.0895
 6712W        W22846  13.967  11.412   3.783 -0.2553 -0.0735  0.0823
 6713W        W22847  12.903  12.277   0.215  0.0233 -0.2353  0.3258
 6714W        W22848   3.019  16.612  14.570  0.0842 -0.0324  0.0051
 6715W        W22849   0.073   5.185  15.799 -0.3293 -0.0010  0.0263
 6716W        W22850   0.540   2.107  11.670 -0.0097  0.2526  0.1587
 6717W        W22851   2.917  13.440   5.157  0.1528 -0.3122 -0.1831
 6718W        W22852   9.937   1.573  14.387  0.1687  0.1121  0.1180
 6719W        W22853  16.278  16.486  14.808 -0.0543  0.0517 -0.1380
 6720W        W22854   4.509  17.636  13.269 -0.0421  0.0646 -0.1150
 6721W        W22855   4.812   0.518  13.000 -0.1592  0.1122 -0.0447
 6722W        W22856  14.616  10.707  12.176 -0.1012  0.0704 -0.1415
 6723W        W22857   0.987   3.997   3.683 -0.0936 -0.1203 -0.1325
 6724W        W22858   2.833  15.772   3.812 -0.0237 -0.1444  0.3605
 6725W        W22859   1.438   4.880   3.776 -0.0310 -0.2554  0.4524
 6726W        W22860   9.127   1.666   2.931  0.0707 -0.0606  0.1403
 6727W        W22861  13.344  11.778  14.830 -0.0992 -0.0838  0.0506
 6728W        W22862   6.137   4.997   5.258 -0.2789  0.3592 -0.1151
 6729W        W22863   1.379   0.961   5.086  0.5702  0.0023  0.0462
 6730W        W22864   9.727   4.781  12.930 -0.0535 -0.0731 -0.3453
 6731W        W22865   1.997   2.587   3.905 -0.1115 -0.0764 -0.2037
 6732W        W22866   6.480  18.274  14.382  0.0545  0.0593  0.0756
 6733W        W22867  17.743   2.519   3.464 -0.0556 -0.1325  0.1074
 6734W        W22868  16.461   7.842  11.825  0.0183  0.0434  0.1234
 6735W        W22869  15.994  16.411  15.814  0.0447 -0.0084  0.0136
 6736W        W22870   9.351   4.484  12.027  0.0569  0.3308  0.1599
 6737W        W22871   8.408   2.910  14.202  0.3878 -0.1056 -0.0048
 6738W        W22872   6.305  11.906  14.896 -0.0343  0.2452  0.1826
 6739W        W22873   9.924  13.393   5.496  0.0583 -0.0719  0.2460
 6740W        W22874   6.648  17.622  15.659  0.5306  0.1345  0.1285
 6741W        W22875   7.085  13.779   2.125 -0.0400  0.0955 -0.0710
 6742W        W22876   5.484   0.167   4.695 -0.3850  0.2698  0.0898
 6743W        W22877   9.631   2.244  14.512  0.1558  0.1887 -0.1201
 6744W        W22878   0.256  10.745   1.468 -0.1317 -0.0456 -0.1214
 6745W        W22879   9.208  12.388   2.028  0.1541  0.3516  0.1536
 6746W        W22880  14.023   3.218  15.054 -0.0881  0.1721  0.0909
 6747W        W22881  13.689  17.270  13.369  0.2517  0.0237 -0.2121
 6748W        W22882  13.215  16.019   2.537  0.0397 -0.0700 -0.0552
 6749W        W22883   2.613  16.525   4.968 -0.1561 -0.0659  0.3423
 6750W        W22884   6.380   8.788  14.917  0.1759  0.0318 -0.1173
 6751W        W22885   8.626   6.316  13.922  0.0737 -0.1608 -0.0851
 6752W        W22886  13.993   1.800   0.805  0.1213 -0.4127 -0.3740
 6753W        W22887  15.517   9.253  14.751  0.2243  0.0956 -0.2802
 6754W        W22888  14.545   1.092  14.638 -0.1975 -0.3710 -0.1465
 6755W        W22889  10.263  14.435  10.974 -0.1083  0.0829 -0.0379
 6756W        W22890   1.742   8.877   2.831  0.0999 -0.2993 -0.0946
 6757W        W22891   7.137   8.934   3.821  0.0158 -0.0804 -0.0155
 6758W        W22892  16.322  14.043  14.918  0.2714 -0.1795 -0.0895
 6759W        W22893   9.544  11.930   1.900 -0.0662  0.0678  0.0754
 6760W        W22894  10.839  18.030  14.364 -0.3686  0.1936  0.1665
 6761W        W22895  16.798   5.352  15.354 -0.0203 -0.0856  0.1270
 6762W        W22896   5.459   4.771  12.421 -0.2442 -0.2914  0.5385
 6763W        W22897  18.277   6.650   1.592 -0.0421  0.1877 -0.0226
 6764W        W22898  13.554  11.726   3.736 -0.1255  0.0214 -0.0783
 6765W        W22899  17.649   0.353   0.444 -0.1239 -0.0843  0.0125
 6766W        W22900   3.421  12.788  10.501  0.0489 -0.3444  0.0579
 6767W        W22901  12.245  13.736   4.085  0.0938  0.1243  0.2309
 6768W        W22902   0.641  16.006  11.321 -0.1617  0.0566 -0.0163
 6769W        W22903   2.472  12.986   2.278  0.0286  0.1434  0.0323
 6770W        W22904  15.147   3.222  11.246  0.2275  0.0180  0.2423
 6771W        W22905  13.082   9.512  10.174  0.1497 -0.1061  0.1203
 6772W        W22906   9.298   4.075  12.423  0.0562 -0.1098 -0.2164
 6773W        W22907   7.001  14.779  10.824 -0.0400  0.0932 -0.1512
 6774W        W22908   8.979  18.376   0.964  0.0158 -0.2696  0.0840
 6775W        W22909   8.844  17.520  10.831 -0.1866 -0.2653 -0.1113
 6776W        W22910  11.161  10.747  15.266  0.0527  0.0451  0.2280
 6777W        W22911  10.103   7.366  11.739 -0.0310  0.0316  0.0136
 6778W        W22912   8.009   7.844  15.480  0.2522  0.1321  0.2478
 6779W        W22913   3.958   9.890   2.392  0.2648  0.0214 -0.0726
 6780W        W22914  16.372   2.403  11.390  0.1280  0.2559 -0.1162
 6781W        W22915  15.363   3.366   1.330 -0.2545  0.0568  0.0655
 6782W        W22916  13.402   2.050   1.519  0.0696  0.0366  0.0950
 6783W        W22917  18.410  11.082   5.300 -0.1425 -0.2974 -0.0394
 6784W        W22918  16.817   0.991  15.676  0.2144  0.0650  0.3381
 6785W        W22919   3.759   6.378   3.489  0.1418 -0.2382  0.1281
 6786W        W22920   3.458   6.262   5.780  0.1992  0.0777  0.0610
 6787W        W22921   7.847   7.928  13.579 -0.2904 -0.1383 -0.0475
 6788W        W22922  14.053  11.756  14.350  0.2755  0.2424  0.1906
 6789W        W22923   2.522  13.065   1.234  0.0350 -0.1351  0.2424
 6790W        W22924   6.700   8.529  12.903 -0.1346 -0.0915  0.1288
 6791W        W22925   3.514   8.584  11.238 -0.1413  0.3476  0.1169
 6792W        W22926   3.749  14.008  14.223 -0.4620 -0.2158 -0.1731
 6793W        W22927   3.792  12.889   3.668  0.1381 -0.0126  0.2418
 6794W        W22928   8.835  14.405   5.379  0.0104 -0.0610 -0.0660
 6795W        W22929  17.348  16.979   4.844  0.0537  0.0493  0.3442
 6796W        W22930  18.217   6.623  12.183  0.1629 -0.0444  0.0417
 6797W        W22931   7.891   9.401   0.348 -0.0828  0.1655 -0.0808
 6798W        W22932   5.113   6.690  14.218 -0.2064 -0.0988 -0.0032
 6799W        W22933  18.329  10.171   3.422 -0.1544 -0.0770 -0.4826
 6800W        W22934   3.407  16.369  11.904  0.0574 -0.0275 -0.0411
 6801W        W22935   3.105   8.160  13.279  0.0031  0.3530  0.3743
 6802W        W22936   6.740  17.956  15.302 -0.1083 -0.1619  0.1206
 6803W        W22937  16.948   2.771  11.093  0.2401 -0.0364 -0.0258
 6804W        W22938   3.657   1.975   2.298 -0.0236  0.0961 -0.3160
 6805W        W22939   2.634   0.673  11.279  0.2048  0.0653  0.0323
 6806W        W22940  17.114   7.417   2.963  0.4521  0.0402  0.1012
 6807W        W22941   7.063   5.567   5.194 -0.2016 -0.1843  0.0725
 6808W        W22942   8.395  15.812  15.213 -0.1113 -0.1626  0.0134
 6809W        W22943   4.062  14.465   2.643  0.2355 -0.0615  0.2707
 6810W        W22944  12.336   5.779  13.729 -0.1300  0.0228 -0.0258
 6811W        W22945   9.883  18.330  14.142 -0.1960 -0.1434 -0.0520
 6812W        W22946   0.957   6.966  15.512  0.0582  0.2484  0.0140
 6813W        W22947   0.791  11.222   0.721 -0.1492 -0.0316 -0.1558
 6814W        W22948  10.212  15.856  12.863  0.0314 -0.2012  0.1494
 6815W        W22949   9.991  10.195  12.709  0.0951 -0.1497 -0.2281
 6816W        W22950  13.744   4.945  12.796 -0.2398  0.0543 -0.2116
 6817W        W22951  11.532  17.311   3.234  0.1329  0.1763 -0.2613
 6818W        W22952   0.469   3.054  11.463 -0.1184  0.0653 -0.1523
 6819W        W22953   9.369  12.341   4.734  0.3823 -0.1127 -0.1568
 6820W        W22954   9.159   7.829   2.464 -0.2049 -0.1755  0.0248
 6821W        W22955  16.263   6.489   1.058  0.2312 -0.1135 -0.1841
 6822W        W22956  16.914   1.778   4.101 -0.1449 -0.1681 -0.2258
 6823W        W22957   4.340  15.447  12.944  0.2181 -0.2967  0.3256
 6824W        W22958   9.442  13.089  12.416  0.1214 -0.0093 -0.0835
 6825W        W22959   6.732   9.135  15.771  0.2034 -0.1102 -0.0447
 6826W        W22960   2.970  10.828  12.748 -0.0446 -0.0631 -0.0921
 6827W        W22961   8.234  12.548  13.519  0.1347 -0.1083 -0.0120
 6828W        W22962   0.734   5.906  11.861  0.1680  0.0160 -0.4017
 6829W        W22963   8.859  10.887  12.004  0.0837  0.0216  0.0522
 6830W        W22964   8.710   2.521   2.413 -0.1440 -0.0659 -0.3508
 6831W        W22965   8.596   8.715  15.593 -0.1518 -0.2130  0.0599
 6832W        W22966   0.517   9.058   0.802 -0.1279 -0.0614  0.1380
 6833W        W22967  17.823   5.453   0.070 -0.0236 -0.3567  0.1588
 6834W        W22968  14.387  16.121   3.760  0.4102  0.3187 -0.3790
 6835W        W22969   1.172   1.840   3.831 -0.0351 -0.3063  0.0514
 6836W        W22970   9.450   6.753   2.718 -0.3215 -0.0597 -0.2108
 6837W        W22971  16.305   7.335   1.880 -0.3053  0.1420 -0.1025
 6838W        W22972   6.486   7.566   3.666  0.1494  0.2502 -0.2454
 6839W        W22973  10.704   9.027   1.409  0.1346  0.1897  0.2676
 6840W        W22974   8.338   4.813   2.005 -0.0038  0.2919 -0.2709
 6841W        W22975  14.918   3.398   3.438 -0.0717 -0.2444 -0.1803
 6842W        W22976  13.207   8.230   4.495  0.2967 -0.1974 -0.1659
 6843W        W22977  13.469   4.843  15.463 -0.2170  0.1753 -0.1863
 6844W        W22978   7.057  11.881  14.020  0.1850  0.1491  0.1114
 6845W        W22979  12.251   0.922  10.743 -0.0774  0.2406  0.4265
 6846W        W22980   5.929  15.434  15.653 -0.0310 -0.0396  0.0779
 6847W        W22981  16.093  12.063   2.700 -0.1123 -0.0401 -0.1592
 6848W        W22982  14.193  16.093  15.495  0.1621  0.0029 -0.1650
 6849W        W22983   9.677   6.442  13.909  0.0004  0.1414  0.1019
 6850W        W22984   7.340  13.197   1.013  0.0559 -0.3442 -0.3416
 6851W        W22985  16.724  17.641   4.595  0.4010 -0.0559  0.1061
 6852W        W22986   5.455   7.060   1.064  0.2044 -0.0280  0.2232
 6853W        W22987   7.795  15.489   2.769 -0.2272  0.2002  0.2810
 6854W        W22988   1.038   5.771   1.977 -0.1195  0.2464 -0.0133
 6855W        W22989   3.805  15.916   2.852  0.1343  0.1106  0.3113
 6856W        W22990  15.908   5.386   1.249 -0.0911  0.0640  0.1925
 6857W        W22991  12.860   9.977   5.046 -0.1854  0.3434  0.1183
 6858W        W22992   2.664   2.683  13.320  0.2902  0.0247  0.2121
 6859W        W22993   1.492  14.108  14.482  0.0926 -0.1646 -0.0059
 6860W        W22994  10.295   7.949   4.894 -0.0645 -0.0276  0.2709
 6861W        W22995  11.702   4.852   4.208 -0.0636  0.0845  0.2303
 6862W        W22996   2.399   2.980   3.093 -0.0086  0.0476  0.0790
 6863W        W22997   4.677  17.352  15.363  0.1132 -0.1348 -0.1593
 6864W        W22998   1.545   1.161   1.408 -0.1768  0.0983 -0.1046
 6865W        W22999  10.113   3.878   0.724 -0.1307 -0.0298  0.1702
 6866W        W23000  13.641   6.089  12.718 -0.0327  0.3559 -0.0281
 6867W        W23001   0.904   6.913   2.429  0.1937 -0.2752 -0.1235
 6868W        W23002  13.338  18.280   4.618 -0.0683  0.0241  0.0627
 6869W        W23003   9.068   1.075  12.526  0.1092 -0.3245 -0.3400
 6870W        W23004   2.869  13.834   3.708 -0.1891  0.0464  0.0479
 6871W        W23005   3.280   2.123  14.703  0.1574  0.1105 -0.1366
 6872W        W23006  12.824   7.893  14.215 -0.1243 -0.1636 -0.0529
 6873W        W23007  16.628  13.676   4.475  0.0526  0.1923  0.3125
 6874W        W23008   7.498  13.416  13.371 -0.0237 -0.1052 -0.3592
 6875W        W23009  17.566   7.963   2.993 -0.1500 -0.5043  0.0001
 6876W        W23010   1.827   7.687  14.768 -0.0665  0.0507  0.2601
 6877W        W23011  11.369   2.635  13.140 -0.1160  0.1843  0.3233
 6878W        W23012  10.163   4.021  12.077 -0.0884 -0.0745  0.3515
 6879W        W23013   4.946  14.527   5.037 -0.0018 -0.0946 -0.0980
 6880W        W23014  16.384   7.134   5.588  0.0630 -0.1089 -0.2864
 6881W        W23015   5.182   0.592   0.873  0.0742 -0.1083 -0.0783
 6882W        W23016   7.171   0.769  15.885  0.2391  0.0002  0.2122
 6883W        W23017  17.135  16.511  12.682 -0.0608  0.1051 -0.0764
 6884W        W23018   6.703  16.622  15.861  0.2009 -0.1433 -0.1635
 6885W        W23019   9.542   4.035  10.204 -0.0118 -0.1120  0.0543
 6886W        W23020  15.867  18.149   2.228  0.0264 -0.0402  0.1619
 6887W        W23021  11.485   6.557   3.767 -0.1650 -0.1217 -0.1609
 6888W        W23022  14.094   8.008   1.059 -0.0138  0.3953 -0.0983
 6889W        W23023  11.901  16.233  13.087  0.0988 -0.0586  0.1115
 6890W        W23024  13.038  13.449   3.378 -0.0389 -0.1984 -0.0460
 6891W        W23025   6.681   9.747   1.602 -0.0705  0.1747  0.2539
 6892W        W23026   7.825   3.716   1.099 -0.1736  0.1127  0.1362
 6893W        W23027   1.548  11.561   1.325 -0.2836 -0.0225 -0.0359
 6894W        W23028  11.344   2.709   3.124  0.0618  0.0913  0.0895
 6895W        W23029   3.103  11.081   5.075 -0.2248  0.2169  0.0754
 6896W        W23030   6.036   8.277   5.202  0.0592 -0.1957 -0.0158
 6897W        W23031  12.789   3.152  14.617 -0.0471  0.1535  0.0677
 6898W        W23032   7.311  17.691   1.516  0.1052 -0.0928 -0.3192
 6899W        W23033  10.230   6.568  13.115 -0.0501  0.3685 -0.0682
 6900W        W23034   0.283   4.784  11.659  0.1387  0.1050  0.0212
 6901W        W23035  14.747   7.889  14.550  0.1913 -0.5080  0.1623
 6902W        W23036  14.072   0.122   2.525 -0.1060 -0.1384 -0.0017
 6903W        W23037  18.002   5.958  11.577 -0.2033 -0.1873 -0.0168
 6904W        W23038   3.244   2.454  15.807  0.1189  0.3020  0.1810
 6905W        W23039   5.892   4.104   4.728 -0.2006  0.0514 -0.2231
 6906W        W23040   1.730   2.112   0.270  0.0872  0.1457 -0.0135
 6907W        W23041  15.913   1.228   2.703 -0.1043 -0.0492  0.1247
 6908W        W23042  12.217   4.188   5.427  0.1201  0.2400  0.1232
 6909W        W23043  17.618   7.798  12.601  0.1339 -0.2142 -0.0625
 6910W        W23044   5.658   3.436  15.381  0.0291 -0.0874  0.0894
 6911W        W23045   3.510   8.316  11.753  0.0694  0.1442  0.1657
 6912W        W23046  15.353   7.648  13.263  0.4859 -0.2077  0.1538
 6913W        W23047  11.075   9.323   4.541 -0.0088 -0.4247 -0.1864
 6914W        W23048   1.845   4.744  15.876  0.1297 -0.2318  0.2087
 6915W        W23049  10.661  15.895   2.503  0.2457  0.2148 -0.1627
 6916W        W23050   9.382  15.144  11.193  0.0408  0.1775 -0.0096
 6917W        W23051   4.669  14.731   0.156 -0.1506  0.0637  0.3041
 6918W        W23052  17.871   3.176   1.787 -0.1376  0.3064  0.0218
 6919W        W23053   8.100   9.669   1.985  0.1424 -0.1260  0.0861
 6920W        W23054  10.970  15.798  12.950 -0.0864  0.0070  0.1197
 6921W        W23055  13.618  11.201  13.250 -0.0370  0.0010 -0.2737
 6922W        W23056   8.657   6.425  11.155  0.2996  0.1943 -0.1594
 6923W        W23057  16.622   9.240   2.070 -0.3155 -0.0772  0.1454
 6924W        W23058   7.252  16.200  14.887  0.1905 -0.0193  0.0120
 6925W        W23059  14.974   7.220  14.985 -0.1296 -0.0383 -0.3680
 6926W        W23060   7.747  15.197  11.579 -0.2650  0.2341  0.3273
 6927W        W23061  18.271  13.852  12.151 -0.3081 -0.2606 -0.2672
 6928W        W23062   4.769   1.947  15.813  0.1940 -0.1434 -0.0345
 6929W        W23063  16.833  15.888   0.129 -0.0142 -0.1203 -0.0417
 6930W        W23064   1.772   5.575   0.074 -0.2616 -0.0708  0.1366
 6931W        W23065  11.653   2.324   1.803  0.0895  0.1981  0.1006
 6932W        W23066   0.733  11.265  11.759  0.0176 -0.2006 -0.2075
 6933W        W23067   2.312   6.875   0.239 -0.1291 -0.2456 -0.1166
 6934W        W23068  16.311  17.232   1.233  0.1575 -0.0848  0.2288
 6935W        W23069   2.959   8.227   5.050  0.0805  0.0646 -0.0273
 6936W        W23070   5.782  11.913   5.134  0.0714 -0.0506  0.4968
 6937W        W23071   4.144   7.020   2.263 -0.0785  0.2709 -0.2861
 6938W        W23072   1.128   9.755  11.169 -0.0902 -0.2453 -0.2018
 6939W        W23073   0.684   4.742   1.147 -0.1773 -0.1301 -0.2823
 6940W        W23074  17.746  16.120   4.222  0.2253 -0.0972 -0.2077
 6941W        W23075  13.612  18.376   3.798 -0.1063 -0.0184  0.3206
 6942W        W23076  16.763   7.793  13.417  0.1019 -0.1978  0.1354
 6943W        W23077  18.180   9.599   2.727  0.0353  0.0465  0.1729
 6944W        W23078   2.636   2.063   0.695 -0.5685  0.0414  0.1580
 6945W        W23079   9.347  12.727   4.455  0.0303 -0.0192 -0.0805
 6946W        W23080   4.266   1.975   2.015  0.0169 -0.2487 -0.2173
 6947W        W23081   7.545   1.853   1.236  0.1915  0.0576 -0.0985
 6948W        W23082  16.336  16.224  15.214 -0.0999  0.1754  0.1205
 6949W        W23083  17.699   4.457   4.080 -0.1473 -0.0724 -0.1483
 6950W        W23084  13.944   4.791  15.031 -0.1022 -0.1236  0.0863
 6951W        W23085   1.554  14.454  14.839 -0.0599  0.0268 -0.1391
 6952W        W23086   9.740   7.761  14.165 -0.1599  0.0785 -0.1621
 6953W        W23087   4.509  17.321  10.710 -0.0119  0.3340 -0.0353
 6954W        W23088  15.127   1.546   1.245  0.0992 -0.2331  0.0467
 6955W        W23089  18.016  14.044   1.155 -0.1607  0.2425 -0.0606
 6956W        W23090   6.319   4.623   3.460  0.0612 -0.1594  0.0877
 6957W        W23091   2.871  12.020   0.849  0.1889  0.0493 -0.0019
 6958W        W23092  13.797   3.357  15.460 -0.1521 -0.0117 -0.2345
 6959W        W23093  17.503   7.051  10.262 -0.0158  0.0960  0.3777
 6960W        W23094   1.783  16.804  15.592 -0.3000 -0.0703  0.0745
 6961W        W23095   2.836   4.072   3.020 -0.1033 -0.1791 -0.2318
 6962W        W23096   2.082  15.298  14.974  0.2040  0.2198 -0.0421
 6963W        W23097   1.324  11.478   4.316 -0.2000 -0.2460  0.1174
 6964W        W23098  17.465   0.845   0.322  0.0147 -0.1004  0.3989
 6965W        W23099  16.132  11.779   4.513  0.1953  0.2236 -0.0190
 6966W        W23100   0.727  12.905  11.690 -0.0568  0.3658 -0.1956
 6967W        W23101  17.828  14.388  12.463  0.0700  0.1650  0.0897
 6968W        W23102   2.681  14.316   3.923  0.1069 -0.0047 -0.0505
 6969W        W23103  12.707   1.449  14.441  0.1052  0.0233  0.0695
 6970W        W23104   2.093  16.894  13.564 -0.0994  0.3119 -0.0909
 6971W        W23105  16.926  14.867  14.804  0.0609 -0.1095 -0.2463
 6972W        W23106   9.148   2.807   4.146 -0.1120 -0.1285 -0.0349
 6973W        W23107   2.832  14.198  11.252 -0.0523  0.1631 -0.0310
 6974W        W23108  10.255   2.347  13.254  0.3273  0.1181 -0.1791
 6975W        W23109  16.083  10.178  11.022  0.0251  0.0602 -0.0086
 6976W        W23110   1.677   2.648  11.991 -0.0078 -0.4756 -0.0426
 6977W        W23111   4.998  12.552   0.920  0.3687  0.1841  0.4315
 6978W        W23112   1.225   0.137   1.883  0.2636 -0.1319  0.4602
 6979W        W23113  17.099  17.117   3.472 -0.1412  0.2640 -0.3555
 6980W        W23114  10.337  15.562   2.167  0.2313 -0.0126  0.1649
 6981W        W23115  13.722   9.979   3.463 -0.0461  0.0055 -0.1203
 6982W        W23116  14.718  15.865   0.242 -0.0663 -0.1538  0.2672
 6983W        W23117   1.477   7.799   1.603 -0.0100  0.3499  0.0116
 6984W        W23118  17.007   5.951  14.141  0.2397 -0.1143  0.1664
 6985W        W23119  12.294  16.195  10.232  0.0111 -0.0549 -0.0244
 6986W        W23120   1.594  15.082   0.728  0.2676 -0.1939  0.1139
 6987W        W23121  16.468  14.235   4.066  0.2424 -0.0987  0.1001
 6988W        W23122   7.113   7.687   0.074 -0.0788 -0.0719  0.0974
 6989W        W23123   1.065  17.220  11.160 -0.1646  0.0171  0.0377
 6990W        W23124   7.680   7.788   0.846 -0.0066  0.0123 -0.1834
 6991W        W23125   4.924  13.342   5.258  0.1263 -0.0796  0.1284
 6992W        W23126   5.820   9.830  10.282  0.0093  0.1517 -0.3210
 6993W        W23127   1.846   4.020  14.848 -0.0260 -0.1966 -0.2125
 6994W        W23128   3.827   7.578  13.030 -0.0918 -0.1644 -0.3230
 6995W        W23129  12.753  11.026   2.974  0.1533  0.1501  0.0641
 6996W        W23130  14.376  18.469   3.796  0.0799  0.1880 -0.3607
 6997W        W23131   6.776   6.434  13.682 -0.3328 -0.0624  0.1501
 6998W        W23132   8.828  13.768  14.160  0.1536 -0.3108  0.1242
 6999W        W23133  11.948   0.422  14.718  0.1224 -0.0777  0.0200
 7000W        W23134   6.528   7.824  13.052  0.2226  0.0742  0.0077
 7001W        W23135  11.998  12.776  12.628 -0.2217  0.0377 -0.1830
 7002W        W23136  17.862   8.002   0.749  0.0635 -0.2704  0.1112
 7003W        W23137   3.698   8.141   2.991 -0.2778  0.0006 -0.1590
 7004W        W23138  16.099   8.094  14.562  0.0876  0.0007  0.0725
 7005W        W23139   7.791   4.873  10.779 -0.2287  0.0335  0.2464
 7006W        W23140   0.273  12.933   5.786 -0.1586  0.1680 -0.1556
 7007W        W23141  11.718  10.648   4.668  0.1070  0.1719  0.0396
 7008W        W23142   1.328   3.037   3.970  0.1198  0.2095  0.0282
 7009W        W23143   3.372   8.617   0.629  0.2567 -0.5595  0.0488
 7010W        W23144  11.495  10.687   5.090 -0.0838  0.0452  0.0862
 7011W        W23145   5.271   0.442   2.927 -0.0092  0.0831  0.2657
 7012W        W23146   4.201   7.206  12.030  0.0788  0.1671  0.2100
 7013W        W23147   5.735  13.205  13.496  0.0843 -0.3065 -0.1141
 7014W        W23148   2.864   0.774  10.787 -0.1716 -0.0338 -0.0829
 7015W        W23149  11.802  16.233   3.507 -0.2594  0.3595  0.0296
 7016W        W23150   2.632   8.273  13.157  0.0920 -0.0078 -0.1937
 7017W        W23151   6.451   9.144  15.324  0.0824 -0.1774 -0.0698
 7018W        W23152   0.492  14.315   0.323  0.3038 -0.1394 -0.0308
 7019W        W23153   1.950   0.094  10.903  0.0142 -0.2361 -0.1542
 7020W        W23154  10.752   8.715   0.967 -0.0839 -0.2185  0.2668
 7021W        W23155  11.418   5.435  13.240 -0.5210 -0.1205  0.2606
 7022W        W23156   1.990   2.624   4.951  0.0769 -0.3008  0.0363
 7023W        W23157  12.555   9.451   3.128 -0.0571 -0.0472  0.2156
 7024W        W23158   7.928  17.292   5.585 -0.1520  0.1356 -0.0743
 7025W        W23159   3.107   1.393  12.948 -0.0790 -0.0726  0.0779
 7026W        W23160  12.147   0.372   5.734  0.1295 -0.4073 -0.1552
 7027W        W23161  13.514  14.297   2.970  0.0753  0.2247 -0.0972
 7028W        W23162  16.720  17.738  13.438  0.2638 -0.0779 -0.1436
 7029W        W23163   6.118  14.814  12.352 -0.3320  0.0312  0.0885
 7030W        W23164  12.217   6.799   1.335  0.2800 -0.0811 -0.1542
 7031W        W23165  12.052   8.911  14.422  0.1181 -0.0067  0.1845
 7032W        W23166   7.927   9.549  14.950 -0.2332  0.1270 -0.0503
 7033W        W23167   4.056   2.383   2.208  0.0902  0.0013  0.0150
 7034W        W23168  13.951  14.611   4.338  0.1292 -0.0007 -0.0465
 7035W        W23169   1.134  18.072   1.671  0.1851 -0.2124 -0.0868
 7036W        W23170   0.368   2.376   1.158  0.1439 -0.0602  0.2838
 7037W        W23171  16.048   2.306  14.353 -0.4495 -0.0378 -0.1348
 7038W        W23172  13.104  15.238  15.071  0.2886 -0.1685 -0.2144
 7039W        W23173  14.103   0.312   0.024  0.0354  0.1143  0.0682
 7040W        W23174   9.553   7.849  13.706  0.4634 -0.1111 -0.1789
 7041W        W23175   9.667   6.531  12.133 -0.3153  0.1502  0.4928
 7042W        W23176  12.097   9.958  13.376  0.0293  0.0102 -0.2165
 7043W        W23177  14.129   8.155  14.587 -0.2036  0.2305  0.0563
 7044W        W23178  15.865   3.945  14.004 -0.0411  0.2495 -0.1056
 7045W        W23179   8.175   6.646  11.097 -0.1445 -0.0854 -0.2309
 7046W        W23180   2.385   5.785  12.356  0.0843 -0.2751 -0.0455
 7047W        W23181   8.627   6.955   1.994 -0.0400  0.1235  0.0298
 7048W        W23182  12.269  15.907  12.579  0.1009 -0.0234 -0.4564
 7049W        W23183  10.317   0.489   2.981 -0.2145 -0.3076 -0.0307
 7050W        W23184  12.060  10.813   3.754 -0.2758  0.0704  0.1262
 7051W        W23185   4.454   9.940   1.499  0.0867  0.1592  0.2914
 7052W        W23186   2.157   2.832   0.842 -0.0292  0.0061 -0.0880
 7053W        W23187  18.153   1.387  12.763 -0.0271 -0.0750 -0.0450
 7054W        W23188   8.166   4.814   4.818 -0.1293  0.0679  0.2213
 7055W        W23189  11.993   8.696   1.055 -0.0944 -0.1546  0.0601
 7056W        W23190   8.974   8.790   2.505 -0.0367  0.0224  0.0216
 7057W        W23191  14.170   5.772  13.243  0.2768  0.0742  0.0882
 7058W        W23192   3.938   3.711   0.048 -0.0492  0.1220 -0.2634
 7059W        W23193   4.670  10.736  13.758  0.0797  0.0940 -0.1540
 7060W        W23194  16.258   8.500   0.498 -0.0111  0.1114 -0.0318
 7061W        W23195   2.117   2.468  11.722 -0.2616 -0.2722 -0.2174
 7062W        W23196   9.817   4.387  13.212 -0.0848 -0.1811 -0.3848
 7063W        W23197   9.632  16.643   3.255 -0.0877 -0.3308  0.2722
 7064W        W23198  10.302   2.386   2.201  0.1793  0.0389 -0.0346
 7065W        W23199   0.967  15.492   2.500  0.5751  0.2082 -0.2260
 7066W        W23200  12.950   7.342   2.249  0.2002 -0.0264  0.0771
 7067W        W23201   3.927   7.821   2.326 -0.0750  0.2362 -0.1883
 7068W        W23202  11.700   3.968   3.031  0.2579 -0.0059  0.1390
 7069W        W23203  10.560  17.734   2.362  0.0803 -0.2563 -0.1673
 7070W        W23204   7.925  10.040   3.359 -0.0044  0.0714  0.0993
 7071W        W23205  16.615   7.588   3.854  0.0043  0.2730 -0.1245
 7072W        W23206   0.255   8.606  15.737  0.5819 -0.2206  0.0020
 7073W        W23207  12.576   4.662   4.751 -0.1423  0.2636  0.2870
 7074W        W23208  16.818  11.178  14.165 -0.2677  0.0535  0.0420
 7075W        W23209  14.163  17.715  15.857  0.1183  0.1687 -0.1178
 7076W        W23210  15.350  10.638  10.407 -0.1471  0.1784 -0.1457
 7077W        W23211   1.093  10.992  11.543 -0.2274  0.0454  0.2065
 7078W        W23212   9.114   2.341  15.543  0.1232 -0.0567 -0.2170
 7079W        W23213   1.020  15.185  10.140  0.0633  0.1701 -0.2099
 7080W        W23214   5.818   6.498   2.289 -0.0109  0.0364 -0.4069
 7081W        W23215  17.626  12.551   0.302 -0.1820  0.2070  0.1467
 7082W        W23216  17.699   9.347  12.883 -0.0095 -0.2219  0.0137
 7083W        W23217  14.771   7.275   0.966  0.0622  0.1245  0.0362
 7084W        W23218   8.592  14.709   4.936 -0.0240 -0.0194  0.1024
 7085W        W23219   8.615   6.600   0.956  0.0146 -0.0221  0.3313
 7086W        W23220   6.783  17.030  13.726  0.0021 -0.1987  0.0038
 7087W        W23221  12.396  16.061  11.721  0.5751  0.2485 -0.0387
 7088W        W23222  12.944   6.355  11.331  0.0639 -0.1201 -0.0007
 7089W        W23223  17.935   2.712   4.328  0.0007  0.0834 -0.4385
 7090W        W23224  15.259   2.276   1.378  0.2310 -0.1012 -0.1928
 7091W        W23225   5.885   0.844  13.789  0.2662 -0.1817 -0.0014
 7092W        W23226  11.080   3.392   2.494 -0.0422  0.2851 -0.1022
 7093W        W23227   6.930   9.428   0.229  0.1927 -0.0956  0.4836
 7094W        W23228  14.740   9.499  15.345  0.2418 -0.0235 -0.0301
 7095W        W23229  14.837  13.987   0.352  0.2835 -0.2543 -0.0746
 7096W        W23230   1.211   7.961   4.118 -0.1163 -0.0317 -0.0113
 7097W        W23231   7.443  12.989   3.926  0.1418  0.1809 -0.1499
 7098W        W23232  12.388   2.962   1.902 -0.0785 -0.0841 -0.2826
 7099W        W23233   3.873  10.559  11.773 -0.0121  0.0150 -0.0660
 7100W        W23234  10.704   1.153   0.623 -0.1464  0.0559 -0.1115
 7101W        W23235   8.934   3.524   1.326  0.0622 -0.1955 -0.0033
 7102W        W23236   9.666  14.731  15.621  0.1249 -0.3272  0.0427
 7103W        W23237  15.078  17.676  13.850 -0.1827 -0.0712  0.0461
 7104W        W23238   6.197  13.915   5.118  0.1049  0.2121  0.2256
 7105W        W23239   1.147  17.567  13.257 -0.1976  0.2309  0.1863
 7106W        W23240   0.880   6.223   5.475  0.2319 -0.3599 -0.1890
 7107W        W23241   7.895  17.322  14.085  0.1299  0.0979 -0.2495
 7108W        W23242  12.057   3.326  11.084 -0.1525  0.4313  0.1510
 7109W        W23243  11.690   9.830  11.931 -0.1911  0.0327 -0.1921
 7110W        W23244  11.215   2.813  15.891  0.2394  0.0762 -0.1705
 7111W        W23245   2.123   3.812   1.861  0.1299  0.1597 -0.1270
 7112W        W23246  14.866   0.451  11.318  0.2754 -0.1151 -0.0328
 7113W        W23247   7.315  16.564  11.578 -0.1844 -0.0433 -0.0334
 7114W        W23248   9.470   2.862   4.977  0.2019 -0.0210 -0.0606
 7115W        W23249   9.476   7.671  15.423  0.3426 -0.0718 -0.1040
 7116W        W23250  14.904  10.799   1.764 -0.4223 -0.1556  0.0610
 7117W        W23251  15.425  16.665   3.680  0.1886  0.2917 -0.0187
 7118W        W23252   8.419  14.594  12.609 -0.1463 -0.0432 -0.1525
 7119W        W23253   4.601  15.269   5.977 -0.0404  0.0416  0.0107
 7120W        W23254   5.602   7.333  12.009 -0.2392  0.0588  0.0806
 7121W        W23255   8.302  14.132  14.722  0.2608 -0.0673 -0.0877
 7122W        W23256  11.903  14.064   4.329  0.4966  0.0224  0.2139
 7123W        W23257  14.666   1.529  11.756  0.1258 -0.5211 -0.1328
 7124W        W23258   3.218  18.383  13.818 -0.1788 -0.1429 -0.5080
 7125W        W23259  11.066  11.771   1.871 -0.0954  0.0856 -0.0090
 7126W        W23260  12.503   0.656  13.752 -0.0462 -0.4406  0.2480
 7127W        W23261   3.580  15.822  14.974  0.0882  0.2845  0.2908
 7128W        W23262  10.180  18.079   1.598  0.2357  0.0714  0.0832
 7129W        W23263  11.526  12.530   0.964 -0.0696 -0.3200  0.0703
 7130W        W23264   4.001  16.320   0.507 -0.1500  0.1405 -0.0881
 7131W        W23265   0.605   9.746   2.482 -0.4518 -0.2477  0.0101
 7132W        W23266  17.720  17.243  13.341 -0.0056  0.0590  0.0592
 7133W        W23267   3.945  13.141  11.243 -0.2974 -0.1571 -0.0448
 7134W        W23268  12.944   8.755  11.733 -0.1681  0.1348 -0.2087
 7135W        W23269   0.428  10.929  10.754  0.1463 -0.1840  0.0402
 7136W        W23270   5.036  13.485   0.153 -0.0485 -0.0490 -0.1511
 7137W        W23271   7.402  15.210   4.138  0.0404 -0.0133 -0.3774
 7138W        W23272   5.637   6.401  11.897 -0.0726  0.1403  0.3086
 7139W        W23273  13.492   2.057  13.092 -0.1349  0.4635 -0.2557
 7140W        W23274   8.999  16.001   4.296 -0.0413  0.0815 -0.2316
 7141W        W23275  15.818   4.840  12.080  0.0628 -0.0090 -0.1163
 7142W        W23276  14.982   3.706  11.137  0.0977  0.2997 -0.1389
 7143W        W23277   2.209   5.147  11.749 -0.2704 -0.0007 -0.2447
 7144W        W23278  11.042  17.807   3.302  0.2903 -0.0111  0.1475
 7145W        W23279   9.946   8.747   0.542  0.1595 -0.3590 -0.2163
 7146W        W23280  12.439   1.519   4.985 -0.0350  0.1241  0.0273
 7147W        W23281  16.420  14.059  11.043 -0.0184  0.2481  0.0470
 7148W        W23282  10.094   3.071   3.134  0.0088 -0.0705 -0.0678
 7149W        W23283  17.143  17.242  14.576  0.0838  0.0629 -0.0782
 7150W        W23284   3.336  13.191   2.602  0.1022  0.1483  0.1232
 7151W        W23285   5.832   2.412   1.328 -0.1171 -0.0831 -0.4445
 7152W        W23286   8.602   9.045   2.732 -0.0931 -0.0299 -0.0119
 7153W        W23287  16.909  11.099  12.863 -0.1570 -0.1582  0.1677
 7154W        W23288  10.225  15.157  14.496 -0.0147  0.1954 -0.0699
 7155W        W23289  11.695   1.144  11.396  0.0489 -0.2226 -0.1743
 7156W        W23290  15.572   5.371   0.217 -0.3959 -0.3541  0.1034
 7157W        W23291  16.316   2.709   1.766  0.0721 -0.1098  0.2879
 7158W        W23292   7.677  15.533  14.205 -0.0068  0.1875  0.0024
 7159W        W23293  10.745  10.691   2.393  0.1526 -0.4067 -0.1303
 7160W        W23294   8.137   4.713  11.085 -0.0579  0.1433 -0.1600
 7161W        W23295  10.363  12.872   0.114 -0.0382  0.0450  0.0661
 7162W        W23296  13.854   8.583  11.610  0.1575 -0.3303 -0.4056
 7163W        W23297   8.992   9.669   1.229  0.3561  0.2772  0.2243
 7164W        W23298  12.246   0.107  15.281 -0.0051 -0.4012 -0.2900
 7165W        W23299   8.338   2.342  14.424 -0.0831  0.1540  0.1171
 7166W        W23300   3.926   2.239   3.055 -0.0422 -0.1854  0.2826
 7167W        W23301   9.032   5.805   3.709 -0.0204 -0.0492  0.2016
 7168W        W23302   5.265  14.180   1.941  0.0547  0.2037  0.5202
 7169W        W23303   1.668   3.036   5.129 -0.2761  0.1898  0.4919
 7170W        W23304  10.300   0.803   4.151  0.2825  0.0300  0.2945
 7171W        W23305   3.383   2.337  14.244  0.3646  0.0480  0.2412
 7172W        W23306  14.166  10.050   3.640 -0.0264 -0.0889 -0.0527
 7173W        W23307  12.068   3.198   2.709 -0.2432 -0.0037 -0.2419
 7174W        W23308   0.399  12.872  12.469 -0.3718  0.2439  0.0041
 7175W        W23309   2.258   0.252   1.499  0.0889  0.0927  0.1087
 7176W        W23310  12.262   0.260  12.644  0.1385 -0.2864 -0.2515
 7177W        W23311   8.249  10.524   3.297  0.2048 -0.1025 -0.0586
 7178W        W23312  10.870  16.683  15.275  0.0202 -0.0800  0.2495
 7179W        W23313  14.794   2.361   0.108  0.2761  0.1552 -0.0092
 7180W        W23314   7.064   2.168   1.139 -0.2435 -0.0430  0.0044
 7181W        W23315  14.045   4.487   1.200  0.0675  0.1255  0.1042
 7182W        W23316  14.807   2.847  11.482  0.0535  0.4527  0.0418
 7183W        W23317   3.724   0.437  12.789  0.1028 -0.2025  0.1058
 7184W        W23318   7.918  11.412  13.550 -0.0877 -0.0868 -0.0590
 7185W        W23319  13.209   3.420   4.200  0.2001  0.2120 -0.0593
 7186W        W23320  11.262  14.044  14.866  0.1331 -0.0905  0.2611
 7187W        W23321  10.976   0.368  10.502 -0.1009  0.0342 -0.1414
 7188W        W23322  17.093  16.659  11.783  0.0568 -0.1035 -0.3048
 7189W        W23323  15.425   4.450   1.390  0.1694 -0.0214  0.2041
 7190W        W23324   9.238   8.094   0.627  0.2189  0.0697  0.0093
 7191W        W23325  16.418  15.300  13.697 -0.0596 -0.0645  0.0026
 7192W        W23326   7.841   4.270  11.974  0.0260 -0.0989 -0.0844
 7193W        W23327  12.634  16.283   0.104 -0.2024  0.0221  0.2714
 7194W        W23328   3.960   8.228  15.581  0.0394 -0.0049 -0.2701
 7195W        W23329   6.899   4.096  10.278  0.0098 -0.1192  0.3218
 7196W        W23330   1.448   4.425  15.638  0.1096  0.3168  0.0441
 7197W        W23331  12.485   7.654   0.008 -0.2890 -0.1877 -0.0604
 7198W        W23332   3.636  17.561  15.356 -0.0124 -0.0262  0.1766
 7199W        W23333  17.044   7.311  12.115 -0.1548  0.0168  0.1061
 7200W        W23334   8.635  13.290   1.006 -0.1419 -0.1148  0.0388
 7201W        W23335  18.401   0.723  10.690  0.3753 -0.0182 -0.1013
 7202W        W23336   1.840   8.956  11.838 -0.2558  0.2193  0.1324
 7203W        W23337  12.039   4.289   3.049 -0.1183  0.0929  0.1581
 7204W        W23338  17.521   1.298   0.695 -0.3482 -0.2612 -0.4762
 7205W        W23339   6.002   0.059   5.189 -0.1715 -0.0046 -0.1056
 7206W        W23340  15.392   6.224  14.045 -0.1182  0.1708  0.3240
 7207W        W23341  11.992  13.604   1.963 -0.1393 -0.1716  0.3065
 7208W        W23342  18.421   5.579  11.550  0.1365  0.1530 -0.0698
 7209W        W23343   1.057   2.863  14.986 -0.1970  0.0059 -0.0324
 7210W        W23344   0.574   6.665   2.066  0.2112 -0.3789  0.0005
 7211W        W23345  11.844  12.883  11.448 -0.4203 -0.1144 -0.0511
 7212W        W23346   0.253   8.963   2.513 -0.2084  0.3343 -0.0918
 7213W        W23347  10.573   7.594   5.525  0.0879  0.1943  0.2773
 7214W        W23348   3.683   2.397   1.254  0.3745  0.3250  0.2269
 7215W        W23349  10.791   0.625   4.336  0.0753  0.2463 -0.0433
 7216W        W23350  10.863  10.124   0.427 -0.2344 -0.0709  0.0052
 7217W        W23351  14.437  16.076  12.641 -0.2139  0.1812 -0.0627
 7218W        W23352  11.144  15.075   1.228  0.2113 -0.1617  0.0576
 7219W        W23353  13.409   6.722  14.739  0.0559  0.0341  0.2590
 7220W        W23354   6.640  10.343  12.818  0.0736 -0.2096  0.1948
 7221W        W23355  12.970  12.496   4.620  0.1885 -0.0223 -0.2635
 7222W        W23356   2.060  17.544   3.737 -0.1375  0.2557 -0.0431
 7223W        W23357   6.540  10.723   5.990 -0.2017 -0.4936  0.0418
 7224W        W23358  16.907   0.010  14.138 -0.0058  0.2131  0.2766
 7225W        W23359  17.445  13.919  12.558 -0.0195  0.1852  0.1225
 7226W        W23360  12.728  14.640  12.373  0.4346 -0.0560  0.1507
 7227W        W23361  15.384  17.233   4.539 -0.0122  0.0854 -0.1987
 7228W        W23362  12.281  17.040   0.146 -0.1466 -0.3136  0.1155
 7229W        W23363  14.030  17.323   0.360  0.1822  0.0736 -0.0767
 7230W        W23364   7.317  10.610   5.319  0.0057 -0.1192 -0.4252
 7231W        W23365  12.800  11.023   5.529 -0.0414  0.0471 -0.1374
 7232W        W23366  13.593  18.078   4.189 -0.2181  0.1694 -0.3807
 7233W        W23367  13.563   4.607   5.043  0.0447 -0.0018 -0.2298
 7234W        W23368   7.877  10.023  13.338  0.2394 -0.3213  0.1837
 7235W        W23369   8.502  14.472   0.136  0.1327 -0.1834 -0.2737
 7236W        W23370   5.586   4.428   1.498 -0.0897  0.0728  0.0777
 7237W        W23371   5.873   1.835   1.863  0.2315  0.0004 -0.2092
 7238W        W23372  13.252   6.831   1.615 -0.2709  0.1368 -0.0820
 7239W        W23373  16.948   8.057   4.629  0.3038 -0.5617 -0.2222
 7240W        W23374  16.718  15.778  11.784 -0.0337  0.2528  0.0412
 7241W        W23375  14.557  11.763   6.104 -0.2654  0.0325 -0.1558
 7242W        W23376   3.777   5.179  12.540  0.1263  0.1009 -0.2475
 7243W        W23377   8.505  12.052   1.926 -0.1447  0.2284  0.0120
 7244W        W23378  14.694  16.994   5.399  0.0655  0.1707 -0.1040
 7245W        W23379  16.856  13.435   3.928  0.0281 -0.1586 -0.3080
 7246W        W23380  16.625  13.693  12.673 -0.1662 -0.2658  0.2913
 7247W        W23381   2.227   5.878  15.004 -0.5140 -0.0896  0.4249
 7248W        W23382  10.712  10.117   1.103  0.0275  0.1032 -0.1582
 7249W        W23383   1.838  12.487  11.831 -0.0285  0.4140 -0.1018
 7250W        W23384  11.815   5.814  15.391  0.1165  0.0588  0.1532
 7251W        W23385  11.383  18.185  14.329  0.4062  0.0378 -0.3607
 7252W        W23386   8.690   9.674   2.042  0.0200 -0.5671  0.1794
 7253W        W23387   7.442  11.511   1.141 -0.0417 -0.0710 -0.1816
 7254W        W23388   1.041   7.344  11.113  0.0968  0.0457 -0.0026
 7255W        W23389  10.491  17.886   1.242 -0.0290  0.0631 -0.1471
 7256W        W23390  14.056  17.999   1.141 -0.0686  0.0640 -0.3865
 7257W        W23391   2.032   8.008   0.683  0.0798  0.3247 -0.1947
 7258W        W23392  12.184  13.446   3.640 -0.0688 -0.2245  0.1494
 7259W        W23393   6.485   2.378  13.490 -0.0359  0.1080 -0.1820
 7260W        W23394  14.872   3.276   4.913  0.3911 -0.1482 -0.4100
 7261W        W23395  13.745  14.917   2.253 -0.0199  0.1267  0.1017
 7262W        W23396   1.985  15.319   0.901 -0.1096  0.0139  0.0529
 7263W        W23397   0.707   2.220   9.931  0.0197  0.2023  0.0969
 7264W        W23398  17.154   8.424  12.263  0.2967  0.0623  0.1194
 7265W        W23399  10.224  11.589  12.148 -0.1414 -0.1795 -0.0159
 7266W        W23400  13.419  17.098   4.386 -0.0623  0.2060  0.0327
 7267W        W23401  16.458   7.963   4.760  0.1673  0.1323 -0.2185
 7268W        W23402  10.188   9.003  15.165 -0.3062 -0.1448 -0.2610
 7269W        W23403   3.666  10.860   0.503 -0.0566  0.0451  0.1313
 7270W        W23404   0.961  16.816  13.901 -0.0332  0.0400  0.2101
 7271W        W23405   9.454   5.938  11.880  0.0808  0.2763 -0.1132
 7272W        W23406  13.609  10.836   1.486  0.1827  0.2999 -0.0002
 7273W        W23407   2.424   7.705   2.345 -0.2127  0.2879 -0.1142
 7274W        W23408   3.987   9.751   4.540 -0.2720 -0.1734  0.1350
 7275W        W23409   6.793  10.959   0.581  0.2245  0.1434 -0.3143
 7276W        W23410  14.165   8.965   4.291 -0.1960  0.2844  0.0009
 7277W        W23411  12.061   9.142   1.714  0.1339  0.0591  0.2050
 7278W        W23412  17.864   6.645   2.978 -0.3867  0.1765 -0.0616
 7279W        W23413  16.748   6.911  14.945 -0.1184  0.0712 -0.1377
 7280W        W23414   6.164  14.911  13.382  0.0707  0.1930 -0.2612
 7281W        W23415   2.597   6.657  15.498 -0.3428 -0.3489 -0.1813
 7282W        W23416  13.559   9.568  15.725 -0.1557  0.0584 -0.2007
 7283W        W23417   0.958   1.853  11.676  0.5221 -0.0845 -0.0634
 7284W        W23418   8.950   2.904  13.916  0.0578  0.0195 -0.0583
 7285W        W23419   4.981  10.524   0.906  0.0736  0.2701  0.0003
 7286W        W23420  17.099  17.791  11.381 -0.2338  0.2266  0.0210
 7287W        W23421  13.058   9.525  15.324 -0.1205  0.0463 -0.0575
 7288W        W23422  10.988   7.647  14.370 -0.0158 -0.2505  0.3823
 7289W        W23423  12.027   0.202  14.111 -0.2150 -0.2633 -0.0121
 7290W        W23424   0.842  18.407  14.518 -0.2966 -0.0581 -0.0462
 7291W        W23425   2.278   8.227  15.120  0.1291 -0.1380 -0.0057
 7292W        W23426  10.957   7.060   2.990 -0.1408 -0.0518 -0.0693
 7293W        W23427   3.643   4.472   1.401  0.1232  0.1238  0.1514
 7294W        W23428   8.447  14.748   2.567 -0.4250  0.0757  0.3388
 7295W        W23429   7.837  10.406   1.761 -0.0961  0.1407  0.0803
 7296W        W23430  16.154   8.190   1.665 -0.0535 -0.1346 -0.1049
 7297W        W23431   0.893   6.818  11.975  0.4467 -0.0101  0.1325
 7298W        W23432   8.093   0.522  15.452 -0.1834 -0.1617  0.0128
 7299W        W23433   6.329   4.607  12.003  0.2990 -0.1400 -0.0787
 7300W        W23434   8.576   4.499   2.280 -0.3885 -0.1480  0.1107
 7301W        W23435   1.516   4.795  12.492 -0.0495  0.1007 -0.0694
 7302W        W23436  11.254  13.339   3.503 -0.0724  0.1123  0.0989
 7303W        W23437   8.881  17.150  14.141  0.0486 -0.2921 -0.1192
 7304W        W23438   5.708   1.084   4.937 -0.0108  0.2106  0.1740
 7305W        W23439  10.197  18.350  13.266  0.2821 -0.0238  0.0758
 7306W        W23440   6.933   3.771  12.965 -0.1477  0.1616  0.0356
 7307W        W23441   9.467  13.584   2.703 -0.2802  0.1131 -0.0814
 7308W        W23442   6.296   6.299  13.520  0.3563 -0.2194  0.0051
 7309W        W23443   6.734   1.066  10.885 -0.0744 -0.2940 -0.0351
 7310W        W23444   8.207   7.460  14.758 -0.0979  0.2855  0.0448
 7311W        W23445   9.641  13.040  13.070  0.1592  0.0916 -0.0041
 7312W        W23446   2.982   9.386   2.711 -0.0720  0.3332  0.0153
 7313W        W23447  12.595   3.577  13.697  0.1022 -0.2444  0.2372
 7314W        W23448   2.344   9.996  12.386 -0.0994 -0.0219 -0.2588
 7315W        W23449   0.307   5.862   0.988 -0.1707  0.1646 -0.0404
 7316W        W23450  10.911  13.121  11.200  0.1600  0.1755  0.1605
 7317W        W23451   1.716   7.883  13.034  0.3750 -0.1269 -0.0854
 7318W        W23452  15.947   4.153  11.690  0.0944 -0.1438  0.0197
 7319W        W23453  10.774   3.977   5.685 -0.0067  0.0044  0.2410
 7320W        W23454   3.731   7.998  12.709 -0.2919 -0.0400 -0.1795
 7321W        W23455  15.564   8.130  14.139 -0.2102 -0.0382 -0.2279
 7322W        W23456  11.007  13.424   1.543 -0.0477  0.0582 -0.1453
 7323W        W23457  15.423  10.950   5.294  0.2255 -0.0142  0.1289
 7324W        W23458   6.616   4.008  11.194  0.0520 -0.0753  0.3731
 7325W        W23459   5.540  10.570  13.621  0.0121 -0.2659 -0.0716
 7326W        W23460  14.206   0.959  15.623  0.0126 -0.0137  0.0653
 7327W        W23461   2.619   3.892  14.122  0.2022  0.0771  0.0900
 7328W        W23462   9.051   3.078   3.098 -0.1077 -0.3597  0.0016
 7329W        W23463   7.973  14.993  14.909  0.4762 -0.1586  0.5786
 7330W        W23464  15.659   4.175   0.436  0.0251  0.1875 -0.2007
 7331W        W23465  15.363   7.719  14.266  0.0868 -0.1091 -0.1068
 7332W        W23466   8.045   0.134   4.753 -0.0840 -0.0208 -0.2302
 7333W        W23467   7.693  10.737   1.412  0.0589 -0.0714 -0.2778
 7334W        W23468  12.838   5.640   5.483  0.1962 -0.2358  0.0441
 7335W        W23469  18.263   8.722   1.540 -0.2321 -0.1897  0.3046
 7336W        W23470   2.429   2.775   3.569  0.0525  0.1090  0.1562
 7337W        W23471   3.541  15.472   2.806 -0.0451  0.2209  0.1378
 7338W        W23472   8.812  13.926   4.149  0.1709 -0.0547  0.3047
 7339W        W23473  10.163  11.210   5.854 -0.1480 -0.1857  0.0841
 7340W        W23474  13.514  13.589  11.351  0.0818 -0.3029 -0.3327
 7341W        W23475   2.053  10.700   3.529  0.2222  0.1442  0.0452
 7342W        W23476  13.126   4.089  11.420  0.1464  0.2684 -0.3388
 7343W        W23477  11.581   4.061  11.590  0.1966 -0.1212  0.1550
 7344W        W23478  15.334   5.552   1.224 -0.0591  0.0975 -0.2144
 7345W        W23479   7.626  16.951  15.771  0.2216 -0.1421 -0.1414
 7346W        W23480   7.841   8.509   0.223  0.0138  0.0958  0.1973
 7347W        W23481  15.379  12.255  15.262 -0.3185  0.0927 -0.1492
 7348W        W23482   6.689   9.672   4.491 -0.2760 -0.0488 -0.1265
 7349W        W23483   0.220  16.154  12.262 -0.1325 -0.3739  0.3333
 7350W        W23484   0.479   6.007  14.532  0.0467  0.2578  0.2265
 7351W        W23485  10.029  14.560  14.256  0.0460 -0.0238 -0.0599
 7352W        W23486  17.928   7.562  13.313 -0.2127 -0.2210 -0.1336
 7353W        W23487   9.265  14.221   2.187  0.0809  0.0859 -0.0812
 7354W        W23488   0.546   9.012  12.630 -0.1489 -0.0491 -0.0679
 7355W        W23489  14.206  15.158   2.505 -0.1069  0.0096  0.4704
 7356W        W23490  17.229   2.707   1.477  0.0435 -0.1071 -0.0652
 7357W        W23491  10.705   3.392   5.247 -0.0810  0.3570  0.2791
 7358W        W23492  16.648  10.860  11.568 -0.0747 -0.1265  0.0208
 7359W        W23493   3.579   7.686  14.996 -0.0008 -0.0041 -0.1789
 7360W        W23494   5.252  14.895   0.338 -0.0108 -0.0313 -0.0947
 7361W        W23495   6.883   1.376  15.238 -0.5376  0.2114 -0.0519
 7362W        W23496   9.417   8.883  15.041  0.2922  0.0165  0.0687
 7363W        W23497  15.373   1.530   4.668  0.2814 -0.1098 -0.3332
 7364W        W23498   4.489  10.678   3.954  0.1396  0.0193 -0.1718
 7365W        W23499   3.236   5.542  10.908 -0.0526 -0.2418  0.3223
 7366W        W23500  11.141  13.969  11.750  0.0334 -0.0599 -0.2855
 7367W        W23501   0.694  12.692  15.584  0.0359  0.2902  0.0114
 7368W        W23502  12.357  14.422   0.373  0.2714  0.2408  0.3046
 7369W        W23503   7.758  13.622  15.884  0.1506  0.4982 -0.0912
 7370W        W23504  14.757  15.895   2.533 -0.1138  0.1490  0.2430
 7371W        W23505   8.184  11.303   1.594 -0.1698 -0.1980 -0.1504
 7372W        W23506  13.852  15.769   0.428 -0.0940 -0.0399  0.0649
 7373W        W23507  11.097  17.244   0.683  0.1506 -0.0442 -0.2148
 7374W        W23508   7.229   8.602  13.167 -0.0521 -0.3522 -0.0120
 7375W        W23509  16.650   5.747   0.813 -0.1693  0.2130 -0.1895
 7376W        W23510  10.041   9.932  14.907 -0.1691  0.1199  0.0952
 7377W        W23511   9.333  13.855  10.110  0.1143 -0.0295 -0.2018
 7378W        W23512   7.133   8.876   2.677 -0.2492  0.2525  0.2439
 7379W        W23513  18.421   6.516   2.127 -0.1875 -0.1271 -0.1093
 7380W        W23514  14.394   2.206  12.567 -0.3219 -0.0431  0.0712
 7381W        W23515  11.916   8.262  14.911 -0.3739  0.2440 -0.0566
 7382W        W23516   1.626   5.565  12.987 -0.1361  0.3119 -0.1542
 7383W        W23517   3.533   3.594  12.871 -0.1419  0.0568 -0.2006
 7384W        W23518   0.158  16.292  11.300 -0.0836 -0.3654  0.0368
 7385W        W23519   1.660   3.775  12.895  0.2065  0.1192  0.3269
 7386W        W23520  15.152   0.916  11.285  0.0516  0.1711 -0.0473
 7387W        W23521   8.533   9.965  13.820 -0.1030 -0.1182 -0.2737
 7388W        W23522   4.079   5.857  14.109 -0.2351 -0.1384  0.1026
 7389W        W23523  15.298  11.540   4.685  0.3247  0.2064  0.1699
 7390W        W23524  10.090   3.933  14.488 -0.1125 -0.0286 -0.1970
 7391W        W23525   8.454   8.217  13.666  0.1039 -0.0357 -0.1114
 7392W        W23526   4.731   6.119   0.928 -0.3242  0.0571  0.2493
 7393W        W23527  14.639   6.596   5.623  0.0110  0.1989  0.3502
 7394W        W23528   5.443   8.423   0.814 -0.3711 -0.0032  0.2490
 7395W        W23529  16.477  11.670   0.350  0.1799  0.1502  0.1138
 7396W        W23530   9.831  12.362   3.206  0.2588 -0.0469  0.1392
 7397W        W23531   1.001  12.091   5.416  0.1777  0.1071  0.0779
 7398W        W23532  16.369   0.489   5.904  0.0365 -0.1331 -0.0148
 7399W        W23533   1.727  12.218  11.167 -0.2733 -0.1068  0.0346
 7400W        W23534   4.197   3.729   1.972  0.1828 -0.0962 -0.0951
 7401W        W23535  11.061  10.838   3.676  0.1081 -0.0471 -0.2141
 7402W        W23536   7.739   8.388   5.326 -0.1213  0.1440 -0.0340
 7403W        W23537  18.005   9.456  11.656 -0.2033  0.1081 -0.0099
 7404W        W23538   7.374  13.006  11.331  0.1643  0.5053  0.0474
 7405W        W23539   7.530  15.143   1.448 -0.0626  0.1115 -0.1056
 7406W        W23540  17.414   3.642  14.398  0.2251  0.2282  0.0151
 7407W        W23541  11.883  14.662   2.467 -0.0545  0.1058 -0.0074
 7408W        W23542   1.954   9.999   2.302  0.0410  0.3558  0.1325
 7409W        W23543  16.475   2.604   3.431 -0.0522  0.1636 -0.2105
 7410W        W23544   5.705  16.932  14.885 -0.0231  0.4164  0.0678
 7411W        W23545  10.249  11.015   4.454 -0.2128  0.0727 -0.1124
 7412W        W23546  11.393   5.985   2.020 -0.1228 -0.1253 -0.0927
 7413W        W23547   5.884   8.275  14.394 -0.2339  0.1574 -0.0904
 7414W        W23548   7.699   3.118   0.432  0.1975 -0.2724 -0.0446
 7415W        W23549  10.540  10.973   3.172 -0.3415 -0.2110  0.1958
 7416W        W23550  16.037  12.715  13.500 -0.2972 -0.1227 -0.1191
 7417W        W23551   7.298  16.156   3.721  0.0596 -0.2369  0.2258
 7418W        W23552  15.575   5.994   3.267 -0.3270  0.1159  0.0382
 7419W        W23553  16.480   7.890  15.890  0.2028  0.3462 -0.3097
 7420W        W23554   7.263   3.683   3.608 -0.2404 -0.0862 -0.0987
 7421W        W23555   5.036   3.176  14.166  0.3378 -0.0973 -0.0622
 7422W        W23556  10.097   0.758   2.173 -0.4265 -0.1422 -0.2147
 7423W        W23557   6.121  17.829   1.734 -0.2367 -0.0244 -0.0016
 7424W        W23558  11.244  14.234   3.162 -0.1054 -0.0973 -0.0969
 7425W        W23559   2.518  15.159  12.799  0.0119  0.0263  0.1261
 7426W        W23560  15.247   9.114  15.172  0.2461 -0.0390  0.0788
 7427W        W23561   1.384   6.727  12.263 -0.1618 -0.1550 -0.0442
 7428W        W23562  10.140   5.362   1.557 -0.0736 -0.1261  0.2680
 7429W        W23563   7.056  12.264   0.429  0.0641 -0.0731  0.1064
 7430W        W23564   9.399   8.006   4.661 -0.0807 -0.0485  0.0279
 7431W        W23565   0.797   7.239   4.251  0.1070  0.2746 -0.0181
 7432W        W23566   5.578   7.579   0.967  0.1510  0.1373 -0.0232
 7433W        W23567   1.388  10.891  12.053 -0.0731  0.1239  0.0169
 7434W        W23568  15.931  16.065  13.999  0.0941  0.1180 -0.2090
 7435W        W23569   6.411  13.640  13.409 -0.1104  0.2485  0.3504
 7436W        W23570  10.687  12.460  12.398 -0.0802  0.0365 -0.0435
 7437W        W23571  10.346   6.635   4.481  0.0764  0.1367  0.3594
 7438W        W23572  17.073  15.645   1.658 -0.1737  0.2624  0.0261
 7439W        W23573   7.165   5.550   2.652  0.2616  0.2195  0.1560
 7440W        W23574  17.291   3.836  15.882  0.3323 -0.0502 -0.0627
 7441W        W23575  13.498   8.243   2.317 -0.2853  0.2310  0.1830
 7442W        W23576   5.745  15.849  12.968  0.0466  0.0430  0.1822
 7443W        W23577   1.744   6.311   3.157  0.1269  0.1448 -0.3657
 7444W        W23578   4.922  17.938   0.748 -0.0149 -0.0913 -0.1615
 7445W        W23579  14.794   1.851   0.186 -0.0658  0.4592 -0.1987
 7446W        W23580  13.835   8.382   2.728  0.0129  0.0891  0.5182
 7447W        W23581  15.213  12.980  15.358 -0.0525 -0.0684  0.1776
 7448W        W23582  16.298  11.194  15.451  0.0131  0.2003 -0.0686
 7449W        W23583  14.774   0.666  14.817 -0.0814  0.2265  0.0151
 7450W        W23584   1.403  16.198  12.290  0.2734 -0.3490 -0.2786
 7451W        W23585   2.141   7.133   1.702 -0.2084 -0.2068 -0.3963
 7452W        W23586  11.374   5.080   0.036 -0.1087 -0.2181  0.0972
 7453W        W23587   2.393   9.169   1.318 -0.1505 -0.1299  0.1906
 7454W        W23588   1.916   7.357  13.773  0.0970  0.0391 -0.1113
 7455W        W23589   0.467   8.502   3.323  0.3088  0.0871 -0.0764
 7456W        W23590  17.331  15.736   3.903 -0.1650 -0.0138 -0.1579
 7457W        W23591  10.847   7.138   5.245 -0.0699  0.5183  0.1695
 7458W        W23592   8.883   2.047   2.365 -0.3390  0.3235  0.1651
 7459W        W23593  12.500  13.507  14.888 -0.0154 -0.1565  0.2238
 7460W        W23594  12.006   3.293  12.131 -0.2236  0.3700  0.2574
 7461W        W23595   9.953   2.009   1.498 -0.0105  0.0997 -0.0748
 7462W        W23596   9.793  10.668   5.225 -0.0485  0.0239 -0.1214
 7463W        W23597   7.111  14.124  12.555 -0.0894 -0.1229  0.2807
 7464W        W23598   5.733  10.631   4.328 -0.3201 -0.2950 -0.1204
 7465W        W23599  14.897   0.399   3.567 -0.3170  0.2941  0.2570
 7466W        W23600   6.203  12.104  14.384 -0.2141 -0.1653  0.1219
 7467W        W23601   6.845   6.323  11.456  0.2113 -0.0213 -0.1957
 7468W        W23602   8.114   5.415  12.407 -0.1614 -0.0669  0.1029
 7469W        W23603  13.377  13.327  13.425 -0.4016 -0.2397  0.0072
 7470W        W23604   1.819   0.641  11.774 -0.1546  0.0011 -0.0466
 7471W        W23605   0.865   3.335   4.820 -0.0646  0.2161  0.0817
 7472W        W23606  10.773   2.955   2.735  0.0713  0.1999 -0.0547
 7473W        W23607   8.726   4.899   3.887  0.3058 -0.0306 -0.0664
 7474W        W23608  15.622   6.896  15.103 -0.1377  0.0211  0.0094
 7475W        W23609   6.746   4.631   2.504 -0.0440 -0.2220 -0.2201
 7476W        W23610   5.399   0.734   0.184 -0.0964  0.1471  0.3509
 7477W        W23611   3.333   0.951  12.696  0.0063 -0.1038 -0.1562
 7478W        W23612   5.146  15.701  11.732  0.2266  0.1509  0.1118
 7479W        W23613  10.607  16.089  14.161 -0.1008  0.3601  0.2730
 7480W        W23614  11.905   6.908   0.294 -0.0700 -0.0068  0.1667
 7481W        W23615  13.922   8.018  14.208  0.0182 -0.1437  0.2186
 7482W        W23616   9.564   4.284   2.856  0.1989  0.1801 -0.3413
 7483W        W23617  11.187  15.618   3.180  0.3214  0.0557  0.2540
 7484W        W23618  17.135   2.450  12.546  0.0612  0.0435 -0.1117
 7485W        W23619   7.010  12.719   0.593  0.0467  0.0350 -0.1741
 7486W        W23620   9.243  14.091  13.997 -0.2822 -0.2675 -0.0438
 7487W        W23621   5.322   9.784   4.715 -0.0866  0.0354 -0.1640
 7488W        W23622   1.831  17.588  10.668 -0.0552 -0.0501 -0.3460
 7489W        W23623  12.636   8.696  13.854 -0.0310 -0.0403  0.2329
 7490W        W23624  17.669  14.894   3.575 -0.2983  0.3309 -0.1320
 7491W        W23625   8.491  15.139  13.706  0.1189 -0.0328 -0.0576
 7492W        W23626  11.127  15.592  12.450  0.1513  0.0539 -0.1995
 7493W        W23627   1.371  16.201   2.860  0.1537 -0.0990  0.0777
 7494W        W23628   5.801   0.686   4.641 -0.1956 -0.0584  0.1277
 7495W        W23629   9.039   1.190   2.922  0.0757  0.1599  0.0932
 7496W        W23630   6.948   5.447  15.332 -0.1462  0.1894 -0.3591
 7497W        W23631  10.003  13.325   4.473 -0.0751  0.1566 -0.0423
 7498W        W23632   8.011   1.783  15.155  0.0350 -0.0546  0.1576
 7499W        W23633  10.369   6.961  12.193 -0.1796  0.1002 -0.3455
 7500W        W23634  12.448  18.065  15.841 -0.0524 -0.1592 -0.3245
 7501W        W23635  16.254  16.625   3.376 -0.4087 -0.0661  0.1873
 7502W        W23636   0.898   3.420  13.020 -0.0096 -0.4177 -0.1103
 7503W        W23637  17.844   5.931   0.762  0.0533 -0.1080  0.1126
 7504W        W23638  17.425  13.612  15.000 -0.0140 -0.1240  0.1763
 7505W        W23639   1.356  10.975   4.249 -0.1813  0.3393  0.0928
 7506W        W23640   6.503  15.052   5.089  0.1933 -0.1663  0.0744
 7507W        W23641   4.147   1.452   2.605  0.0358 -0.0365  0.3487
 7508W        W23642  15.893  11.861  14.992  0.2495 -0.1012  0.0219
 7509W        W23643   3.434  15.883  11.901 -0.0260 -0.1412 -0.0640
 7510W        W23644   4.741  16.483   4.757 -0.2019  0.2843 -0.2971
 7511W        W23645   2.721   8.622  12.373 -0.0601  0.0254  0.4443
 7512W        W23646   7.762   2.474   4.788  0.0965 -0.1250  0.1984
 7513W        W23647   1.933   6.299  14.649 -0.2517  0.3708  0.0722
 7514W        W23648   4.710  17.737   1.714  0.0008 -0.1538 -0.1846
 7515W        W23649   3.543   4.530   3.087  0.0082  0.2948 -0.0788
 7516W        W23650  10.979   7.158  14.439  0.1248 -0.1555 -0.0151
 7517W        W23651  13.430  15.682   2.835  0.1935 -0.0706  0.1883
 7518W        W23652   7.902   8.697  13.227 -0.1033  0.0714  0.0491
 7519W        W23653   7.949   0.273  14.969  0.0225 -0.5066 -0.0456
 7520W        W23654  16.454   2.381   1.205  0.0800 -0.0516 -0.0033
 7521W        W23655  11.817   2.358  11.025  0.1359  0.1354  0.1928
 7522W        W23656  18.071   2.568  15.609 -0.3226 -0.1391  0.3372
 7523W        W23657   6.751   6.823   3.740 -0.2319 -0.3130  0.2118
 7524W        W23658   4.950   5.360   5.743  0.1111  0.0767  0.0570
 7525W        W23659   8.627   1.908  11.255 -0.1594  0.2580 -0.0224
 7526W        W23660   4.493   9.021   4.521 -0.1097  0.1142  0.1957
 7527W        W23661  17.559   3.921   4.260 -0.3969  0.2772  0.2012
 7528W        W23662  17.200   4.302   1.878  0.0706 -0.0047  0.1478
 7529W        W23663   6.268   7.032  12.449 -0.1450 -0.0133  0.1974
 7530W        W23664  10.130   8.183  11.742  0.1056 -0.0304 -0.0221
 7531W        W23665   0.783  12.829  13.577  0.0115  0.1375  0.1874
 7532W        W23666   8.920  15.761   3.751  0.3997 -0.2080  0.0975
 7533W        W23667   7.043  15.271  14.106 -0.0637 -0.1242 -0.1802
 7534W        W23668  13.586  16.938   3.135 -0.0050 -0.0989 -0.1681
 7535W        W23669   8.359   4.409  15.126 -0.1768 -0.1151  0.0179
 7536W        W23670  12.026  15.848  14.017 -0.1482 -0.0897  0.0810
 7537W        W23671   6.675  15.812   4.401 -0.2418  0.0440 -0.1791
 7538W        W23672   8.344  11.582   1.983  0.0529 -0.2136  0.0095
 7539W        W23673   0.983   6.854  14.492  0.3515  0.2856 -0.0668
 7540W        W23674   8.628  17.518  11.303 -0.0513 -0.2330 -0.0061
 7541W        W23675  18.330  16.311   1.523 -0.2139 -0.2787 -0.0193
 7542W        W23676   5.930   4.465  12.297 -0.2343 -0.1658  0.3311
 7543W        W23677   4.020   3.365  12.662  0.0313  0.2525  0.0157
 7544W        W23678   2.296   0.583  10.822  0.1006 -0.2504 -0.2462
 7545W        W23679   9.857  17.268  13.092  0.1011  0.0445 -0.1965
 7546W        W23680  12.088   8.854  13.032 -0.1847 -0.1107 -0.1147
 7547W        W23681   3.997  14.077   0.529 -0.0884 -0.1595  0.1376
 7548W        W23682   4.304  15.970  12.279  0.1911 -0.0589 -0.1055
 7549W        W23683   2.426   6.657  12.038 -0.3481 -0.0056  0.1364
 7550W        W23684  14.273  17.993   2.892 -0.0000  0.0985  0.1420
 7551W        W23685   2.320  17.832  12.050 -0.0115 -0.0937  0.0652
 7552W        W23686   1.534  13.658  11.714  0.0424 -0.0728 -0.2881
 7553W        W23687   6.878   7.214  11.160  0.3188 -0.1541  0.2713
 7554W        W23688  14.633   7.033   3.125  0.1057 -0.0411  0.2033
 7555W        W23689   1.399  17.181   1.695  0.1739  0.0960  0.0082
 7556W        W23690   9.639  18.209   0.047  0.1205  0.3203 -0.1216
 7557W        W23691  11.509   7.470   4.424 -0.2185  0.3362 -0.0702
 7558W        W23692  15.029  14.976   0.008  0.0722 -0.1339  0.1260
 7559W        W23693   6.404   9.511  13.591  0.1412  0.1753  0.0834
 7560W        W23694   8.035  12.394   4.585  0.1515  0.0378 -0.0516
 7561W        W23695   6.860   8.015   2.362 -0.1114 -0.1328 -0.0156
 7562W        W23696  11.915   9.230  12.696 -0.2743 -0.3793  0.0349
 7563W        W23697   1.384   4.293  13.167  0.0547  0.0479 -0.0499
 7564W        W23698   3.634  14.276   3.500 -0.1145  0.0314 -0.2260
 7565W        W23699  14.690  14.778  12.524  0.1073 -0.0058  0.0418
 7566W        W23700  13.554  16.179  12.682 -0.0034 -0.1042 -0.2071
 7567W        W23701   6.467   3.244  13.674  0.0290 -0.1866  0.2124
 7568W        W23702   0.718  18.123  11.667  0.1148  0.0064  0.1932
 7569W        W23703   7.616   2.377   1.688 -0.1537 -0.0253  0.1984
 7570W        W23704  14.194   3.021   1.123  0.0034  0.1330 -0.2901
 7571W        W23705  16.512  15.032   4.767 -0.2481  0.1029  0.1289
 7572W        W23706   2.593  16.484  10.855 -0.1153  0.1838 -0.1204
 7573W        W23707   8.879   5.874   3.210 -0.2407  0.1829 -0.0214
 7574W        W23708   7.361   6.350  13.313 -0.0186  0.0288  0.0937
 7575W        W23709  12.506  15.951   4.889 -0.0008 -0.1381  0.1748
 7576W        W23710   5.069   3.287  12.575  0.0367 -0.1828  0.0119
 7577W        W23711  18.117  16.382  11.919 -0.1525  0.2903 -0.2101
 7578W        W23712  14.406  12.709  12.092  0.1619  0.0326  0.0490
 7579W        W23713   6.747   0.485   2.633 -0.0473  0.3600 -0.5240
 7580W        W23714   3.738   8.828  13.480  0.0539  0.2981 -0.0203
 7581W        W23715   7.658  15.437  14.852  0.0438  0.0376 -0.0007
 7582W        W23716   4.417  11.721   4.790  0.0055  0.0548  0.2421
 7583W        W23717  10.511   9.001   5.063  0.1054  0.1036  0.3020
 7584W        W23718   5.663   9.295  14.720 -0.1178 -0.0405 -0.2531
 7585W        W23719   5.016  12.872  12.880 -0.0151 -0.0454 -0.0437
 7586W        W23720  15.764  11.460   3.563  0.1701  0.0701  0.0232
 7587W        W23721   9.544   1.301   5.419  0.1005 -0.1384  0.2122
 7588W        W23722   6.015  16.817   5.164 -0.0043  0.1540 -0.2390
 7589W        W23723   7.672  13.449   4.126 -0.0955 -0.1124  0.2406
 7590W        W23724   9.385  10.079  13.330  0.4011 -0.1227 -0.0458
 7591W        W23725  13.593   3.840  15.458  0.4564 -0.1867 -0.1799
 7592W        W23726  11.009   8.373   3.429 -0.1939 -0.0028 -0.2421
 7593W        W23727   2.744  17.029   1.512  0.0268  0.0670  0.0695
 7594W        W23728   7.473   3.269   2.621  0.1948 -0.0506  0.0683
 7595W        W23729   2.150   2.198   5.050 -0.1571 -0.2326  0.2202
 7596W        W23730  11.692  14.503  13.990 -0.4052  0.1164  0.3630
 7597W        W23731  10.471   5.975   0.981 -0.0812 -0.2772  0.0388
 7598W        W23732   6.843  17.055   2.639  0.5101 -0.0828  0.1262
 7599W        W23733   1.159  14.737   3.964 -0.0979 -0.1539 -0.0373
 7600W        W23734  17.485   0.355   4.394  0.1262 -0.0214  0.0603
 7601W        W23735   0.512   1.233   2.672  0.1982  0.2507  0.0970
 7602W        W23736  17.165  16.713  14.621 -0.2382  0.0875  0.0152
 7603W        W23737   0.368   8.538   4.742  0.1383  0.2887  0.0538
 7604W        W23738  12.640  16.848  13.538  0.3439  0.2766 -0.0986
 7605W        W23739  14.781   7.467   1.477 -0.1108  0.0647  0.2441
 7606W        W23740  17.013   1.739  13.505  0.1196 -0.4189 -0.1019
 7607W        W23741  14.806  16.797   0.787 -0.6055  0.0253 -0.2316
 7608W        W23742  14.917   2.223  13.716  0.1780 -0.0032 -0.0692
 7609W        W23743   8.747   4.883   2.879 -0.0427  0.3085  0.2008
 7610W        W23744  13.717   6.774  15.507  0.3051 -0.0365 -0.0044
 7611W        W23745   5.813   6.238  13.623 -0.1698 -0.0982 -0.1838
 7612W        W23746  14.135   4.946   4.148 -0.2136 -0.3572 -0.1401
 7613W        W23747  13.539   0.944   0.140  0.0458 -0.2734  0.1796
 7614W        W23748  17.708  17.102   3.440  0.2839  0.0314  0.2303
 7615W        W23749  11.774  14.168  10.410 -0.0086  0.3060  0.2662
 7616W        W23750  17.848  17.442  12.461  0.0233 -0.2933 -0.1378
 7617W        W23751  15.984  16.466  13.382 -0.2455 -0.2578 -0.0488
 7618W        W23752  12.340   8.899  13.493  0.0700 -0.1162 -0.0334
 7619W        W23753   6.888  15.170   3.202  0.1980 -0.0698  0.0460
 7620W        W23754  15.362   4.291   2.367 -0.1908  0.0123  0.2988
 7621W        W23755   6.189   6.090  12.667  0.0714 -0.1359 -0.1250
 7622W        W23756  15.241   5.238  15.737 -0.2605 -0.0979  0.2837
 7623W        W23757  13.388  13.927   5.348 -0.1501 -0.0066  0.0575
 7624W        W23758  14.004   9.816   4.402 -0.0011  0.5061  0.3407
 7625W        W23759  18.268  16.079   4.257  0.3013 -0.3397  0.3041
 7626W        W23760  12.784  10.277  13.929 -0.0860  0.2398 -0.2260
 7627W        W23761   0.079  10.720   4.673  0.1016  0.0120  0.0202
 7628W        W23762   3.767   2.483  15.814  0.1839  0.2027 -0.0089
 7629W        W23763  15.557  17.768  13.808 -0.1629  0.0611 -0.0570
 7630W        W23764  15.693   2.247  13.274  0.0828 -0.0839 -0.0498
 7631W        W23765   9.486   6.487  11.033  0.0029 -0.2063  0.0634
 7632W        W23766   4.274   5.356  14.062 -0.0996 -0.3135  0.1441
 7633W        W23767   8.468  15.849   4.271  0.0923 -0.0083  0.0376
 7634W        W23768   5.805  11.840   1.727 -0.2019  0.1537 -0.3074
 7635W        W23769  12.026  17.873   2.908 -0.2494  0.4664 -0.2562
 7636W        W23770  15.142  17.877   3.263  0.1286 -0.0515 -0.1075
 7637W        W23771   7.154   3.143   1.132  0.2204  0.0910 -0.2674
 7638W        W23772  11.840  17.451  13.386  0.2624  0.1179 -0.2923
 7639W        W23773   4.616  15.370  11.635 -0.0631  0.1555 -0.0423
 7640W        W23774  10.243   8.506   0.867  0.0293 -0.1092  0.0451
 7641W        W23775  17.320  17.918   4.622 -0.0763 -0.2525 -0.2176
 7642W        W23776  10.019  10.345  14.631 -0.1619  0.0355  0.1318
 7643W        W23777  12.589  17.306   1.599 -0.0423  0.2124 -0.0162
 7644W        W23778  14.351   9.005  13.185 -0.0572  0.2155  0.0391
 7645W        W23779  10.221   9.346  14.161  0.4210  0.2094  0.1480
 7646W        W23780  13.928  16.387   4.339 -0.2607  0.1844 -0.1865
 7647W        W23781  18.146  18.450   2.144 -0.1723 -0.0772  0.2529
 7648W        W23782   2.525  17.955  13.796  0.1366  0.1142  0.1431
 7649W        W23783   7.297  12.156   2.538  0.0766  0.0407  0.0468
 7650W        W23784   9.914   0.361  13.995  0.1661  0.0414  0.3298
 7651W        W23785   6.654   2.522  15.400 -0.2164 -0.0947  0.0192
 7652W        W23786   1.278   4.590   2.802  0.0148  0.0573 -0.0702
 7653W        W23787   0.613  12.007  12.939 -0.0510  0.2594 -0.0972
 7654W        W23788   1.656   2.855  14.646  0.0975 -0.2263 -0.1586
 7655W        W23789  18.307   9.701  15.411 -0.0739 -0.0191  0.1703
 7656W        W23790  12.791   2.257   5.964  0.0714 -0.0007 -0.0749
 7657W        W23791   2.262   4.318  13.926  0.0171 -0.2478  0.1123
 7658W        W23792  17.433   8.763   2.426  0.2739 -0.1689  0.0763
 7659W        W23793  12.609   8.884   2.369  0.0509  0.2776  0.1482
 7660W        W23794  16.460  10.628  13.461 -0.0477  0.1798  0.2123
 7661W        W23795   2.165   0.558   5.561 -0.1656 -0.2606 -0.2609
 7662W        W23796   3.760  12.323   2.932 -0.0612 -0.2013 -0.0253
 7663W        W23797  14.780  17.519   3.670 -0.3780 -0.1598  0.1329
 7664W        W23798   4.908  14.087  10.187 -0.1379 -0.0157  0.1488
 7665W        W23799  17.580  17.571   4.316 -0.1981  0.1392  0.0868
 7666W        W23800   8.462   9.422   0.295  0.0640 -0.3072  0.0874
 7667W        W23801   2.553  16.388   2.480 -0.0074  0.1210 -0.0115
 7668W        W23802  13.247  13.663  11.820 -0.2327 -0.0025 -0.2726
 7669W        W23803  11.282   9.230  12.600 -0.1429 -0.2119  0.2003
 7670W        W23804  10.828  13.483   0.637  0.2800  0.3753  0.0328
 7671W        W23805  15.588   9.729  15.831 -0.2800 -0.3720  0.3088
 7672W        W23806  15.102   6.014   1.559 -0.0915 -0.1517  0.0485
 7673W        W23807   0.322  17.572   2.578 -0.1726 -0.2021  0.1933
 7674W        W23808   2.609  14.190  14.821 -0.1927 -0.0574 -0.1282
 7675W        W23809  12.701  17.170   2.571 -0.1947  0.0623  0.0640
 7676W        W23810   8.254  13.132   1.416 -0.2801  0.2642 -0.0846
 7677W        W23811  10.996  13.075  15.006  0.0431  0.0155 -0.1770
 7678W        W23812  17.298   4.298  11.813  0.1090 -0.2501  0.0218
 7679W        W23813   1.074  11.385   0.305  0.0148 -0.0321 -0.1696
 7680W        W23814   0.590  16.037   1.908  0.2719 -0.0392  0.1447
 7681W        W23815   5.967   7.727  12.640  0.0844  0.0510  0.1656
 7682W        W23816  10.391   8.200  12.654  0.2454 -0.1350 -0.3035
 7683W        W23817   3.715   7.157   3.020 -0.0943 -0.0232 -0.0912
 7684W        W23818   7.948  17.946  13.491  0.0183  0.0311 -0.0030
 7685W        W23819   8.290   2.144  15.341  0.0206  0.0306 -0.0390
 7686W        W23820   9.173   1.465   4.566 -0.0898 -0.0576  0.0040
 7687W        W23821   1.796  10.621  10.866 -0.0796 -0.1189  0.2219
 7688W        W23822  13.749  10.433  11.187 -0.0973  0.0964  0.1764
 7689W        W23823  15.800   5.235   4.462  0.3981 -0.2474 -0.1354
 7690W        W23824  15.163   2.944   4.631 -0.1124  0.0690  0.4063
 7691W        W23825  14.971  16.696   2.275 -0.0836 -0.1445 -0.2074
 7692W        W23826   6.092   0.853  12.448 -0.1279 -0.0240  0.0197
 7693W        W23827   4.195   6.953  14.920  0.1160 -0.0354  0.0280
 7694W        W23828   0.122  13.557  11.803  0.0409 -0.4197  0.1171
 7695W        W23829   6.072   9.556  13.999 -0.1693 -0.3355  0.5560
 7696W        W23830  16.554   3.155   5.479  0.2111 -0.1484 -0.3115
 7697W        W23831   0.213  14.055   3.902  0.2949 -0.1555  0.2082
 7698W        W23832  17.435  14.832  14.953 -0.1498  0.2502 -0.2124
 7699W        W23833  13.264  14.220   3.708  0.1701  0.2427 -0.1674
 7700W        W23834  10.481  17.588  15.875  0.2971 -0.0377  0.1311
 7701W        W23835   8.789  16.468   2.919 -0.1133 -0.1262 -0.2152
 7702W        W23836  15.636   6.992   5.029 -0.2273  0.1194  0.2711
 7703W        W23837  18.016  11.459   1.112 -0.1267 -0.0574 -0.0030
 7704W        W23838   8.871  13.285   6.378  0.2547  0.3105  0.3260
 7705W        W23839  15.274  12.165  11.682 -0.1199 -0.0073  0.1696
 7706W        W23840   7.614   1.957   4.837 -0.3067  0.4955  0.1122
 7707W        W23841   7.186  15.583   3.367  0.0972  0.0129  0.1487
 7708W        W23842  13.509   0.730  14.166  0.3971 -0.1068  0.1330
 7709W        W23843  17.746   7.128   0.585 -0.0936 -0.3870  0.1299
 7710W        W23844  11.681  16.590   3.074  0.0008  0.0490 -0.3033
 7711W        W23845  12.782  12.373  13.246  0.2759  0.2580  0.0511
 7712W        W23846  10.504   9.107  11.555  0.0098 -0.2809  0.0063
 7713W        W23847   4.677  10.827   3.114 -0.1673 -0.0629 -0.1710
 7714W        W23848   4.734  14.396   0.584 -0.4003 -0.0815  0.0104
 7715W        W23849   8.951  15.895  14.356  0.0091 -0.1648  0.1103
 7716W        W23850  13.998   6.812   4.409 -0.0493 -0.1047 -0.0645
 7717W        W23851  14.220   8.470   4.478 -0.1520  0.0716  0.0325
 7718W        W23852  13.721  18.302   5.479 -0.3088 -0.0233  0.0668
 7719W        W23853  12.865   0.887  15.160  0.1335  0.3652  0.0271
 7720W        W23854  15.615  10.736  13.078  0.0788  0.0084 -0.1368
 7721W        W23855   9.367   8.368   2.328 -0.1004 -0.0568  0.2505
 7722W        W23856  18.298  17.347  14.127 -0.0375 -0.0082 -0.1458
 7723W        W23857   2.824  18.281  12.145 -0.2105  0.1092  0.1707
 7724W        W23858   8.001   6.446   2.965  0.1015 -0.0434 -0.2394
 7725W        W23859  14.470  13.932   2.795  0.1408 -0.5169 -0.1311
 7726W        W23860   4.013  13.218   3.181  0.1824 -0.1709  0.1961
 7727W        W23861  12.685   5.982   2.482 -0.1973  0.0447  0.2431
 7728W        W23862   2.848  15.773   1.038 -0.0227  0.1110  0.1255
 7729W        W23863   3.732   7.918  10.871  0.1963  0.1995  0.1621
 7730W        W23864   5.944   7.113   5.956 -0.2024 -0.2455 -0.2724
 7731W        W23865  12.636  14.737   3.899  0.0664 -0.2149  0.1273
 7732W        W23866   5.474   2.656  12.388 -0.3194 -0.0204  0.1085
 7733W        W23867   6.161   7.781   1.727 -0.0143  0.1919  0.1324
 7734W        W23868   6.210   9.712   1.235  0.0482  0.2385  0.0897
 7735W        W23869  17.726  18.322  15.284  0.0390 -0.0437 -0.0307
 7736W        W23870   2.620  10.592  10.517  0.0232  0.5159 -0.1697
 7737W        W23871   4.851   9.269   2.406 -0.0108  0.1902 -0.1054
 7738W        W23872   2.562  17.708   3.716 -0.0064  0.0185 -0.3552
 7739W        W23873  16.260  15.046  11.720  0.0682 -0.0082 -0.1182
 7740W        W23874   7.449  13.070   0.557  0.0328  0.1179  0.0331
 7741W        W23875   6.002  14.813  15.889 -0.1078 -0.0262  0.1079
 7742W        W23876   8.020  11.771  13.919  0.0667  0.0541 -0.3521
 7743W        W23877   6.521  14.741   0.852 -0.1593 -0.3055 -0.0304
 7744W        W23878  12.873   4.740   2.372  0.1094 -0.1485 -0.1082
 7745W        W23879   6.411   6.128  13.962  0.0643 -0.2186 -0.0505
 7746W        W23880  14.718  14.452  12.944 -0.1329 -0.0255  0.0237
 7747W        W23881   2.803   2.617   4.318  0.1185  0.0110 -0.0680
 7748W        W23882  10.889   0.380   2.457  0.0520 -0.0158 -0.0143
 7749W        W23883   9.632  12.941   2.496 -0.1291 -0.0844  0.1005
 7750W        W23884  17.726   2.926  11.821 -0.1102 -0.1003 -0.0904
 7751W        W23885  17.885   5.001   0.287  0.1214  0.2613 -0.0191
 7752W        W23886  11.965   9.747   6.100  0.5054  0.1308  0.0842
 7753W        W23887   9.921  15.635  14.362  0.1826  0.0218  0.2782
 7754W        W23888  16.588   9.374   3.369  0.2895  0.2421  0.0977
 7755W        W23889   1.107  16.644  11.556  0.1781 -0.0803  0.1336
 7756W        W23890  13.080  11.354   0.768 -0.0700  0.1025  0.0606
 7757W        W23891   5.838   4.702  15.085  0.1717 -0.0119 -0.0823
 7758W        W23892   1.546   9.572  10.941  0.1118 -0.3100 -0.1373
 7759W        W23893  17.972   0.538  13.650  0.2858  0.2638  0.3040
 7760W        W23894  17.777   6.921   2.502  0.4473 -0.1054 -0.1302
 7761W        W23895   0.067   1.767  11.868 -0.2591  0.2088  0.1692
 7762W        W23896   8.161   2.859   3.071 -0.1850 -0.0961  0.2326
 7763W        W23897   2.449  13.141  14.325 -0.1620 -0.1954  0.1508
 7764W        W23898  12.388   0.522  14.325  0.0198 -0.2098  0.0962
 7765W        W23899   5.181  17.702  11.173 -0.0619  0.0879 -0.2876
 7766W        W23900   0.099  11.922   3.153  0.0394 -0.1154  0.2326
 7767W        W23901  15.344  17.519  12.111 -0.1619  0.3271 -0.0713
 7768W        W23902  11.197   6.742  14.566  0.1081 -0.2183 -0.1226
 7769W        W23903  14.672  13.242   3.729  0.0231 -0.2683 -0.1112
 7770W        W23904  17.271  14.489   2.871  0.2332 -0.1000  0.0229
 7771W        W23905  12.378  14.945  11.704  0.0071  0.0839  0.0654
 7772W        W23906   6.119  13.498  15.607  0.2006 -0.0300  0.3142
 7773W        W23907   2.097   9.570   4.309  0.0595  0.2203  0.0728
 7774W        W23908  15.472  10.007   1.491  0.3051  0.1288 -0.0407
 7775W        W23909   6.393  13.763   4.636 -0.0792  0.0054 -0.1351
 7776W        W23910  12.257   8.174   2.993  0.3176  0.0649 -0.2169
 7777W        W23911  13.606   5.762  13.123  0.3853 -0.0166  0.1725
 7778W        W23912  13.861  15.658   1.520  0.0013 -0.0721 -0.4152
 7779W        W23913  15.945   7.076   0.289 -0.0783  0.1755 -0.3339
 7780W        W23914   4.836  14.391   3.758  0.0047  0.0755 -0.0966
 7781W        W23915  14.898   2.448  10.726 -0.1246  0.0120  0.1179
 7782W        W23916   6.012  16.631  13.014 -0.0796  0.0038  0.0464
 7783W        W23917  15.655   4.265   4.602 -0.1395  0.1153 -0.1532
 7784W        W23918  17.145   2.163  13.068  0.0941  0.3061 -0.2603
 7785W        W23919   0.261   5.319   2.165 -0.0303  0.0620  0.0094
 7786W        W23920  17.066   2.746   4.546  0.0070  0.0778  0.3144
 7787W        W23921  15.432   1.387  13.111 -0.1157  0.2764  0.0371
 7788W        W23922  11.320   3.714  11.234  0.4138  0.3493 -0.0869
 7789W        W23923  15.070  17.094   0.536  0.0804  0.0199  0.0289
 7790W        W23924  12.219   6.558   5.091 -0.3626  0.2754 -0.0721
 7791W        W23925   1.957  18.178  13.070 -0.0758  0.0327 -0.1341
 7792W        W23926   3.003  12.711  11.912  0.3322 -0.1961 -0.0502
 7793W        W23927   0.021  15.454  11.617 -0.4249 -0.0565 -0.0041
 7794W        W23928   9.401   1.470  14.521  0.2680  0.1527 -0.1465
 7795W        W23929  11.593   9.536   1.062 -0.5527 -0.3612 -0.1492
 7796W        W23930  14.570  14.981  15.782 -0.0081 -0.0035  0.1914
 7797W        W23931  14.998  13.135   4.119  0.1176 -0.1248 -0.3282
 7798W        W23932  15.929  17.311  13.097 -0.0641 -0.0666 -0.1893
 7799W        W23933  10.927  12.428  13.691 -0.3431 -0.2605 -0.0707
 7800W        W23934   8.735  15.380  12.719  0.1785 -0.1598 -0.2515
 7801W        W23935  11.913  11.656   0.832 -0.0134 -0.1604  0.0959
 7802W        W23936  18.101   2.201   1.950 -0.0446 -0.1840  0.1116
 7803W        W23937  18.030  10.250  14.680 -0.1396  0.2169 -0.1188
 7804W        W23938  11.368  13.190  14.334 -0.1092 -0.2744  0.0088
 7805W        W23939   1.204  17.555   4.922 -0.1512  0.0871  0.0392
 7806W        W23940  17.574  15.842  12.088 -0.1307 -0.1481 -0.2635
 7807W        W23941   3.536  17.472   6.012  0.1441 -0.0275  0.3377
 7808W        W23942  11.476  10.946  11.321 -0.0167  0.2848 -0.1122
 7809W        W23943   4.445  10.257   3.171 -0.1059 -0.0413  0.0948
 7810W        W23944   1.139  17.591   1.560 -0.1873 -0.3129 -0.1000
 7811W        W23945   7.680   6.710  10.479 -0.1020  0.0781  0.0267
 7812W        W23946  14.755  14.939   5.304 -0.2010 -0.0371 -0.0082
 7813W        W23947   1.532   3.324   4.300  0.1313 -0.4263 -0.0077
 7814W        W23948  17.537   1.630  12.235 -0.1989  0.2789 -0.2256
 7815W        W23949   8.932   6.819  12.625 -0.2067  0.2732 -0.0434
 7816W        W23950   6.349  14.910  14.846  0.0569  0.0428 -0.0471
 7817W        W23951   9.519   2.446  15.250 -0.0926  0.0473  0.1645
 7818W        W23952   1.586   0.445  15.579 -0.0477  0.4103 -0.1697
 7819W        W23953  15.343   8.152  13.406 -0.0224 -0.0559 -0.2494
 7820W        W23954   5.670  11.854  15.724 -0.1198 -0.0194 -0.0128
 7821W        W23955  17.853  10.326   4.296  0.2353 -0.4327  0.1106
 7822W        W23956   7.493   3.479   0.205  0.0032  0.1200  0.3307
 7823W        W23957   4.577   8.939  13.438 -0.1233  0.0031 -0.0818
 7824W        W23958   0.758  15.372  13.374  0.0589 -0.1304  0.0643
 7825W        W23959  14.002  17.111   4.917  0.0530  0.0409 -0.1835
 7826W        W23960   9.605   5.988   2.834 -0.2891 -0.0066 -0.1370
 7827W        W23961   4.592  16.404   3.733  0.2021 -0.1824 -0.1194
 7828W        W23962   8.311  17.276   4.570  0.3166  0.0923  0.1152
 7829W        W23963   3.958  15.774  15.398  0.0420 -0.3137 -0.2359
 7830W        W23964   4.582   7.486   2.939 -0.0947 -0.4929  0.0156
 7831W        W23965   0.954   1.423   0.755  0.0186 -0.0665  0.0103
 7832W        W23966  17.472  12.683  10.925 -0.2079  0.3311  0.2646
 7833W        W23967   1.289  16.416   1.353  0.0472  0.0794  0.0545
 7834W        W23968  12.626  11.729  15.470 -0.0653  0.1772  0.0556
 7835W        W23969  11.826  13.006  13.021 -0.1004 -0.0817 -0.1518
 7836W        W23970   3.560   5.476  11.753  0.1398  0.1466  0.0475
 7837W        W23971   4.514  18.122   2.006 -0.0834 -0.1385  0.0896
 7838W        W23972  14.175  11.528   1.684 -0.1554  0.2675  0.0431
 7839W        W23973   6.799   8.888   1.075 -0.0185 -0.1718 -0.1151
 7840W        W23974   5.491  14.080  12.237  0.1991  0.0072 -0.0546
 7841W        W23975   8.878   6.524  12.191  0.0682  0.1485 -0.0442
 7842W        W23976  16.185  16.111   1.700  0.1791 -0.2086 -0.3764
 7843W        W23977   3.657   2.421  12.854 -0.0217 -0.0781  0.1208
 7844W        W23978   0.120  17.212  13.650 -0.0563 -0.0350 -0.3431
 7845W        W23979   8.069   5.780   4.810  0.2403  0.0255  0.1060
 7846W        W23980   2.850   3.212   2.972 -0.1516  0.0164  0.1009
 7847W        W23981  11.733  17.924  12.935  0.4296 -0.1514 -0.0835
 7848W        W23982  13.750   8.675   3.146  0.3718 -0.0985  0.1350
 7849W        W23983  13.298   2.857  12.556 -0.0794  0.1506  0.2254
 7850W        W23984  11.891   8.053  13.387 -0.0600  0.0835 -0.1530
 7851W        W23985   3.190  13.540  13.988 -0.2000 -0.2083 -0.3497
 7852W        W23986   5.256  13.530   0.783  0.1037  0.0543  0.3015
 7853W        W23987   9.555  11.252  13.694 -0.0222 -0.0524  0.0549
 7854W        W23988   1.471  17.090  12.459  0.0778 -0.1419 -0.1100
 7855W        W23989  17.169   7.266  15.635 -0.0024 -0.0909 -0.1891
 7856W        W23990   7.255   7.372  15.186 -0.2166  0.1855  0.0673
 7857W        W23991   5.802  16.974   1.313 -0.0316  0.3567  0.0363
 7858W        W23992  14.694   6.458   0.056 -0.2331  0.0306 -0.0430
 7859W        W23993  14.375   4.902   1.455 -0.0373 -0.1190 -0.1939
 7860W        W23994   2.378   6.634   4.381 -0.2019  0.1309 -0.1650
 7861W        W23995   4.646   8.374  11.814 -0.0466  0.1842  0.1218
 7862W        W23996   3.731  13.574  11.540  0.0700  0.0521 -0.0986
 7863W        W23997  15.886  15.178   5.137  0.1780 -0.1062  0.1531
 7864W        W23998  13.754  15.825   2.130  0.0125 -0.3248 -0.0023
 7865W        W23999   4.939   0.777   5.220 -0.0769  0.2456 -0.3034
 7866W        W24000   0.667  18.089  14.904 -0.0316  0.0108 -0.2312
 7867W        W24001   2.160  10.884  15.561 -0.1897 -0.1220  0.1449
 7868W        W24002   4.298   0.066   5.418  0.0357 -0.2223 -0.0964
 7869W        W24003   7.855   9.088   4.909  0.1949 -0.3640  0.1795
 7870W        W24004  18.112  12.490  11.817 -0.1712  0.3036 -0.3867
 7871W        W24005  14.782   0.206   1.196  0.0876  0.1526  0.0643
 7872W        W24006  16.300   5.141  11.392 -0.0347  0.0205 -0.0806
 7873W        W24007   3.417  12.969  12.118  0.1451  0.2255 -0.0943
 7874W        W24008   6.269   9.409  15.779  0.3062  0.3975 -0.2765
 7875W        W24009  12.182  15.013   4.756  0.1064  0.2141  0.0052
 7876W        W24010   8.033  15.149  13.456  0.0406  0.0910  0.2542
 7877W        W24011  16.637   7.612   1.103  0.0310 -0.2567 -0.0734
 7878W        W24012  13.106  13.712   4.937  0.2065 -0.3518 -0.1713
 7879W        W24013   2.624  10.325  15.368  0.0289 -0.0418 -0.0564
 7880W        W24014   2.171   9.581  14.974  0.0198  0.1800  0.0850
 7881W        W24015   6.556   3.192  13.135  0.1538 -0.0889 -0.1324
 7882W        W24016  13.590  11.015  12.828  0.0822  0.1181 -0.0932
 7883W        W24017   8.933  14.870   2.719 -0.0444 -0.1488  0.4315
 7884W        W24018  10.065  16.454   0.038 -0.2668  0.1015  0.1995
 7885W        W24019   2.316   0.979   3.114 -0.1395  0.1879  0.1266
 7886W        W24020   8.951   3.861   5.838 -0.1955  0.2093 -0.2938
 7887W        W24021   9.596   8.351   0.892 -0.2023 -0.1865  0.1180
 7888W        W24022  16.585   4.090   1.151  0.1391 -0.1419 -0.0829
 7889W        W24023   0.127   1.611   2.666 -0.3857 -0.1650 -0.2855
 7890W        W24024   2.927   3.984   3.529  0.0908 -0.1801  0.1488
 7891W        W24025  12.038   3.574   5.409  0.4352 -0.1815 -0.1052
 7892W        W24026  16.945  11.006   2.539 -0.1162  0.1109 -0.1509
 7893W        W24027  13.129  14.651   3.950 -0.0831  0.0836  0.3134
 7894W        W24028   2.877  12.110  12.909 -0.2904  0.0357 -0.3844
 7895W        W24029  10.672  10.353   5.943 -0.2137 -0.1848 -0.0810
 7896W        W24030   8.665   4.954  13.158  0.1688  0.1131 -0.1930
 7897W        W24031   9.266  12.914  11.469 -0.4180  0.2340  0.1038
 7898W        W24032  11.175  16.911   3.844 -0.2072  0.4797  0.0120
 7899W        W24033  16.819  16.164  12.706 -0.2874  0.2787 -0.4736
 7900W        W24034  10.337  10.927   5.417 -0.1491 -0.1089 -0.2004
 7901W        W24035  18.367   2.373   4.311 -0.2130  0.1924 -0.0024
 7902W        W24036  18.106  10.073   1.305  0.1504  0.0631  0.1367
 7903W        W24037  13.431   8.213   0.321  0.1776  0.3387  0.3237
 7904W        W24038   3.028   3.895  11.816 -0.0051  0.0391 -0.2019
 7905W        W24039   3.181   8.261   1.017 -0.4452  0.3475  0.0850
 7906W        W24040   3.925   5.081  13.721  0.0741 -0.2683  0.1708
 7907W        W24041   9.978   9.645   4.766 -0.0823  0.2365  0.2136
 7908W        W24042  16.961   9.143  13.081 -0.2094 -0.3572  0.0122
 7909W        W24043  11.431   6.760  11.834  0.1696  0.1438  0.1655
 7910W        W24044   2.575  14.147  13.848 -0.0597 -0.0490  0.2382
 7911W        W24045  12.594  11.556   4.258 -0.1576  0.1818  0.3161
 7912W        W24046   9.899   8.220   4.700 -0.0280  0.3183 -0.1566
 7913W        W24047  18.253  16.383   0.623 -0.1203 -0.2962 -0.0077
 7914W        W24048  18.103   9.105   1.803 -0.0878 -0.0067  0.2503
 7915W        W24049   7.259   8.271  12.801 -0.1508  0.1059  0.0524
 7916W        W24050  15.906  17.125   1.625 -0.0375 -0.0913 -0.3250
 7917W        W24051   8.726  10.846  11.150  0.0123 -0.3688  0.2608
 7918W        W24052   4.785  18.092  11.064  0.2256 -0.2324  0.0004
 7919W        W24053   8.286  17.343   2.440  0.2151 -0.2932 -0.0953
 7920W        W24054   8.047   1.428   0.017 -0.0676  0.0589 -0.0563
 7921W        W24055   8.222   7.561  11.540  0.2010 -0.0787 -0.0224
 7922W        W24056  15.005  11.537  12.338 -0.1964 -0.1106 -0.1069
 7923W        W24057  10.206  11.618  13.203  0.0314  0.1090  0.2220
 7924W        W24058  14.323  12.291   3.932 -0.2106  0.1096 -0.3687
 7925W        W24059   5.011  17.853  11.912 -0.2677  0.1813 -0.4019
 7926W        W24060  16.217   2.534   2.555 -0.1760  0.2117 -0.0240
 7927W        W24061   6.249  12.523   1.549  0.3098  0.0326 -0.0156
 7928W        W24062   1.600  12.081  15.712 -0.1392 -0.2319 -0.3483
 7929W        W24063  10.567   3.229  15.372 -0.0677 -0.0476  0.0946
 7930W        W24064   2.341  11.443  14.407  0.1180 -0.0234  0.1735
 7931W        W24065   4.424   5.488   3.277  0.1314  0.2787 -0.0989
 7932W        W24066  13.635   5.211  12.370  0.1873  0.0769  0.0539
 7933W        W24067  14.840  16.204   2.982  0.0203  0.1074  0.0168
 7934W        W24068   2.880  15.506   1.661  0.0672 -0.4595  0.2899
 7935W        W24069   5.908   9.177  14.241  0.0860  0.2060  0.0611
 7936W        W24070   5.534  16.041  12.113 -0.0419 -0.0256 -0.1399
 7937W        W24071   1.715   7.803  13.952  0.2956 -0.1941  0.1298
 7938W        W24072   6.232   2.630   5.475  0.1269  0.2650 -0.0893
 7939W        W24073  10.515   1.043  12.428 -0.1600  0.1580  0.3655
 7940W        W24074   1.895   5.630   5.153  0.3423  0.2465 -0.0513
 7941W        W24075  10.599   0.344   2.068  0.2102  0.0825  0.1869
 7942W        W24076  15.063   7.837   1.678 -0.0318 -0.0144 -0.1591
 7943W        W24077  10.228  10.474  14.180  0.0808 -0.1079  0.0850
 7944W        W24078  16.642   8.751   1.901 -0.0109 -0.4698  0.0133
 7945W        W24079  10.229  12.606  12.313 -0.1417 -0.0837 -0.3422
 7946W        W24080  18.363   4.146  11.594 -0.1446  0.0255  0.1069
 7947W        W24081  18.370  15.374   2.383 -0.4058  0.2285 -0.0606
 7948W        W24082   4.635   7.185  12.595 -0.1643 -0.2265  0.3309
 7949W        W24083   6.246   3.318   3.266  0.1330 -0.3575  0.0783
 7950W        W24084  10.596  16.335   3.481 -0.2397 -0.2028  0.0716
 7951W        W24085  11.977  10.615  12.135  0.0069 -0.3220  0.1568
 7952W        W24086   7.132  12.004  12.128 -0.3221  0.0952 -0.1822
 7953W        W24087  10.977  13.343  14.571 -0.3100 -0.0045  0.0530
 7954W        W24088   1.978  16.305   2.653  0.1753 -0.0212 -0.0565
 7955W        W24089   9.875  15.144  11.530  0.1900 -0.0161 -0.1697
 7956W        W24090  10.901  12.920  10.740  0.3009  0.0543 -0.2181
 7957W        W24091   0.049   2.933  11.062 -0.1408 -0.0054 -0.0499
 7958W        W24092  16.583   8.910  14.754  0.2574 -0.0332 -0.0933
 7959W        W24093   5.374  13.601   3.965  0.1034  0.2905  0.1337
 7960W        W24094   3.873   3.417   5.525 -0.0686  0.5491  0.1718
 7961W        W24095   0.061  14.137  11.780 -0.0989 -0.3200 -0.0372
 7962W        W24096   5.680  17.243   5.106  0.0580 -0.1074  0.0479
 7963W        W24097  16.408   7.157  12.817  0.2571 -0.2831 -0.1652
 7964W        W24098  15.354   5.301  11.068  0.1721 -0.0453 -0.1752
 7965W        W24099   5.693   1.464   2.744 -0.0871 -0.1445  0.1098
 7966W        W24100   4.985  16.678   5.375  0.2364 -0.0707  0.0777
 7967W        W24101   0.173  15.494   1.415  0.0974 -0.0407 -0.2742
 7968W        W24102   4.642   6.969   1.451 -0.1380  0.2795 -0.0367
 7969W        W24103  10.512   0.332   4.710 -0.1200  0.1689  0.0285
 7970W        W24104   4.911  17.150   0.414  0.0854  0.4245  0.1914
 7971W        W24105   9.042  13.881   5.072  0.0257 -0.0695  0.0245
 7972W        W24106  15.978   5.165   3.619 -0.2051  0.2284 -0.0325
 7973W        W24107  14.869   7.054  12.530  0.1275 -0.0063  0.2215
 7974W        W24108  16.642   0.748   2.755 -0.1521  0.0257  0.2121
 7975W        W24109  11.222   1.485   5.672  0.4879  0.0360 -0.2522
 7976W        W24110  15.906   3.797  11.334  0.2146 -0.1593  0.0940
 7977W        W24111   6.215  10.668  12.017 -0.0075 -0.0656  0.0547
 7978W        W24112   6.646  11.748   3.060 -0.2886 -0.1795  0.2385
 7979W        W24113  17.303   3.795  13.926  0.0858 -0.1874 -0.0859
 7980W        W24114  13.667   3.125   5.007 -0.0677 -0.0736  0.1782
 7981W        W24115  18.149  14.559   3.477 -0.1855 -0.0181 -0.0133
 7982W        W24116  15.160   8.672  13.623 -0.2017 -0.1181 -0.0663
 7983W        W24117   3.337   8.336  15.165  0.1743  0.2428  0.2169
 7984W        W24118  17.305   5.062  11.166  0.0808  0.0927 -0.1964
 7985W        W24119   8.581  11.782   3.678 -0.2651  0.0152  0.1342
 7986W        W24120  10.955  13.042  11.841  0.0185 -0.2696  0.1346
 7987W        W24121  15.433   6.273   5.692 -0.0939  0.1746 -0.3222
 7988W        W24122   9.248  16.057  15.706 -0.2066 -0.1064  0.0044
 7989W        W24123   3.531  11.100  13.303  0.1168  0.1697  0.2320
 7990W        W24124   4.386   2.814   5.795  0.2620 -0.1216  0.3430
 7991W        W24125   6.796   7.020  14.905  0.1013 -0.2580 -0.3059
 7992W        W24126   4.122   4.609  14.026  0.2252  0.0604  0.0035
 7993W        W24127   6.662  16.033   2.206 -0.0467 -0.1216  0.0361
 7994W        W24128  14.250   0.305  13.701  0.1215 -0.1111 -0.0822
 7995W        W24129   8.843  11.235   0.229  0.1076  0.0194 -0.0762
 7996W        W24130  11.240  13.353  11.549 -0.1732 -0.0587  0.1445
 7997W        W24131  12.015   8.788  15.556  0.0791  0.0305 -0.2476
 7998W        W24132  17.219   0.650  12.383  0.1086 -0.0258  0.3223
 7999W        W24133  17.058  16.781  15.603 -0.3885  0.1160  0.1612
 8000W        W24134  14.053  13.768  13.034 -0.1337 -0.2701  0.2087
 8001W        W24135   0.724   8.295   2.539 -0.2577 -0.0281 -0.1205
 8002W        W24136  12.133   9.307   4.656  0.4102  0.0107 -0.0621
 8003W        W24137  16.016   0.303   4.784  0.2004  0.1304 -0.1951
 8004W        W24138   5.249   6.699   1.483  0.0048 -0.0033  0.0285
 8005W        W24139  13.647  15.971   3.654 -0.0079 -0.2397  0.2050
 8006W        W24140   7.175   0.707   1.625  0.1043  0.0111  0.0350
 8007W        W24141   0.625   3.643   1.578 -0.0796  0.0059 -0.3639
 8008W        W24142   2.678  12.054   1.497 -0.0940 -0.3550 -0.3004
 8009W        W24143   9.455   4.761   4.009 -0.2285 -0.3448 -0.1953
 8010W        W24144   3.347  16.839  13.240  0.1115 -0.4433 -0.1793
 8011W        W24145   1.859  17.765  12.782  0.2822  0.1308  0.2102
 8012W        W24146   0.808  15.405  15.598 -0.1421  0.0548 -0.0526
 8013W        W24147  11.463   7.489  13.001  0.0386  0.0128 -0.2361
 8014W        W24148  13.658  16.347  12.255  0.0261  0.1029 -0.1102
 8015W        W24149   3.546   7.055   0.507  0.1090 -0.1161  0.0774
 8016W        W24150   4.402  15.183   3.629  0.0337 -0.2842  0.1967
 8017W        W24151   1.398   1.726  11.794 -0.1910  0.2399 -0.2346
 8018W        W24152   9.874   1.566   5.589 -0.0033  0.0920  0.0506
 8019W        W24153   9.859   6.112  13.052 -0.2305 -0.0734  0.1826
 8020W        W24154  17.354  10.849  14.762  0.0154  0.0538 -0.0732
 8021W        W24155   0.808   9.491   2.048  0.1034 -0.1475  0.1266
 8022W        W24156   3.549   8.312  15.816  0.2492 -0.2029  0.0042
 8023W        W24157  12.204  17.637  12.174 -0.0721  0.1847 -0.1050
 8024W        W24158   0.216   0.900  11.468 -0.1021  0.0556  0.1155
 8025W        W24159   9.764  12.464   1.261 -0.0231  0.0993  0.1416
 8026W        W24160  11.888  10.681   0.622  0.1349 -0.1129  0.2559
 8027W        W24161  12.358   5.273   1.803  0.0037  0.2556  0.2162
 8028W        W24162   3.081  17.259  11.776  0.0103 -0.0801  0.0710
 8029W        W24163  17.743  10.705   1.256  0.1970  0.0115  0.0016
 8030W        W24164   5.179   8.002   0.617  0.0151 -0.2370  0.0382
 8031W        W24165   5.308   7.056  14.454 -0.1640 -0.2157  0.1255
 8032W        W24166  12.031  14.463  12.689 -0.0130 -0.0010 -0.1076
 8033W        W24167   1.790   0.142  11.914  0.0185  0.0773  0.0891
 8034W        W24168   2.955   3.455  11.541  0.2382  0.0089  0.0086
 8035W        W24169   0.077   6.791  13.485 -0.0196  0.2770  0.1384
 8036W        W24170  11.776  14.787   1.201  0.1823 -0.2428 -0.3497
 8037W        W24171   3.819  16.084  12.566 -0.4655  0.1123 -0.0080
 8038W        W24172   4.246   4.584  11.122 -0.0938 -0.0503 -0.0910
 8039W        W24173  17.036  12.914   1.715  0.1172  0.0768  0.2530
 8040W        W24174   5.781  18.007  15.570 -0.1778  0.3825  0.0717
 8041W        W24175   8.655  10.018   4.149 -0.3093 -0.1967 -0.1431
 8042W        W24176   6.685   2.476   4.667  0.1460 -0.0748  0.2790
 8043W        W24177  17.151   0.231  12.755  0.1626  0.0559  0.2587
 8044W        W24178  15.892  12.702   1.486 -0.0547  0.0390  0.1125
 8045W        W24179   2.532  13.761  10.614 -0.1350  0.1844  0.2045
 8046W        W24180   8.598  17.525   1.481  0.0359 -0.2642  0.2722
 8047W        W24181   5.094  10.002   0.899 -0.3854  0.0437 -0.1706
 8048W        W24182   9.979   9.020   3.476 -0.1306  0.0100  0.1047
 8049W        W24183   4.142  13.324   5.929  0.3139  0.0022  0.3221
 8050W        W24184  13.440  17.032  14.338  0.2104 -0.1260 -0.3739
 8051W        W24185  11.400   9.303  15.764  0.3897 -0.2491  0.2371
 8052W        W24186  14.456   0.087   2.828 -0.1419  0.2678 -0.0180
 8053W        W24187  12.436   1.194   1.245  0.0975 -0.5643  0.2160
 8054W        W24188  14.356   7.557   1.257 -0.2769  0.0180 -0.1639
 8055W        W24189   0.740  13.874   4.689 -0.1319 -0.0958  0.1991
 8056W        W24190  18.117   4.660   4.235  0.1209 -0.1087 -0.1992
 8057W        W24191  11.477   3.207  12.162  0.0577  0.0050  0.1657
 8058W        W24192  11.729   8.284   3.881  0.0513 -0.0286  0.1456
 8059W        W24193  15.664   5.152   5.533 -0.0460  0.0081 -0.0230
 8060W        W24194  12.814  18.264   0.459  0.0020 -0.0241  0.2114
 8061W        W24195  11.323   6.467   5.313  0.2982  0.0970 -0.2782
 8062W        W24196   9.966   3.787   2.029  0.1268  0.0714  0.0392
 8063W        W24197   7.367   5.628  11.679 -0.1386 -0.1241  0.0843
 8064W        W24198   8.649   1.085  15.674  0.2635 -0.1192  0.1943
 8065W        W24199   3.129   0.866  13.753 -0.1739  0.1597 -0.1783
 8066W        W24200   0.267  17.237  15.307  0.0903 -0.0577 -0.2932
 8067W        W24201  16.332  12.751  14.839  0.0811 -0.1043 -0.1972
 8068W        W24202   5.837   2.904   5.642  0.1818  0.1358 -0.0435
 8069W        W24203   7.080  14.867   3.904  0.1039  0.2693  0.1955
 8070W        W24204   0.882   6.432  11.596  0.0493 -0.0657 -0.1754
 8071W        W24205   5.727   3.312   1.329 -0.2219 -0.0837  0.1906
 8072W        W24206   5.781   6.938  13.607 -0.1141 -0.0322 -0.0416
 8073W        W24207  14.397  13.782   4.127 -0.0013  0.0544 -0.0021
 8074W        W24208   1.504  17.199   4.523 -0.1282 -0.1090  0.0804
 8075W        W24209   0.640  17.115  11.367 -0.2828 -0.6163  0.0632
 8076W        W24210   5.302   9.164  13.611 -0.5977 -0.2153  0.0055
 8077W        W24211   1.455   3.072  14.217 -0.0271  0.2224 -0.1317
 8078W        W24212  16.631  17.859   1.856  0.0975 -0.2590  0.0994
 8079W        W24213  10.105   0.042  11.956  0.0009  0.1408 -0.1507
 8080W        W24214  16.556   9.885  15.789 -0.0801 -0.4924  0.0507
 8081W        W24215  13.801  13.077   2.901 -0.0034  0.0134  0.0265
 8082W        W24216   3.390   4.399   1.834 -0.1303 -0.1762  0.0193
 8083W        W24217   9.223   9.523  14.276 -0.4344  0.0603 -0.4762
 8084W        W24218  11.119   7.500   4.083 -0.1711 -0.3249  0.2025
 8085W        W24219   3.882  17.858   0.127 -0.0187  0.0771  0.0417
 8086W        W24220  12.511   8.150   5.107  0.0064  0.0401  0.2426
 8087W        W24221  13.879  16.570   2.884 -0.3860 -0.0582  0.1119
 8088W        W24222   4.413   4.283  12.366  0.0944 -0.3131 -0.0823
 8089W        W24223  15.005   5.720  12.601 -0.4382  0.1154  0.1796
 8090W        W24224   4.855   2.599   2.760  0.3178  0.0029 -0.1130
 8091W        W24225  15.474  16.730  11.946 -0.2607  0.5396 -0.1309
 8092W        W24226  12.172  16.734  13.719 -0.0655 -0.0130  0.1381
 8093W        W24227  17.017   0.432   4.608 -0.0603  0.0890 -0.1107
 8094W        W24228  18.306  17.563  12.670 -0.0226 -0.4576  0.1166
 8095W        W24229  18.114   5.355  13.191  0.3867 -0.1139  0.0296
 8096W        W24230  11.472  18.285   0.590 -0.2345 -0.2024 -0.1352
 8097W        W24231  11.954   8.588   3.021  0.0136 -0.2567 -0.0944
 8098W        W24232   0.523   5.549  11.575  0.3779 -0.0762 -0.1174
 8099W        W24233   2.404  13.808   4.637  0.1131  0.2084  0.3690
 8100W        W24234   9.796   6.938   0.032 -0.0985 -0.5023  0.0150
 8101W        W24235   2.479  13.690   5.177 -0.0386 -0.1029 -0.0844
 8102W        W24236  12.212  11.888  15.812 -0.0628  0.0157 -0.0712
 8103W        W24237  15.279   2.474   3.870 -0.0972 -0.1864 -0.2092
 8104W        W24238   8.803  18.131  13.931  0.1444 -0.0245 -0.1564
 8105W        W24239  15.203  16.719   4.480 -0.1602 -0.4217  0.0170
 8106W        W24240  17.210   5.798  10.797  0.0220 -0.0008 -0.0248
 8107W        W24241  12.896   6.723  14.559  0.0419 -0.1839  0.0967
 8108W        W24242   2.263   1.626  15.482 -0.1271 -0.1437  0.0679
 8109W        W24243   4.677  12.743  15.832  0.0389 -0.3700  0.1228
 8110W        W24244  17.933   8.751  15.901 -0.2797 -0.1401  0.0695
 8111W        W24245   1.881  13.570   3.907 -0.3806  0.5224 -0.0202
 8112W        W24246   4.679   6.463   1.405 -0.0249 -0.1284  0.0231
 8113W        W24247  17.999  11.347   5.474 -0.0039 -0.0853  0.0210
 8114W        W24248   2.826  18.099  12.964 -0.0359 -0.1840  0.1366
 8115W        W24249  16.757   0.475  14.432 -0.0039 -0.0241  0.1497
 8116W        W24250   5.051   5.934   3.818 -0.0380  0.0422  0.2778
 8117W        W24251   9.479  12.073   0.413  0.1755  0.1403 -0.0034
 8118W        W24252  16.746   4.161   2.603 -0.1480  0.2173 -0.0454
 8119W        W24253  16.499   3.715   2.429 -0.2953 -0.0198 -0.1106
 8120W        W24254  17.664  13.846   3.580  0.5267 -0.4247  0.2952
 8121W        W24255  13.408  13.034  11.022  0.1373  0.4065  0.1306
 8122W        W24256  17.211   2.904   2.817  0.1919  0.4031  0.2756
 8123W        W24257  12.084   8.172   0.796  0.0168 -0.3994  0.0423
 8124W        W24258   2.859   6.492  10.708 -0.1254 -0.0706 -0.0174
 8125W        W24259  17.226  15.042  11.519 -0.0034  0.1801 -0.2847
 8126W        W24260   2.590   2.266   5.273 -0.1155 -0.0011 -0.2373
 8127W        W24261  10.549  13.543   1.737  0.2260 -0.0809  0.0764
 8128W        W24262  13.309  10.263  12.444 -0.0193  0.3606 -0.0454
 8129W        W24263   8.521  10.718   9.656  0.0263 -0.3245 -0.0325
 8130W        W24264   2.554  13.436   3.817  0.0084 -0.0581  0.0790
 8131W        W24265  11.484  11.119  14.328 -0.0214 -0.0275  0.2265
 8132W        W24266   6.913   9.114  14.434 -0.0280 -0.0230 -0.3458
 8133W        W24267  10.230   1.250   2.104  0.0097 -0.0317  0.0232
 8134W        W24268  10.807  16.758   4.446 -0.1150 -0.0398 -0.0021
 8135W        W24269  12.556  18.248  13.254 -0.0552  0.1540 -0.4656
 8136W        W24270  17.371  15.093  13.935  0.0672  0.4689  0.2147
 8137W        W24271   8.334   6.117   2.067  0.3325 -0.0597  0.0709
 8138W        W24272   5.004  14.529   5.572 -0.0602 -0.2152  0.0441
 8139W        W24273   6.710   8.852   2.875 -0.1107 -0.1274 -0.0415
 8140W        W24274  14.362   6.219  13.206  0.3964 -0.0915 -0.2698
 8141W        W24275  16.122   8.979   2.655  0.1112  0.0102  0.2234
 8142W        W24276  12.628  13.180  13.809 -0.2387 -0.0413 -0.1598
 8143W        W24277   3.780   7.039   1.429  0.1270  0.1030 -0.0299
 8144W        W24278   2.224  15.384   2.097  0.0858  0.0635 -0.2441
 8145W        W24279   9.178  15.297  15.474  0.0784 -0.2041  0.1028
 8146W        W24280  17.210   1.528   1.491 -0.1934  0.3173 -0.1643
 8147W        W24281  14.109  16.738  13.103 -0.0797 -0.0828  0.0484
 8148W        W24282   5.538  14.417  14.833  0.0984  0.1080 -0.2307
 8149W        W24283   5.333  14.202  13.257 -0.0015 -0.1205 -0.0427
 8150W        W24284   1.762  14.560  11.871 -0.0535  0.1744 -0.2197
 8151W        W24285  13.973   7.389  14.932 -0.0635 -0.2039 -0.0500
 8152W        W24286   4.754   7.060   4.676  0.1484  0.0965  0.1741
 8153W        W24287   2.905   6.822   4.485  0.1539 -0.2065 -0.0141
 8154W        W24288   6.952  13.271   0.761 -0.3296 -0.2594  0.2240
 8155W        W24289  17.898  10.948   3.417  0.4196 -0.1633 -0.0053
 8156W        W24290   9.767   8.176   0.431  0.1414 -0.0739  0.1584
 8157W        W24291  15.256   3.010   5.214  0.0336  0.0924  0.5561
 8158W        W24292   4.244   0.597   1.985 -0.0388 -0.0584  0.0179
 8159W        W24293   3.362  14.630  14.707 -0.0457 -0.1099  0.1304
 8160W        W24294   8.794  15.651  15.573  0.1343  0.0786 -0.2723
 8161W        W24295   4.961  14.697   3.424  0.0873 -0.0895 -0.2027
 8162W        W24296  18.066   1.054  11.454 -0.0448  0.2333 -0.0057
 8163W        W24297  10.191   7.554  14.495 -0.0757 -0.2383 -0.0460
 8164W        W24298  13.257   8.479   1.858  0.2379 -0.1034  0.1624
 8165W        W24299  16.175   7.776   5.128  0.0026 -0.0217  0.1545
 8166W        W24300  11.897  13.136  14.312  0.1350 -0.0892 -0.1145
 8167W        W24301   8.283   7.039   4.242 -0.0583  0.0397  0.3957
 8168W        W24302  15.232  11.914  13.427  0.0677  0.0383  0.1710
 8169W        W24303   0.102   2.807   2.103  0.2881  0.0848  0.1550
 8170W        W24304  14.716  10.110  12.973  0.0125  0.0241  0.3963
 8171W        W24305   1.286  15.425   3.967 -0.1968 -0.2129  0.0039
 8172W        W24306   3.294   0.589   2.385  0.1495  0.1089 -0.1718
 8173W        W24307  15.663  15.448   0.227 -0.1645  0.0357  0.3467
 8174W        W24308  12.093  17.076   4.829  0.2064 -0.1334  0.1130
 8175W        W24309  17.094   8.024   2.066  0.2463 -0.0235  0.3509
 8176W        W24310   3.953  14.637  14.787 -0.0105 -0.0921  0.1340
 8177W        W24311  16.259   5.666  11.266  0.0316 -0.4145  0.4458
 8178W        W24312   5.779   8.025  14.933 -0.1399  0.0457 -0.1682
 8179W        W24313  16.852   4.287   3.889 -0.0709 -0.0359 -0.0811
 8180W        W24314  10.440  11.934  15.476  0.1713  0.0586 -0.0608
 8181W        W24315  14.678   0.816   1.618  0.0831 -0.0354 -0.0924
 8182W        W24316   2.940  18.331   0.448 -0.2114 -0.3156 -0.2290
 8183W        W24317   4.852   3.089   1.841 -0.1087  0.0493 -0.0897
 8184W        W24318  14.757  16.001  13.016  0.1392 -0.2837 -0.0555
 8185W        W24319   1.831  16.425  13.562  0.3669 -0.1245  0.1715
 8186W        W24320   4.210   0.439   2.853 -0.0214  0.1045 -0.1264
 8187W        W24321   3.151   8.812   1.938  0.2018 -0.1635 -0.1867
 8188W        W24322   1.501   4.190   2.627 -0.0214  0.0257 -0.1328
 8189W        W24323   7.226  11.207   0.487 -0.2032 -0.0260 -0.1087
 8190W        W24324   9.572   1.029   1.514 -0.2803  0.0385 -0.0839
 8191W        W24325  11.693   1.890  12.389 -0.0665 -0.2596  0.0772
 8192W        W24326   8.686  10.691   4.160 -0.0032  0.1401  0.0832
 8193W        W24327  10.429  16.828   3.793 -0.0099  0.1800  0.0149
 8194W        W24328   0.539   9.610  14.667 -0.2474  0.0224  0.1100
 8195W        W24329   0.044   4.913  12.212 -0.1268 -0.0132 -0.1095
 8196W        W24330   1.346  12.728   4.360 -0.1701 -0.2840  0.3622
 8197W        W24331  10.693  11.771  11.968  0.3851 -0.1662 -0.1313
 8198W        W24332   1.272  16.100  13.196  0.0037 -0.0729 -0.0025
 8199W        W24333   7.836   4.398   4.601  0.0595 -0.1212 -0.2137
 8200W        W24334   1.105   7.480   3.248  0.0316  0.2138  0.0758
 8201W        W24335  15.610   3.196   2.762 -0.0059 -0.5288 -0.1669
 8202W        W24336   7.868  10.727  11.093  0.1243 -0.3438 -0.0185
 8203W        W24337  18.216  16.881  13.251  0.0018 -0.1952 -0.1466
 8204W        W24338  11.001   4.360  14.259  0.6242 -0.0733 -0.2809
 8205W        W24339   6.489   5.936   0.468 -0.1365  0.2156  0.0889
 8206W        W24340   0.244  16.948  12.589  0.0239  0.0400 -0.0988
 8207W        W24341  11.916  13.416   4.899  0.1698 -0.3239  0.1411
 8208W        W24342   3.819  17.398  12.547 -0.1857  0.1384  0.1141
 8209W        W24343   9.251  17.815  12.232  0.1519  0.4451  0.1197
 8210W        W24344  14.594   7.357  14.587 -0.0826  0.2147  0.1830
 8211W        W24345   8.515   1.631   4.148  0.0811  0.1835 -0.2727
 8212W        W24346   9.238  10.121   1.367 -0.0458  0.1638 -0.1554
 8213W        W24347   6.894   2.502  11.849 -0.0290  0.0121  0.0882
 8214W        W24348   2.190   8.044  11.831  0.0431 -0.0091  0.0440
 8215W        W24349   4.243   4.789   5.321  0.0137 -0.1929  0.4661
 8216W        W24350  12.189   5.066  15.609  0.0331 -0.0006  0.0485
 8217W        W24351   8.202   6.589  15.590  0.1728  0.0675 -0.0702
 8218W        W24352   0.139   2.784   3.503 -0.1253 -0.1413  0.3954
 8219W        W24353  10.012   6.210   1.003  0.0169  0.0122 -0.0895
 8220W        W24354   9.146   6.825   2.138  0.0126 -0.2159  0.2621
 8221W        W24355   7.154  17.109  12.971  0.2323  0.5097  0.0682
 8222W        W24356   4.779   0.017  13.169  0.2440 -0.1910  0.0357
 8223W        W24357  10.514  10.936  13.185 -0.1495  0.0193 -0.0985
 8224W        W24358  17.903   9.435   2.092 -0.0009 -0.4197  0.0708
 8225W        W24359  14.675  14.934  14.576 -0.3042 -0.1124 -0.0490
 8226W        W24360   7.376  16.454  15.822  0.2639 -0.2263  0.2315
 8227W        W24361   4.017  11.747   0.718 -0.0601  0.2784  0.0362
 8228W        W24362   5.915   0.503  12.090 -0.3680  0.1273 -0.1592
 8229W        W24363  13.524  15.512  15.337  0.0778  0.1999 -0.1083
 8230W        W24364   6.217  12.638   4.523 -0.1950 -0.3289 -0.1706
 8231W        W24365  13.663   3.833   0.556  0.1331  0.1973  0.1736
 8232W        W24366  14.324  13.353  15.835 -0.2398  0.1308  0.1503
 8233W        W24367  17.779  15.806  15.099 -0.0680 -0.1951 -0.1393
 8234W        W24368  15.475  16.935  12.972  0.0272  0.0499  0.1092
 8235W        W24369   3.717  13.314  13.609 -0.2468 -0.1609  0.0244
 8236W        W24370  17.795   4.796   9.850  0.1417  0.0607  0.3540
 8237W        W24371   6.669   4.259   1.873  0.3458  0.0528 -0.2011
 8238W        W24372   2.480   2.588  15.809 -0.0270 -0.0324 -0.1114
 8239W        W24373   7.318   9.281  12.885 -0.0792  0.1904 -0.1368
 8240W        W24374   0.600   2.759  15.195  0.0066 -0.1767  0.1677
 8241W        W24375   0.297   0.230   1.500  0.0190 -0.1261 -0.0938
 8242W        W24376   7.361  15.470  11.479 -0.0472  0.0976  0.2295
 8243W        W24377  13.015   7.963   0.398 -0.1773  0.2375 -0.0344
 8244W        W24378  14.131   7.386  12.763  0.3038  0.2316 -0.0810
 8245W        W24379  13.841   0.503  12.182 -0.1697  0.2132 -0.1619
 8246W        W24380   9.827  14.344   4.873  0.1748  0.1805 -0.1402
 8247W        W24381  17.408  17.997   1.995 -0.2137  0.2684  0.0463
 8248W        W24382   7.576  15.740   4.937  0.0760  0.0462 -0.0585
 8249W        W24383  11.634   3.830   5.464 -0.3843  0.0418 -0.1168
 8250W        W24384   1.529   4.494  11.410  0.0516  0.1002  0.1939
 8251W        W24385   5.951   3.353  12.126  0.0907 -0.0269  0.0905
 8252W        W24386   1.955   9.261  15.364  0.1544 -0.0759  0.0723
 8253W        W24387  17.340   3.436  13.122 -0.1323  0.1294  0.0319
 8254W        W24388  16.762   9.340   4.147 -0.1799  0.0538  0.1923
 8255W        W24389   0.900   1.968   1.608  0.1656  0.0700  0.0944
 8256W        W24390  13.526   4.620   1.615 -0.1385 -0.0862  0.1320
 8257W        W24391  15.060   8.257   3.225  0.1974  0.1178  0.2570
 8258W        W24392  11.570   4.422   3.231  0.3312  0.0473 -0.1539
 8259W        W24393  13.509   1.566  12.959 -0.0257 -0.2379 -0.2155
 8260W        W24394  14.921   3.375  12.054  0.1002 -0.3487  0.1279
 8261W        W24395   0.550  12.210  15.674  0.1137 -0.1386 -0.3445
 8262W        W24396  13.157  15.163   0.820  0.0021  0.3371 -0.1309
 8263W        W24397   7.136   6.752  13.411  0.1283 -0.1173 -0.0397
 8264W        W24398   4.312   9.911  10.126 -0.0355 -0.1676 -0.0135
 8265W        W24399   2.003  13.369   1.466  0.1991 -0.0951  0.3348
 8266W        W24400  14.696  11.209   2.687 -0.0630  0.0560 -0.2105
 8267W        W24401  13.456   5.410  14.245  0.3072 -0.0248 -0.0816
 8268W        W24402   4.386  16.896   1.704 -0.2502  0.1064  0.0385
 8269W        W24403   0.122   2.803   1.480 -0.0418  0.2918  0.3101
 8270W        W24404  17.431  15.374   3.478  0.2845 -0.2931 -0.0447
 8271W        W24405   6.141   4.843   1.566 -0.1129  0.3692  0.3096
 8272W        W24406   8.007  15.021   5.483  0.2464  0.1543 -0.0732
 8273W        W24407   3.125   2.642  12.226 -0.0906  0.0584 -0.0377
 8274W        W24408  16.841  13.586   1.351  0.0691 -0.3694  0.2774
 8275W        W24409  13.144   9.697   1.981  0.4327  0.2385 -0.1146
 8276W        W24410   0.112   6.857  15.735  0.0750  0.1828  0.0269
 8277W        W24411   7.456   7.594   0.441 -0.1595  0.0094 -0.2397
 8278W        W24412   7.193  15.634  14.882  0.1620  0.1441 -0.0643
 8279W        W24413  16.857   5.354  15.836 -0.0597 -0.1183 -0.1419
 8280W        W24414   7.921   6.676   1.601 -0.1121 -0.0331  0.0276
 8281W        W24415   9.772  14.995   2.070  0.0789  0.0904 -0.0372
 8282W        W24416   6.654   7.097   3.329 -0.0813 -0.0629 -0.2489
 8283W        W24417   8.894   3.731  12.623 -0.0880 -0.1340 -0.2239
 8284W        W24418   7.903   7.708  14.409  0.0661  0.1377 -0.2464
 8285W        W24419  12.735   3.806  11.647  0.0551 -0.1532  0.0986
 8286W        W24420  15.182   2.551   0.930 -0.3709  0.0880  0.0012
 8287W        W24421  14.641  12.016   3.550  0.1274 -0.2061  0.0746
 8288W        W24422  13.142   8.133   3.168 -0.0612 -0.0713 -0.0835
 8289W        W24423  13.528  12.544  14.740 -0.2187  0.3253  0.0617
 8290W        W24424   7.946  15.101  15.669  0.0358  0.2450  0.0408
 8291W        W24425  13.342  13.809  15.073  0.1624  0.1877 -0.1605
 8292W        W24426  18.033  10.004   1.927 -0.3832  0.1287 -0.0088
 8293W        W24427   0.075  11.795  14.419  0.0385  0.3500  0.0407
 8294W        W24428   7.725  15.726  11.654  0.1628  0.0605 -0.3420
 8295W        W24429   7.567  10.582  14.058 -0.2327  0.1609 -0.0449
 8296W        W24430   1.824  11.078   5.342  0.0126  0.2628 -0.1488
 8297W        W24431   3.905  16.255  12.106 -0.0114 -0.0865  0.1163
 8298W        W24432  11.417   7.257  14.593 -0.1437  0.2997 -0.0584
 8299W        W24433   7.348  13.359  12.062  0.2302  0.0864  0.1956
 8300W        W24434   9.294   8.959  14.490 -0.2943 -0.1302 -0.1686
 8301W        W24435   7.271   8.491  14.908 -0.0541  0.2339  0.3361
 8302W        W24436  14.277   6.831   1.883  0.3419  0.1920  0.1596
 8303W        W24437   4.244  14.321   2.199 -0.1126  0.4101  0.1069
 8304W        W24438   7.605   2.818  12.928 -0.0068 -0.0292  0.1287
 8305W        W24439  10.521   8.346   2.367  0.2218  0.1101 -0.3245
 8306W        W24440  14.539  10.641  14.293  0.0946  0.1762  0.1167
 8307W        W24441   3.902   6.361  11.684 -0.2819  0.1104  0.0661
 8308W        W24442   2.545   7.128   4.675 -0.1346 -0.0331 -0.0140
 8309W        W24443   7.725  17.861   1.871 -0.0623  0.0863  0.4452
 8310W        W24444  13.858  13.098   1.579  0.2399 -0.1430 -0.0529
 8311W        W24445  17.800   9.307   5.347  0.1543  0.0322 -0.1024
 8312W        W24446   9.817   9.296   2.320 -0.0974  0.0866  0.0460
 8313W        W24447   2.452   5.758   1.617 -0.0861  0.1127 -0.0431
 8314W        W24448  15.276  11.715  10.389 -0.0619  0.0306  0.2303
 8315W        W24449   5.108  11.086   3.423  0.0771  0.2314  0.0053
 8316W        W24450   7.205   4.829   0.595 -0.5506 -0.3043 -0.1004
 8317W        W24451   6.244   6.403   0.368  0.0143  0.0826  0.2710
 8318W        W24452   4.431  14.872   0.559  0.1351  0.1280 -0.1058
 8319W        W24453   7.241   0.721   3.440 -0.3560  0.1010  0.1608
 8320W        W24454   0.371   4.354  11.315  0.1764  0.0353 -0.0413
 8321W        W24455   8.763   7.474  14.595  0.1113  0.3149  0.2235
 8322W        W24456  10.032   5.957  11.353  0.0834 -0.0890  0.1622
 8323W        W24457   2.519  10.218   0.307 -0.1481 -0.1608 -0.0173
 8324W        W24458   9.732  13.068  11.033  0.0405  0.3064  0.1619
 8325W        W24459   1.207  15.898   4.103 -0.1382  0.1508  0.1331
 8326W        W24460   7.509   1.054   2.916 -0.1111  0.0738  0.0699
 8327W        W24461   1.845   5.674   1.559  0.0023  0.2370 -0.1614
 8328W        W24462  11.277   5.163  11.753 -0.4108  0.0512 -0.3700
 8329W        W24463   7.035   9.297   4.634  0.0803 -0.0494 -0.2010
 8330W        W24464   7.355  17.939  13.388  0.3373  0.1308  0.0200
 8331W        W24465  17.074   0.798   2.469  0.1258  0.1266  0.0371
 8332W        W24466   9.258  11.243  14.223  0.1116  0.1204  0.0071
 8333W        W24467  12.365   6.762  10.154 -0.0747 -0.1082  0.0388
 8334W        W24468   0.016  16.666   1.126  0.0665  0.1630 -0.1478
 8335W        W24469  13.081  11.597  11.118  0.1314 -0.1352 -0.2824
 8336W        W24470   8.534  10.938   3.734 -0.3748  0.0617 -0.0852
 8337W        W24471   9.862   7.469   4.032 -0.3082 -0.1570 -0.0468
 8338W        W24472   1.737  13.263   2.635 -0.1269  0.0597  0.0472
 8339W        W24473   7.519  14.110  14.310  0.2332  0.1791  0.0125
 8340W        W24474  13.403  12.281   5.619 -0.2872 -0.3190  0.0966
 8341W        W24475   7.347   2.907   4.117  0.2953  0.0590  0.0510
 8342W        W24476   9.614   6.786  10.642  0.1209 -0.1297 -0.0623
 8343W        W24477  18.111   8.951  11.707 -0.0648  0.3322  0.1609
 8344W        W24478  10.541   0.875   1.209 -0.0922 -0.1071  0.1652
 8345W        W24479   6.034   5.506   4.580  0.1931 -0.1696  0.1917
 8346W        W24480  18.325  12.801   4.071  0.1437 -0.1735  0.1060
 8347W        W24481   0.804   3.492   2.986  0.1061  0.1852 -0.0604
 8348W        W24482   2.491   9.449   2.336  0.0269  0.0883  0.2781
 8349W        W24483   4.854   0.030  13.638 -0.0225 -0.0192 -0.1136
 8350W        W24484   2.479   5.687   1.142  0.3852  0.1866  0.0232
 8351W        W24485   9.668  18.046   1.659  0.0346  0.0723 -0.0651
 8352W        W24486   9.028  10.017  13.641  0.1542  0.0064  0.0111
 8353W        W24487   0.245   6.337   3.620  0.0896  0.1270 -0.0513
 8354W        W24488  15.443   4.751  13.086 -0.1181 -0.2866 -0.4921
 8355W        W24489  14.782   3.835   0.759  0.1254  0.2849 -0.2434
 8356W        W24490   6.275   8.372  11.903 -0.1421  0.0259  0.0997
 8357W        W24491   1.729  15.085  13.118  0.2542  0.1720  0.2115
 8358W        W24492   5.055   7.525   1.985 -0.2535 -0.0866 -0.0937
 8359W        W24493   2.392  18.152   2.217  0.1963 -0.2398 -0.0834
 8360W        W24494  15.785   2.294   4.806  0.1208  0.1255  0.1844
 8361W        W24495   2.887  10.451  14.486  0.2746  0.2269 -0.1349
 8362W        W24496  14.299   0.114  11.144  0.1287  0.0882 -0.0060
 8363W        W24497   9.172   3.831  14.851 -0.2651  0.0682  0.0936
 8364W        W24498  10.256   6.702   3.587  0.2045  0.0679  0.3468
 8365W        W24499   4.587  16.453   4.223  0.0333 -0.0391 -0.3716
 8366W        W24500   7.648   2.191  11.168 -0.1067 -0.3107 -0.0819
 8367W        W24501  17.621  17.322  14.203 -0.2761 -0.0127  0.2862
 8368W        W24502  15.779  10.408  13.926 -0.2117  0.0314  0.4015
 8369W        W24503   7.731   0.185   3.382  0.1811  0.1332  0.1501
 8370W        W24504  16.642  12.722   2.049 -0.3633 -0.1738  0.3107
 8371W        W24505  16.343   3.919  11.456 -0.1948  0.0804  0.1280
 8372W        W24506  17.041   3.653  13.482 -0.0323 -0.3682 -0.0453
 8373W        W24507  14.979   5.238  10.674 -0.1677 -0.0380  0.1100
 8374W        W24508   4.991   9.868  11.897  0.1450  0.1977  0.0332
 8375W        W24509  16.654  16.947   3.358 -0.0980 -0.0643  0.1986
 8376W        W24510  15.338   7.604   1.357 -0.0783  0.0864  0.0696
 8377W        W24511  14.958  16.069   0.776 -0.2908 -0.0784 -0.2188
 8378W        W24512  16.017   8.299  14.977  0.1069 -0.0086 -0.1459
 8379W        W24513  11.103  14.870   5.889 -0.1956  0.1905  0.0097
 8380W        W24514   0.691  12.701   0.715  0.0597  0.2214  0.0957
 8381W        W24515  15.761   4.634   2.745 -0.0600  0.2480 -0.3210
 8382W        W24516  15.627  18.417  11.491 -0.0939 -0.1217 -0.5581
 8383W        W24517  15.572  18.154   3.481  0.1092 -0.0892  0.0708
 8384W        W24518  11.131   7.880  10.262  0.3066  0.0681 -0.1787
 8385W        W24519  15.454   0.419   2.379 -0.0913 -0.0498  0.1815
 8386W        W24520   1.321   0.673  15.169 -0.0089  0.3724 -0.0220
 8387W        W24521   0.637   4.912   4.298  0.1100  0.0974 -0.1064
 8388W        W24522   0.877   0.510   4.030 -0.0186  0.2173  0.0086
 8389W        W24523   7.391   8.898   2.207 -0.0972 -0.1843  0.0202
 8390W        W24524   3.595   7.953  13.278  0.1689  0.1838  0.5111
 8391W        W24525   9.613   8.824   5.215  0.0745 -0.1441  0.3713
 8392W        W24526   4.117  11.906  14.642 -0.2036  0.0627  0.0654
 8393W        W24527   6.830  18.161  12.157 -0.1527  0.1063 -0.1029
 8394W        W24528  11.939   6.931   0.905  0.1620 -0.2179  0.2521
 8395W        W24529   7.510  15.089  14.103 -0.0212 -0.3045 -0.0040
 8396W        W24530  10.808   9.541   3.759 -0.1218 -0.0390  0.4170
 8397W        W24531   8.346  15.636  13.585  0.0376  0.0580  0.3212
 8398W        W24532  10.807   2.611   2.249  0.0928 -0.2733 -0.0659
 8399W        W24533  18.335   6.495   3.307  0.2240 -0.1683 -0.3483
 8400W        W24534   4.794  15.696   5.710  0.1293 -0.0041 -0.1208
 8401W        W24535  12.341  12.862  11.647  0.0437 -0.0484 -0.0831
 8402W        W24536  15.189   0.642   2.697  0.1872  0.2296 -0.1936
 8403W        W24537  17.518   9.680   0.034  0.3475  0.0868 -0.0653
 8404W        W24538  11.207  12.203   1.597  0.2318 -0.2157  0.1162
 8405W        W24539  16.482   2.710  13.666 -0.0446 -0.0824 -0.2214
 8406W        W24540   9.279   6.438  12.530  0.0618 -0.1372  0.3303
 8407W        W24541   6.099  17.998  14.110  0.0681  0.0972  0.0750
 8408W        W24542   9.957   2.644   3.391  0.1566  0.0894 -0.1227
 8409W        W24543   7.947  15.911   3.337  0.1537  0.1586  0.1887
 8410W        W24544  12.651  12.391  15.186  0.1205  0.0826  0.0676
 8411W        W24545  14.946   3.809  13.436  0.0737  0.2082  0.2339
 8412W        W24546   6.005   9.079  15.536  0.0407  0.1971  0.0418
 8413W        W24547  14.537   6.417  15.478  0.0702 -0.3545 -0.2571
 8414W        W24548  12.216   3.338   2.241 -0.1704  0.2254  0.1241
 8415W        W24549   6.880   3.194  10.696 -0.0984  0.2362  0.0489
 8416W        W24550  16.478   9.291  14.402  0.1159  0.3411  0.2499
 8417W        W24551   5.737  13.972  13.008  0.1407  0.0123 -0.0045
 8418W        W24552   7.554  15.084  11.086  0.0340  0.1780 -0.0425
 8419W        W24553  13.150  10.624   1.672 -0.1557 -0.0936 -0.1322
 8420W        W24554  16.411   0.547  11.233  0.0619 -0.1177  0.0432
 8421W        W24555  15.070  18.017   3.780  0.3729 -0.1020  0.1682
 8422W        W24556   4.622  10.617  11.308  0.0022 -0.0599 -0.2678
 8423W        W24557   2.483  10.637  14.000 -0.2528 -0.1776 -0.1642
 8424W        W24558   3.069  17.882   0.270  0.1522 -0.0930 -0.0269
 8425W        W24559  16.411  12.712   3.892 -0.4885 -0.1048 -0.0022
 8426W        W24560  13.397   4.142   0.887  0.0908  0.0168  0.0730
 8427W        W24561  16.479  12.346  13.189 -0.2186  0.2236  0.0482
 8428W        W24562  15.749   5.077  12.862  0.1407 -0.2836  0.3828
 8429W        W24563  14.076  14.805   4.813  0.3273  0.1762  0.4119
 8430W        W24564  18.172  11.392  12.542  0.1537  0.0263  0.0855
 8431W        W24565  10.327  10.433   2.351  0.2132 -0.0867  0.0331
 8432W        W24566   4.105   8.906   1.889  0.2600  0.1618  0.3958
 8433W        W24567  11.946  17.859  11.531 -0.1417 -0.2487  0.1582
 8434W        W24568  11.480  14.064   3.579 -0.1526  0.3829 -0.3901
 8435W        W24569  13.965   8.786  15.313  0.3930 -0.0068  0.1441
 8436W        W24570  14.192  15.280  15.833 -0.0648 -0.0319  0.0226
 8437W        W24571   4.508   1.697  14.560  0.1410 -0.2913  0.1167
 8438W        W24572  12.514   8.891  14.918 -0.4467 -0.1432  0.2212
 8439W        W24573  18.451   3.786  15.743  0.1431  0.0585 -0.1964
 8440W        W24574   8.847  18.281   2.249 -0.1627 -0.1388 -0.3354
 8441W        W24575   6.102  18.047   3.772 -0.0911  0.2201 -0.1471
 8442W        W24576   6.371   5.234   4.803 -0.1520 -0.0605 -0.1009
 8443W        W24577   2.682   1.316   3.738  0.0999 -0.2835  0.0387
 8444W        W24578  12.938  10.692   4.223 -0.0700 -0.0092 -0.1796
 8445W        W24579  11.844   0.652   1.331  0.1145 -0.1877 -0.0738
 8446W        W24580   4.329  14.487   4.885 -0.1996 -0.3798 -0.3267
 8447W        W24581   4.617   1.625   4.001 -0.1618 -0.0170 -0.0590
 8448W        W24582   3.611  14.686   1.268  0.1490  0.0218  0.1896
 8449W        W24583   8.644   8.346   5.313  0.1089  0.1365 -0.0361
 8450W        W24584  10.021   0.534  11.664  0.1153  0.3446  0.0638
 8451W        W24585   6.123   4.609   0.707  0.1590 -0.1894 -0.0821
 8452W        W24586  13.047   8.128   4.992  0.1546 -0.0475  0.2497
 8453W        W24587  10.723   9.074   1.929 -0.0171 -0.0965  0.2093
 8454W        W24588   5.741   6.885  14.143  0.0643  0.0906 -0.0171
 8455W        W24589   3.135  16.659  12.273  0.1980 -0.1173  0.2162
 8456W        W24590   8.185   7.625   2.398 -0.0373  0.0011  0.0942
 8457W        W24591  11.508   8.487  12.139  0.2835 -0.1762 -0.1526
 8458W        W24592   9.267  14.409  12.026  0.2025 -0.2395 -0.1970
 8459W        W24593  14.191   3.533  14.642 -0.1333 -0.2757  0.2992
 8460W        W24594   4.732   3.269   4.405 -0.1345  0.1010  0.0481
 8461W        W24595  15.764   9.989   0.524 -0.2162  0.1593 -0.1795
 8462W        W24596  13.296  11.687   4.999  0.0332 -0.0138 -0.2380
 8463W        W24597   8.892  15.877  12.600 -0.0215  0.3477  0.1693
 8464W        W24598   8.313  11.781   4.537 -0.1227  0.0263 -0.0254
 8465W        W24599   8.734  10.521  11.527  0.2783 -0.1846 -0.1517
 8466W        W24600   2.489   3.654   1.468 -0.4056  0.0325  0.1230
 8467W        W24601   7.232  13.370   2.301 -0.4127  0.3051  0.0358
 8468W        W24602   5.123   2.772   3.172  0.1543  0.0203  0.3014
 8469W        W24603  10.125   8.554   1.742  0.1446  0.0011  0.1599
 8470W        W24604   1.162  14.400   2.910  0.0292  0.0614  0.1125
 8471W        W24605   0.943   5.142  10.853 -0.3247  0.2582  0.0119
 8472W        W24606   6.961   8.275  15.233  0.1895  0.2303 -0.1461
 8473W        W24607   2.250   1.762  14.127  0.1711  0.1945 -0.2899
 8474W        W24608  10.190   9.834   3.118 -0.0276 -0.1983 -0.1895
 8475W        W24609   1.905   1.794   6.049  0.3066 -0.1791 -0.0436
 8476W        W24610   4.526   4.770  12.687 -0.3263 -0.1121  0.4823
 8477W        W24611   5.560   6.653   3.841  0.0927  0.1827  0.3801
 8478W        W24612  11.417  10.885   0.242  0.0299 -0.1927  0.1384
 8479W        W24613   1.357   4.251  14.669 -0.0372  0.1182 -0.4493
 8480W        W24614   6.643  11.867   4.366 -0.0487  0.1030 -0.1686
 8481W        W24615   8.435  12.462   5.846 -0.1293  0.1374  0.0205
 8482W        W24616  12.257  10.968   0.265 -0.2327 -0.2159 -0.0659
 8483W        W24617  10.747   8.069  11.836 -0.4000 -0.0777 -0.2493
 8484W        W24618   3.765   1.196   1.210 -0.0614  0.0652  0.4800
 8485W        W24619  17.953  11.847   1.902  0.1684  0.3802  0.1650
 8486W        W24620  11.426   4.411   3.995  0.4510 -0.0539 -0.1618
 8487W        W24621   8.186  12.798  12.181  0.1218 -0.2548 -0.0697
 8488W        W24622   9.393   7.557   5.062 -0.1089 -0.0952  0.1633
 8489W        W24623   3.827   8.101  13.804 -0.1153  0.0314 -0.1896
 8490W        W24624  17.328  16.907  14.134  0.0515  0.2159 -0.1787
 8491W        W24625   4.726   0.430   2.962 -0.1114  0.2494  0.0674
 8492W        W24626   4.646  10.163   0.765 -0.0627  0.0781  0.2605
 8493W        W24627  13.944  13.316   2.116  0.0362  0.1671  0.2495
 8494W        W24628   0.584   5.922   0.475  0.0954 -0.2152 -0.0102
 8495W        W24629   5.934  17.811   3.364  0.3026 -0.1990 -0.1697
 8496W        W24630   7.471   6.862   1.623 -0.4125 -0.4505  0.0635
 8497W        W24631   9.639  14.910   3.321 -0.1070 -0.0827  0.1445
 8498W        W24632   5.206   9.884   2.562 -0.2665 -0.0826 -0.1097
 8499W        W24633  17.776   1.261   1.624 -0.1800 -0.0007  0.0466
 8500W        W24634  17.264   2.450  14.075 -0.3063  0.1286  0.0397
 8501W        W24635  14.533   7.472   2.986  0.1476 -0.1433  0.2079
 8502W        W24636   6.146  14.360  11.149 -0.2790  0.0401 -0.1298
 8503W        W24637   4.493   1.320   3.547  0.3472  0.2558  0.0298
 8504W        W24638   3.753   2.687  13.277  0.0438  0.3650 -0.4029
 8505W        W24639   0.520   5.729  15.033  0.2662 -0.1371  0.0777
 8506W        W24640  15.410  13.669   5.599 -0.1739 -0.1283  0.2054
 8507W        W24641   9.762   0.453   3.212  0.2856  0.0207 -0.1422
 8508W        W24642   9.694  17.195   1.928 -0.0394  0.0412  0.2767
 8509W        W24643  12.657   4.469  14.977  0.2291 -0.1483  0.0298
 8510W        W24644   7.769   4.696  15.636 -0.0060  0.0324  0.2900
 8511W        W24645   1.759   3.418   3.000 -0.0294  0.2242  0.0250
 8512W        W24646  16.373  10.789   1.676 -0.0681 -0.1683  0.3054
 8513W        W24647  13.342   4.159  13.768  0.0253  0.1653  0.0400
 8514W        W24648  10.961  14.799  12.008  0.2659  0.2184  0.3369
 8515W        W24649  13.046   6.215  14.475  0.5263  0.1247 -0.0656
 8516W        W24650  13.499   3.104  12.972  0.3393 -0.1124 -0.0148
 8517W        W24651   6.588  15.998  12.711  0.0772  0.0614  0.0471
 8518W        W24652   1.402   4.662   4.366 -0.2923  0.0787 -0.0684
 8519W        W24653   9.701   4.970  13.407  0.1092 -0.0905 -0.3333
 8520W        W24654  17.885  14.249   2.151 -0.2152 -0.1752  0.0460
 8521W        W24655   1.097   7.427   1.652  0.0680 -0.1116  0.1771
 8522W        W24656   5.666   2.642   3.118 -0.1267  0.0547 -0.1433
 8523W        W24657   7.099  11.346   4.434  0.0236  0.0589 -0.1158
 8524W        W24658   9.575  17.199   0.403 -0.0511 -0.1005 -0.0473
 8525W        W24659  18.208   9.257   4.642  0.0358  0.0578  0.0008
 8526W        W24660   3.424  17.662   3.564  0.0116 -0.1033  0.2024
 8527W        W24661  17.908  11.841  15.529 -0.0757  0.0381  0.0163
 8528W        W24662   0.613  14.959  14.642  0.0388  0.4737 -0.0895
 8529W        W24663   6.000  15.512  13.753  0.3051 -0.0376 -0.0144
 8530W        W24664  10.907  15.101   4.758 -0.1261 -0.0589 -0.1206
 8531W        W24665   2.561   8.219  12.149 -0.0869 -0.1165 -0.1036
 8532W        W24666  13.584   5.334  15.474 -0.1111 -0.1546 -0.0235
 8533W        W24667  17.497   1.245   1.194 -0.0392  0.0739 -0.0452
 8534W        W24668  11.596  12.259  11.663 -0.1139 -0.1632 -0.0980
 8535W        W24669  13.764   7.894   5.211 -0.1982 -0.0699 -0.0009
 8536W        W24670  15.303  14.722  12.388  0.0870  0.1377  0.0222
 8537W        W24671  18.290  15.177   0.647 -0.3876 -0.1784  0.0315
 8538W        W24672   9.225  18.227  10.620  0.2909 -0.3407  0.0585
 8539W        W24673   3.431  12.815  15.210 -0.0940  0.0704  0.1539
 8540W        W24674   3.265   6.146  14.568  0.1296  0.4211 -0.1642
 8541W        W24675  10.707   1.639   0.209  0.1076 -0.0581 -0.2063
 8542W        W24676  13.456  13.823  10.308  0.2131 -0.3149 -0.2706
 8543W        W24677   8.716  13.919   2.707 -0.0831 -0.1304 -0.0854
 8544W        W24678  10.929   1.402  12.726  0.1899  0.0535 -0.0378
 8545W        W24679  15.849  17.301   0.994 -0.1205  0.0102  0.1936
 8546W        W24680   3.986  17.857   1.514 -0.1402 -0.0264 -0.2544
 8547W        W24681  15.960   7.779  15.021 -0.1708 -0.0126 -0.0141
 8548W        W24682   9.671  18.230  11.898  0.0834  0.0972 -0.1718
 8549W        W24683   6.481  13.029   1.667  0.0188  0.1411  0.6751
 8550W        W24684   0.932   5.374  11.349  0.0470  0.2567  0.1428
 8551W        W24685   6.601   9.872  12.769  0.1211 -0.2901 -0.1700
 8552W        W24686   9.352  13.059  13.726 -0.0315 -0.2285 -0.2442
 8553W        W24687   9.309   0.335   0.868  0.0192 -0.0809  0.0918
 8554W        W24688   5.375   0.088   4.193 -0.1511  0.2332 -0.0131
 8555W        W24689   8.089   5.025   0.696 -0.1388  0.1803  0.2154
 8556W        W24690   8.038   6.944  13.507 -0.0242 -0.1394  0.2534
 8557W        W24691   1.458  16.785   3.520 -0.2592 -0.0436 -0.0697
 8558W        W24692  16.835  16.756   0.406  0.4503  0.0856 -0.1806
 8559W        W24693  11.238  15.807   0.882  0.2348 -0.0757 -0.1509
 8560W        W24694  17.956   4.654   1.135 -0.2165 -0.2789  0.0917
 8561W        W24695  12.912  14.522  14.561  0.0485 -0.2732  0.0184
 8562W        W24696   2.088   0.092   2.653  0.1478  0.0977 -0.4342
 8563W        W24697  15.421  13.281  12.496 -0.2763 -0.1860 -0.0169
 8564W        W24698   3.443  10.380  10.536 -0.1661 -0.0846 -0.0148
 8565W        W24699   2.328  16.189   4.586 -0.0285  0.1063 -0.1848
 8566W        W24700  11.692   8.319  15.788 -0.3379 -0.0329  0.1827
 8567W        W24701   5.973  10.163   5.071  0.3068 -0.3430  0.0153
 8568W        W24702   8.470  11.997   3.235 -0.0957 -0.0239 -0.1039
 8569W        W24703   8.483   4.525  11.484  0.0268 -0.0631  0.2354
 8570W        W24704   1.397  12.680  12.957 -0.1955  0.0968  0.2861
 8571W        W24705  12.636   4.072  13.495  0.0732 -0.2301  0.1412
 8572W        W24706   6.414   4.738   1.101 -0.2041 -0.3126  0.0556
 8573W        W24707   0.001   9.221   3.869 -0.2942 -0.4121 -0.0027
 8574W        W24708  14.215   8.290   3.057 -0.3815  0.1258  0.2287
 8575W        W24709  15.842  18.078  11.909 -0.1452 -0.0590  0.0597
 8576W        W24710  10.400  12.806   3.662 -0.2870 -0.1323  0.0621
 8577W        W24711  12.910   6.543   1.876 -0.0510 -0.3776  0.0849
 8578W        W24712  16.690   2.267  12.648  0.1276  0.2609 -0.1805
 8579W        W24713   0.980   3.456  15.634  0.0398 -0.0329  0.2407
 8580W        W24714   6.971  12.526   2.832 -0.0197 -0.2690  0.2573
 8581W        W24715  10.122  12.450  13.946 -0.1034  0.1923 -0.1242
 8582W        W24716  16.809   1.574   2.091  0.2390 -0.0431  0.0668
 8583W        W24717  14.913   4.738   4.366  0.0250  0.1598 -0.0492
 8584W        W24718  11.302  16.461   4.017  0.1594 -0.1338 -0.1486
 8585W        W24719  16.687   1.702  14.706 -0.0875 -0.0486  0.1216
 8586W        W24720   6.578  13.365  11.921 -0.1564 -0.0515  0.0576
 8587W        W24721   4.694   0.363  12.447 -0.2461  0.1278  0.1719
 8588W        W24722   6.018  16.279  11.040 -0.0362 -0.4707 -0.2171
 8589W        W24723   4.542   6.012  11.440 -0.2697 -0.1421  0.0660
 8590W        W24724   9.376   2.922  13.648  0.0590  0.0369  0.2798
 8591W        W24725   2.728  14.849  13.130 -0.3078 -0.2071 -0.2646
 8592W        W24726   2.908   0.033   5.977  0.1025 -0.2827  0.0343
 8593W        W24727  15.395   3.641   5.682  0.0554  0.4315 -0.1042
 8594W        W24728   8.049  17.930   0.652  0.5084  0.1169  0.2238
 8595W        W24729  18.126   4.388   3.146 -0.0887  0.2664  0.0039
 8596W        W24730   2.601   9.264  14.103 -0.1661  0.0096  0.1925
 8597W        W24731   8.933   0.512  12.347 -0.3632  0.1611 -0.2873
 8598W        W24732  11.754   0.399  12.954  0.2170 -0.1078  0.0379
 8599W        W24733   1.476   2.853  13.647 -0.0976  0.1000 -0.1697
 8600W        W24734  15.362   4.310   1.846 -0.0864 -0.0895 -0.1416
 8601W        W24735  15.080   7.309   3.005 -0.0985  0.1465  0.0571
 8602W        W24736   5.816  13.160  14.469  0.1461  0.0043  0.0286
 8603W        W24737   1.429   8.692   0.114 -0.0180 -0.2473 -0.0132
 8604W        W24738   6.349  13.074   2.708  0.1448 -0.2416  0.0890
 8605W        W24739   4.194   1.065   0.930 -0.2378 -0.0807  0.3037
 8606W        W24740   7.314   2.711   3.596 -0.0624 -0.0359 -0.0095
 8607W        W24741  13.467  15.260  10.378 -0.0018 -0.0113  0.2141
 8608W        W24742   4.850   5.434  14.060 -0.0604  0.2682 -0.0829
 8609W        W24743  13.245  10.492   4.522 -0.0544 -0.0494  0.0095
 8610W        W24744  14.036   3.981  15.628  0.0863 -0.0976  0.2214
 8611W        W24745  15.961  12.804   4.709  0.0475  0.0597  0.0220
 8612W        W24746   8.303   7.158   0.278 -0.0103 -0.0395  0.3450
 8613W        W24747   4.678  13.481  15.298 -0.3453  0.0889 -0.2658
 8614W        W24748   9.794   9.640  11.197 -0.1504  0.0964  0.2094
 8615W        W24749   4.001  14.669   0.473  0.2035 -0.0117  0.1690
 8616W        W24750  16.892   3.328  15.256 -0.1444 -0.0055  0.1232
 8617W        W24751  10.715  13.221  15.858 -0.0504  0.2243 -0.0188
 8618W        W24752   4.393   8.453   0.718 -0.2373 -0.2625 -0.1709
 8619W        W24753   0.555  16.792   3.799  0.3352  0.0503 -0.2403
 8620W        W24754  16.294   7.293   4.151 -0.2030  0.1131 -0.0087
 8621W        W24755   1.992   0.387   4.685 -0.0247  0.0523  0.0761
 8622W        W24756   6.486  17.737  14.289 -0.1354 -0.2272 -0.0777
 8623W        W24757  13.651  13.999   3.929  0.4088  0.1770  0.0952
 8624W        W24758  15.064  15.423   3.763  0.0696  0.4919  0.3836
 8625W        W24759  15.650  18.081   5.240 -0.0151  0.0407 -0.0343
 8626W        W24760  17.069  18.376   4.816 -0.5044 -0.2801 -0.0303
 8627W        W24761  10.627  12.446  11.875  0.2826 -0.0834  0.2055
 8628W        W24762  10.844  16.898   0.294  0.2003  0.1772 -0.2014
 8629W        W24763   8.085   5.599   2.718  0.1120  0.1295  0.0173
 8630W        W24764  10.646   4.785   4.194 -0.0366  0.1557 -0.1525
 8631W        W24765   5.179   2.298   3.062  0.0355 -0.4421 -0.0488
 8632W        W24766  13.203   6.657  12.908  0.3425 -0.1685 -0.0563
 8633W        W24767  14.266   8.575   3.909 -0.1900  0.2950  0.0068
 8634W        W24768  13.333  13.684   4.486 -0.3249  0.0602 -0.2872
 8635W        W24769  18.174   3.052   2.789  0.1040 -0.0313  0.2560
 8636W        W24770   6.612   1.972  13.235  0.3420  0.1008  0.0329
 8637W        W24771   1.703  17.359   2.585  0.0424 -0.1594 -0.3660
 8638W        W24772   6.916  17.545   0.539 -0.1120 -0.4315 -0.0579
 8639W        W24773  10.963   0.233   5.566 -0.0518 -0.0049 -0.0090
 8640W        W24774   2.167   3.020  11.122 -0.4943 -0.1610  0.1670
 8641W        W24775   3.776  14.630   3.153 -0.0846 -0.1466 -0.1339
 8642W        W24776  12.019   3.798   4.854 -0.1239 -0.1020  0.1389
 8643W        W24777  16.513  12.339   2.840 -0.0978  0.1121  0.0926
 8644W        W24778   4.528  16.320  13.375 -0.0489  0.1958  0.0511
 8645W        W24779  10.654   5.856   6.103 -0.0963  0.1535  0.3120
 8646W        W24780   3.004  14.549   2.586 -0.0551 -0.2155  0.2577
 8647W        W24781  11.026   3.161  11.449 -0.1510  0.3859  0.1774
 8648W        W24782  17.111   8.489  11.329 -0.1769  0.2977 -0.2051
 8649W        W24783   4.918   7.975  12.001  0.0464 -0.0300 -0.1430
 8650W        W24784   6.345  10.981   1.648  0.0285  0.0040 -0.1832
 8651W        W24785  12.168   9.724  11.066  0.2055  0.2418  0.1068
 8652W        W24786  15.656   8.315  14.645  0.1395 -0.2944 -0.2094
 8653W        W24787   9.259   8.256   0.142 -0.0319  0.1574 -0.0187
 8654W        W24788   2.410   0.556   1.909  0.1766 -0.2279 -0.5154
 8655W        W24789   0.458   7.130   2.166  0.1373  0.1593  0.1041
 8656W        W24790  14.021  16.217   3.319 -0.0416  0.1385 -0.0590
 8657W        W24791  13.983   4.685  11.451 -0.0815 -0.0066 -0.2932
 8658W        W24792  18.378  10.986  15.685  0.0741 -0.1140  0.0091
 8659W        W24793   5.375   2.607  14.509  0.1475 -0.0768 -0.1099
 8660W        W24794  16.687  17.531   2.283  0.1167  0.3525 -0.4003
 8661W        W24795   7.752   6.291  15.687 -0.1577 -0.1289  0.1421
 8662W        W24796   5.769   9.565  15.673 -0.1356 -0.1654 -0.1304
 8663W        W24797  16.585  18.188   6.109 -0.0177 -0.0795  0.0967
 8664W        W24798   6.736  16.690   0.957 -0.0338 -0.0795 -0.1634
 8665W        W24799  17.483   7.961  14.714  0.0838 -0.2039 -0.5221
 8666W        W24800   5.657  10.082  15.603  0.3473 -0.2373  0.3156
 8667W        W24801   2.707  15.661  15.635 -0.1425  0.2716 -0.1118
 8668W        W24802   8.018  12.372  10.205 -0.1893  0.2455 -0.1033
 8669W        W24803   3.346   5.780  11.358  0.3285 -0.2124 -0.2540
 8670W        W24804  16.318  15.594  14.654  0.0417  0.0130 -0.1559
 8671W        W24805   3.450  16.745   0.718  0.2318  0.0746  0.0067
 8672W        W24806   2.501   5.956   2.097 -0.0779  0.1183  0.1900
 8673W        W24807  14.059   0.270  11.642  0.0532 -0.2195 -0.2286
 8674W        W24808  13.882   0.748  14.547 -0.2173 -0.2248 -0.0716
 8675W        W24809  10.050   4.492   5.447  0.2454 -0.2844  0.2147
 8676W        W24810   4.724   1.889   1.933 -0.0927  0.0261  0.0436
 8677W        W24811   9.374  10.789  12.140 -0.0319 -0.0886 -0.0148
 8678W        W24812  12.732   6.083  11.927  0.0858  0.1143 -0.0017
 8679W        W24813   3.179   6.537   4.062 -0.1219  0.0953  0.2546
 8680W        W24814   9.673  13.934   3.058  0.3003  0.0379 -0.1499
 8681W        W24815   2.473  11.268   0.462 -0.0508  0.0477 -0.1986
 8682W        W24816  13.403  13.952   1.284 -0.2682  0.2948  0.0638
 8683W        W24817   2.209   3.380  12.198  0.1655  0.0142  0.2206
 8684W        W24818  15.002   8.490   1.338 -0.0106  0.3740 -0.2248
 8685W        W24819   7.338   9.162   0.535 -0.1051  0.0633 -0.1496
 8686W        W24820   2.064  11.245   1.255  0.3400  0.1580  0.1634
 8687W        W24821  15.766  16.727   0.279  0.0876 -0.2224  0.1474
 8688W        W24822  14.208   5.093  13.420  0.1181  0.1325 -0.0969
 8689W        W24823   9.120   8.313   1.636 -0.3061 -0.2549  0.0707
 8690W        W24824   0.985  11.755   3.072  0.0055 -0.1930  0.4486
 8691W        W24825  15.073   9.047  14.463  0.1647  0.0717  0.0878
 8692W        W24826  10.372  10.680  14.636  0.1455 -0.2018  0.0097
 8693W        W24827  15.157  13.055  14.359  0.3222  0.1211 -0.0527
 8694W        W24828  16.370   2.883   2.244  0.0708  0.0896  0.3142
 8695W        W24829   3.168  17.204   1.342  0.1333 -0.0843  0.3940
 8696W        W24830   3.148  16.981  13.696 -0.1908 -0.1509 -0.3930
 8697W        W24831  11.209   1.240  15.456 -0.0567  0.0157  0.0565
 8698W        W24832  12.529   3.436   1.843 -0.1784 -0.1686  0.0608
 8699W        W24833  17.903  16.290  12.813 -0.0553 -0.0795  0.0724
 8700W        W24834   5.902  15.975  10.610  0.2381 -0.0612  0.0870
 8701W        W24835   7.827  15.733  15.700 -0.1310 -0.0009 -0.1233
 8702W        W24836   4.406   4.347  15.628 -0.0256  0.0067 -0.0771
 8703W        W24837  11.220  12.800   3.101  0.1438 -0.1104  0.3597
 8704W        W24838  15.867   0.474  15.550 -0.2352  0.1392 -0.1013
 8705W        W24839   3.910   6.029  12.032  0.0124  0.4411  0.0929
 8706W        W24840   1.697   6.032  14.223 -0.2363 -0.0399  0.2971
 8707W        W24841  16.588   7.970   5.491 -0.1484 -0.2942 -0.0620
 8708W        W24842   0.193   4.756   3.355  0.3286 -0.1062  0.2970
 8709W        W24843  14.329  15.729   1.595 -0.2237 -0.0558  0.0911
 8710W        W24844  14.406   1.224   2.300 -0.1767  0.4383 -0.3858
 8711W        W24845   3.636   6.302  10.890  0.1438 -0.2226 -0.3573
 8712W        W24846   7.635  16.703   4.743  0.1204  0.0039  0.0902
 8713W        W24847  13.163  15.682   0.753  0.1133 -0.0400 -0.0365
 8714W        W24848  11.543  12.822   6.233 -0.1733  0.0627 -0.1670
 8715W        W24849  17.294   2.948  15.205  0.0986  0.0380 -0.1601
 8716W        W24850   8.515   1.941  12.335  0.1769 -0.1199  0.2117
 8717W        W24851  17.727   1.922   4.213 -0.1132  0.1429  0.0850
 8718W        W24852   2.121  16.795   5.192 -0.1709 -0.1198  0.2386
 8719W        W24853   4.097   7.371   3.293  0.1027  0.2344 -0.1525
 8720W        W24854  12.159   1.958  12.405  0.1280  0.2263  0.0102
 8721W        W24855   7.487   5.329   1.510  0.0908 -0.0892  0.3092
 8722W        W24856   0.427  14.445  11.679 -0.2579  0.3108 -0.0520
 8723W        W24857   0.892   9.122  13.034  0.1508 -0.0654  0.2109
 8724W        W24858  17.925  13.043  12.225 -0.0609 -0.0042 -0.4011
 8725W        W24859   9.375   7.021   5.218  0.1744 -0.0729 -0.1665
 8726W        W24860  10.107  12.901  14.705 -0.2050 -0.0030 -0.1602
 8727W        W24861  14.931  16.170  12.447  0.0109  0.0899  0.2174
 8728W        W24862  12.993  17.858  13.377 -0.2027  0.3486  0.0612
 8729W        W24863  16.738  14.263   2.888  0.1272 -0.1954  0.0620
 8730W        W24864  10.530   5.680   2.699 -0.1260  0.2074  0.1474
 8731W        W24865   6.869  11.262   2.880 -0.1030  0.0266  0.0724
 8732W        W24866  15.831   5.116   2.405 -0.0666  0.1668  0.1784
 8733W        W24867   6.129   9.242   1.483 -0.3441 -0.0338 -0.0784
 8734W        W24868  18.077   2.864  14.232 -0.4195 -0.1791 -0.2433
 8735W        W24869   7.673  14.421   4.756 -0.1002  0.2499 -0.1285
 8736W        W24870   3.318   1.950  15.261  0.0289 -0.2960 -0.2076
 8737W        W24871   1.414  13.765   2.785 -0.2240  0.0221  0.1104
 8738W        W24872   2.312  12.896  13.885  0.0869 -0.2169  0.0569
 8739W        W24873   3.837   5.558  13.632  0.0307  0.0450 -0.2496
 8740W        W24874   8.389   9.352   2.271 -0.1626  0.3815 -0.1874
 8741W        W24875   7.708  15.995  10.926 -0.0163 -0.0574 -0.0878
 8742W        W24876  11.462  17.020  13.069  0.1876  0.3046 -0.1508
 8743W        W24877   5.738   1.636   0.054  0.1212  0.2260  0.0728
 8744W        W24878  18.135   7.357  14.640 -0.1483  0.3229  0.0828
 8745W        W24879   1.830   3.270  11.938 -0.2136  0.0974  0.2830
 8746W        W24880   0.768  11.732   0.751 -0.2569  0.2150 -0.1567
 8747W        W24881  11.496  13.654  14.433  0.2822 -0.0069 -0.1182
 8748W        W24882   5.017  14.831   0.860 -0.1825 -0.0383  0.0466
 8749W        W24883   3.208   4.505   3.526  0.0222 -0.4679  0.2818
 8750W        W24884   1.212  17.098   2.593  0.2196 -0.2847  0.1481
 8751W        W24885   5.005  16.820  11.401  0.0582  0.0920 -0.1004
 8752W        W24886   3.353   8.346  12.895 -0.2765  0.0470  0.0065
 8753W        W24887   0.611  18.425  13.198  0.0170  0.0373  0.1680
 8754W        W24888  18.219   3.560   1.497 -0.0494  0.1664  0.2347
 8755W        W24889   2.239  15.731   4.406  0.1180  0.3160 -0.0284
 8756W        W24890   2.887  15.245  12.420 -0.1157 -0.1229 -0.0997
 8757W        W24891   7.646   1.384  14.015  0.2452 -0.0847 -0.0624
 8758W        W24892  16.928   8.091  11.929  0.1405 -0.0180  0.1047
 8759W        W24893   0.438  11.204   9.882  0.0763  0.0060  0.1873
 8760W        W24894  15.005  13.592  11.807 -0.0824 -0.2299 -0.0530
 8761W        W24895   1.021   3.079  12.621  0.1203  0.0556 -0.0704
 8762W        W24896   9.555  10.873  13.976  0.1950  0.0581  0.1194
 8763W        W24897   6.629   3.058   1.240  0.0976  0.2845 -0.0599
 8764W        W24898   0.181   5.921   4.540 -0.1182 -0.2537 -0.4061
 8765W        W24899   8.504   8.112  11.515 -0.0398  0.2052  0.0060
 8766W        W24900   4.787  11.651  14.063  0.0445 -0.1644 -0.2248
 8767W        W24901  10.974  18.396  14.040 -0.3230  0.1576 -0.0385
 8768W        W24902  17.075  18.325   3.385  0.0188  0.0010 -0.0679
 8769W        W24903   3.174  11.856   0.386  0.1312  0.0776  0.3082
 8770W        W24904  10.138  16.123   2.794 -0.0612 -0.0012 -0.4208
 8771W        W24905   8.370  15.960   0.588  0.0664  0.1852 -0.0424
 8772W        W24906  15.772  14.383   3.899 -0.0613 -0.0857 -0.4012
 8773W        W24907  16.831  12.494   1.498 -0.1123  0.4328 -0.0177
 8774W        W24908  18.431  10.414   2.638  0.5848 -0.0304  0.1791
 8775W        W24909   6.655  17.360   4.829 -0.2668 -0.0206 -0.2527
 8776W        W24910   7.785   7.495  11.210 -0.1299 -0.2381 -0.0901
 8777W        W24911  13.817  13.340  14.315  0.2792 -0.1908  0.3202
 8778W        W24912  10.165   2.769  13.979  0.3052 -0.0379  0.1293
 8779W        W24913   1.963   4.900   0.813  0.2770  0.1643  0.2158
 8780W        W24914   1.313   2.157  12.836 -0.0341  0.1557  0.0605
 8781W        W24915  17.703  17.283  15.043  0.2094 -0.0287  0.0194
 8782W        W24916   5.264  12.699   1.805 -0.3319  0.2695 -0.0793
 8783W        W24917   5.855  16.185   0.245 -0.1472  0.0018  0.0161
 8784W        W24918   9.794   4.075  12.822  0.0347 -0.1002 -0.0591
 8785W        W24919  14.686  18.283   5.144 -0.3830  0.3807 -0.0359
 8786W        W24920   9.604   4.706   5.298  0.0762 -0.1876 -0.0452
 8787W        W24921  17.676   5.664   4.867 -0.0858  0.1314 -0.1619
 8788W        W24922   6.903   0.345  12.168 -0.1937 -0.1564 -0.1577
 8789W        W24923   5.416   6.647   1.940 -0.1424 -0.5445  0.2523
 8790W        W24924   2.701   0.834  14.179  0.0221  0.0935 -0.0793
 8791W        W24925   0.214   9.255  12.334 -0.1452 -0.1840 -0.0597
 8792W        W24926  13.920   5.039   4.949 -0.0655 -0.2712 -0.1323
 8793W        W24927  12.887  13.905   3.490  0.0678  0.0843 -0.0878
 8794W        W24928  12.709  15.934   2.544  0.0948  0.1973  0.3233
 8795W        W24929  13.585   0.182   2.619  0.1214  0.1642 -0.0920
 8796W        W24930   0.675   1.607   4.015 -0.1073 -0.2225 -0.0773
 8797W        W24931  17.042  14.393   4.186 -0.1485  0.0931 -0.5146
 8798W        W24932   5.198  13.503   1.336  0.1438 -0.1942 -0.0817
 8799W        W24933  11.017  13.067   2.738 -0.0178  0.2600 -0.0363
 8800W        W24934  17.136   0.920  11.938 -0.2135  0.2313 -0.0579
 8801W        W24935   2.512  12.110   4.949 -0.2086  0.0345 -0.0760
 8802W        W24936   5.159  11.087  14.752  0.1301 -0.3326 -0.0435
 8803W        W24937  14.695   1.168  12.724 -0.1788 -0.1169 -0.3624
 8804W        W24938  14.781   0.445  13.939  0.3440  0.1128 -0.0031
 8805W        W24939   7.409   9.828   2.061 -0.2049  0.0535  0.3588
 8806W        W24940   8.193   1.632  13.738 -0.1863 -0.0428  0.0255
 8807W        W24941   0.106   7.021  12.934 -0.0306 -0.1348 -0.1478
 8808W        W24942   4.372  17.863   0.077  0.0907  0.0794  0.0972
 8809W        W24943   7.119  10.579  13.038 -0.0094  0.0795  0.0376
 8810W        W24944   6.360   0.888   0.542 -0.3806  0.0747  0.1804
 8811W        W24945   0.267  17.906  10.890  0.1001  0.0545  0.1035
 8812W        W24946  15.213   7.092  11.374  0.0309  0.1264  0.1370
 8813W        W24947  10.463   4.715  15.580 -0.1478  0.0242  0.1288
 8814W        W24948   4.920   7.085   0.312  0.0406 -0.0004  0.1610
 8815W        W24949   0.158   7.700   2.727  0.0403  0.1295 -0.0771
 8816W        W24950   1.787   3.684   3.383 -0.0239 -0.3244 -0.3215
 8817W        W24951  14.113   1.680   4.085 -0.1874  0.0435 -0.0390
 8818W        W24952  10.521  15.995   3.110 -0.0739  0.2569  0.0811
 8819W        W24953   5.491  15.943   5.170 -0.1353  0.3236 -0.0823
 8820W        W24954  10.264   5.106  14.228  0.4433  0.0176  0.1440
 8821W        W24955  11.801   4.954  14.669  0.2199 -0.0945 -0.1005
 8822W        W24956   1.200   3.618   0.122 -0.0232 -0.0805  0.0474
 8823W        W24957   1.880  17.649  12.217 -0.3309 -0.1744  0.4688
 8824W        W24958  14.810   5.549  15.641  0.1619  0.2535 -0.2387
 8825W        W24959  12.609  15.206   0.523  0.1625 -0.1530  0.3088
 8826W        W24960   8.046  16.352   0.384 -0.3406  0.1442  0.1156
 8827W        W24961  17.839  13.970  14.527  0.1693  0.4102 -0.2255
 8828W        W24962   3.978   6.923  14.235  0.0189 -0.3983  0.0648
 8829W        W24963   0.573   5.192   0.991  0.0654  0.0341 -0.3023
 8830W        W24964  18.176  12.133  10.787 -0.0368  0.0401 -0.2081
 8831W        W24965   0.826   4.072   2.230  0.1323  0.0271 -0.1075
 8832W        W24966  13.485   8.660  14.910 -0.0496 -0.2531  0.2812
 8833W        W24967  17.964  12.247   0.617  0.2244  0.1110 -0.1716
 8834W        W24968  10.196  17.710   3.671  0.1212 -0.3384 -0.2907
 8835W        W24969  14.426   4.257  15.130  0.0320 -0.1782 -0.2066
 8836W        W24970   5.323  11.366   4.801  0.1546 -0.0443  0.1864
 8837W        W24971   9.740  17.844   2.349 -0.0425  0.0694 -0.1187
 8838W        W24972  16.454  13.497   4.985 -0.2360  0.1885  0.2027
 8839W        W24973  16.871   6.582   2.750 -0.0853  0.1609 -0.0652
 8840W        W24974   1.723   5.486  11.858  0.0176  0.0579 -0.0667
 8841W        W24975  16.671   0.004   0.548  0.1346  0.1138 -0.1403
 8842W        W24976   1.301   7.503   1.167  0.0054 -0.3042  0.3709
 8843W        W24977   6.069  11.813  13.701 -0.1052 -0.1814  0.2765
 8844W        W24978  12.175   1.000   2.240 -0.0410 -0.2251 -0.4102
 8845W        W24979   5.409   2.689  15.673  0.0206  0.0943  0.0276
 8846W        W24980   8.188  11.527   0.579  0.2702  0.0390 -0.0472
 8847W        W24981   0.984  17.867   4.156 -0.1127 -0.2064  0.2667
 8848W        W24982  13.805   7.696  14.550 -0.1291  0.1205  0.0228
 8849W        W24983  14.848  10.381  11.925  0.2047  0.4852  0.3211
 8850W        W24984  12.007  14.109  11.276 -0.0917 -0.0469 -0.1266
 8851W        W24985   6.465  11.597   2.627 -0.0619 -0.0460  0.1953
 8852W        W24986  10.686  16.398   5.608  0.0642 -0.1076  0.1161
 8853W        W24987   0.977  15.651  11.226 -0.0263  0.1925  0.3909
 8854W        W24988  15.325   8.032  12.488 -0.1701  0.1047  0.1631
 8855W        W24989  17.625  10.825  12.732 -0.0272 -0.0529  0.0905
 8856W        W24990  14.149  12.280   3.396  0.0698  0.1679 -0.0014
 8857W        W24991   3.129   0.483   4.763  0.0627  0.0384  0.1811
 8858W        W24992   9.065   9.312  13.523 -0.0244 -0.1491  0.4059
 8859W        W24993  15.105  14.753   4.992 -0.2231  0.0084 -0.0809
 8860W        W24994   3.333  16.151  12.407  0.1642 -0.0279 -0.1507
 8861W        W24995  11.280   8.988  11.204  0.1552  0.0683 -0.3171
 8862W        W24996   2.243  17.943   5.977  0.1399 -0.2620 -0.0944
 8863W        W24997  14.462   7.321   1.834  0.0140  0.2020 -0.0392
 8864W        W24998   1.627  15.800   3.132 -0.1078  0.1493  0.0913
 8865W        W24999   1.777   9.769   4.632 -0.1476 -0.1573  0.0979
 8866W        W25000   5.300   2.904  15.251  0.0107  0.0880  0.0429
 8867W        W25001   1.815  10.648  15.870  0.1354 -0.1802  0.0506
 8868W        W25002   2.572   3.326   4.260 -0.3012 -0.0557  0.2444
 8869W        W25003  14.794   9.842  15.003 -0.2428  0.0377  0.1262
 8870W        W25004  17.791  16.278   3.302 -0.0249  0.0483  0.2226
 8871W        W25005  15.701  10.476   3.324 -0.3274  0.1492 -0.1947
 8872W        W25006   6.858   4.920  13.532  0.0080 -0.0545  0.1869
 8873W        W25007   5.253   3.262   4.330 -0.1428 -0.0238  0.4150
 8874W        W25008  13.911  11.654   0.395 -0.0028 -0.0283  0.1371
 8875W        W25009  12.480  13.287  11.826  0.0525  0.0775  0.1586
 8876W        W25010   5.679  17.809  10.236  0.3010  0.4596 -0.0009
 8877W        W25011  17.936  14.671   5.757 -0.2530  0.2427  0.0473
 8878W        W25012  14.500  17.253  10.819  0.3811  0.1605  0.1976
 8879W        W25013  16.509   0.893   1.206 -0.0653  0.0770  0.2227
 8880W        W25014  16.778  15.551  15.621 -0.3050  0.2365 -0.1952
 8881W        W25015   4.188  10.175   5.478  0.3616  0.2637  0.1091
 8882W        W25016  12.424   3.823  15.819  0.3646 -0.0405  0.0945
 8883W        W25017  16.611   0.279   5.433  0.1965 -0.2422  0.2447
 8884W        W25018   1.889  10.581   2.394  0.0034  0.1210  0.0249
 8885W        W25019   6.391   9.134  14.281  0.1628 -0.1078  0.1451
 8886W        W25020  11.308   7.987   1.488 -0.2091  0.5043 -0.1641
 8887W        W25021   4.605   1.159   0.149 -0.0565 -0.2682 -0.1183
 8888W        W25022  11.924   8.994   4.247  0.0184 -0.2839 -0.2054
 8889W        W25023  17.180  16.659   1.403  0.1321 -0.3086  0.0364
 8890W        W25024   4.200  13.106  12.494  0.0160 -0.1882  0.0150
 8891W        W25025  16.020  13.177   1.583 -0.2939  0.0377 -0.0353
 8892W        W25026  15.414   4.585  12.201  0.2023  0.3926  0.0423
 8893W        W25027   6.253   6.550  15.745 -0.0170  0.0644 -0.1022
 8894W        W25028   7.784  13.137  12.238 -0.0070 -0.1025 -0.1445
 8895W        W25029  13.025  16.506  11.123  0.2061  0.1893  0.1409
 8896W        W25030   0.903  14.855  13.441  0.1965 -0.3096 -0.2583
 8897W        W25031   1.693   8.824  13.961  0.0991  0.0134  0.3949
 8898W        W25032  16.568   8.326  13.327 -0.0225  0.0699 -0.1766
 8899W        W25033   6.970   9.861  12.282  0.2167 -0.0079  0.0667
 8900W        W25034   0.173   9.941   2.562  0.0619 -0.3736  0.2176
 8901W        W25035   2.759  11.929   3.640 -0.0603  0.1636  0.1128
 8902W        W25036   5.909   1.338  14.909 -0.3929 -0.0517 -0.2777
 8903W        W25037  16.390   6.093  14.999 -0.2436 -0.0590  0.0278
 8904W        W25038   8.899  18.000   3.831  0.5267  0.0789  0.0632
 8905W        W25039  16.089  15.602  15.190 -0.1854  0.0658 -0.1277
 8906W        W25040   6.389  15.510   2.840 -0.0926 -0.3702  0.1436
 8907W        W25041   8.918   3.424  14.849  0.2270 -0.0424  0.0874
 8908W        W25042   1.306  17.378   3.212 -0.1396 -0.2073 -0.0175
 8909W        W25043  17.306  12.338  12.804 -0.2827  0.1052 -0.3100
 8910W        W25044   7.151  18.412  11.849 -0.2289  0.1448 -0.1470
 8911W        W25045  11.017   5.667  12.641  0.2642 -0.0403 -0.3190
 8912W        W25046   8.734  14.374   1.240 -0.3090  0.3079  0.2826
 8913W        W25047   2.976   5.123  13.686  0.0382  0.0823 -0.0662
 8914W        W25048   7.301   4.951  13.287 -0.2404  0.2264  0.0985
 8915W        W25049   0.842   2.631  12.260 -0.1474 -0.2109 -0.0046
 8916W        W25050   1.423   1.895  15.830  0.1383  0.2509  0.1274
 8917W        W25051  16.755   4.429  14.321  0.0084  0.1262 -0.2678
 8918W        W25052   6.248   5.271   1.888 -0.1315 -0.3547 -0.1195
 8919W        W25053   1.653   2.209   3.692 -0.1070  0.0371  0.2787
 8920W        W25054   2.029   7.289   3.514  0.0681  0.1450 -0.1774
 8921W        W25055  10.378  13.926   4.237 -0.1061  0.0313 -0.0762
 8922W        W25056   4.316  15.984   6.486  0.0875 -0.0139  0.0326
 8923W        W25057  12.226  10.312  14.542 -0.0526  0.4345  0.0937
 8924W        W25058   9.411   5.796   1.854 -0.2692  0.2799  0.1228
 8925W        W25059   3.996  15.081  12.835  0.0596 -0.3045  0.0037
 8926W        W25060   7.746  14.865   2.053 -0.1173  0.1223  0.4326
 8927W        W25061   6.834  10.082  10.535  0.2576 -0.0550  0.0356
 8928W        W25062   6.252  15.989  14.676  0.0952 -0.0232 -0.0619
 8929W        W25063   6.453  11.039   5.136  0.1592  0.0353  0.0133
 8930W        W25064   3.948  15.404  15.084  0.3229  0.1628  0.2512
 8931W        W25065  12.063  15.705   2.087  0.1055  0.0097  0.1595
 8932W        W25066   1.394  15.785  11.470  0.3456  0.0805  0.0195
 8933W        W25067  15.605  13.682   4.719 -0.2001  0.0810  0.1137
 8934W        W25068   3.527   2.925  10.761 -0.0746  0.1750  0.0479
 8935W        W25069  13.541   1.212   4.555  0.0133 -0.0133 -0.2985
 8936W        W25070   2.683  17.499  13.774 -0.1795  0.2523 -0.0841
 8937W        W25071   2.401  13.763   1.753  0.0800 -0.0223 -0.1441
 8938W        W25072  11.871   5.836  11.615  0.2058 -0.1540  0.2593
 8939W        W25073   3.830   9.342  10.679 -0.0093  0.0288  0.2443
 8940W        W25074   4.115  14.871  12.226 -0.0695  0.3431 -0.1720
 8941W        W25075  15.142  15.008  14.723 -0.0097  0.0816 -0.1782
 8942W        W25076   1.212   9.485  12.328 -0.2053  0.4142 -0.0045
 8943W        W25077  18.342   7.859  10.741 -0.0840 -0.1272 -0.0172
 8944W        W25078   4.218  13.165  14.613 -0.0240 -0.4426 -0.1603
 8945W        W25079  15.711   7.834  14.577  0.1317 -0.0877  0.0533
 8946W        W25080   8.283  14.243  13.506  0.0041 -0.0771 -0.0706
 8947W        W25081  18.374  10.846  13.325 -0.1918  0.1437  0.3705
 8948W        W25082   1.083   0.369  12.342 -0.1472  0.3116  0.0474
 8949W        W25083  17.155   4.331   2.388  0.3461  0.1495 -0.0665
 8950W        W25084   5.654   1.964   0.959 -0.0595 -0.0470  0.2010
 8951W        W25085   4.991   4.563  11.776 -0.0934  0.1123 -0.0422
 8952W        W25086  12.753   2.336   5.442  0.3175  0.2431  0.1499
 8953W        W25087  10.997  15.141   2.332  0.0352  0.1952  0.1339
 8954W        W25088  15.468  14.211  12.250  0.1877  0.3029 -0.0528
 8955W        W25089   4.317   1.874   2.981  0.1217 -0.2674 -0.0269
 8956W        W25090  13.927   9.520  13.894  0.0561  0.0887  0.4888
 8957W        W25091  14.428  10.406   1.716 -0.2461 -0.1696  0.3777
 8958W        W25092   4.304  17.315  12.362  0.0777 -0.2035  0.2449
 8959W        W25093  13.782  11.415   2.404  0.4145  0.3284 -0.2774
 8960W        W25094  18.343   3.453  12.167 -0.1015 -0.0939  0.2099
 8961W        W25095  13.077  16.943  13.855  0.1917  0.0139  0.1346
 8962W        W25096   1.675   4.224   1.982  0.1270 -0.0980  0.4292
 8963W        W25097   8.965   0.075  11.169  0.0917  0.2037 -0.1557
 8964W        W25098  13.526   5.073  11.478 -0.1853 -0.1608 -0.0195
 8965W        W25099   5.326  12.648  11.219  0.2387 -0.1136 -0.1195
 8966W        W25100  12.449   8.038  15.114  0.3416 -0.1341 -0.2497
 8967W        W25101   5.281   7.113  13.905  0.4299 -0.2115 -0.0538
 8968W        W25102   2.153   8.690  12.361 -0.0755 -0.0891  0.1005
 8969W        W25103  15.930  17.299   5.477 -0.0058  0.3696  0.0718
 8970W        W25104  11.771  10.008  13.792 -0.2339 -0.0636  0.0717
 8971W        W25105   2.524   5.230  15.538  0.3717 -0.2482 -0.4062
 8972W        W25106  16.801  10.876   4.340 -0.1636 -0.1649 -0.0527
 8973W        W25107  17.362   5.900  13.808 -0.1268 -0.1795  0.0114
 8974W        W25108   4.809  15.959   4.884 -0.0400 -0.1362  0.3440
 8975W        W25109  16.397  13.335   1.257 -0.1315 -0.1865 -0.0495
 8976W        W25110   8.279   9.374  15.268 -0.0083 -0.0063 -0.2119
 8977W        W25111  14.380   4.368  11.278  0.1214 -0.2110 -0.1617
 8978W        W25112  13.472   7.079  13.855 -0.0830 -0.0877  0.0762
 8979W        W25113   1.707   0.962  12.192 -0.1708 -0.1142 -0.0265
 8980W        W25114  17.214   8.675   3.738 -0.1298  0.3269  0.2160
 8981W        W25115  15.568   6.442   2.762 -0.1159  0.5132 -0.3194
 8982W        W25116  14.339   3.055  13.232 -0.2674  0.0875  0.2189
 8983W        W25117  12.239  16.598  13.292  0.0661  0.2883  0.0758
 8984W        W25118   8.639   1.268   6.074  0.0628  0.3954  0.0242
 8985W        W25119   5.501  17.700   2.501  0.1135  0.2142  0.1035
 8986W        W25120   9.746   7.399  15.050  0.0306  0.1316 -0.0112
 8987W        W25121   5.876  17.216  12.534  0.1400 -0.4770 -0.0444
 8988W        W25122   5.466   3.338  11.783 -0.3826  0.0608 -0.2577
 8989W        W25123   4.900  13.735   1.004  0.3061 -0.1036  0.0003
 8990W        W25124  13.511   3.701  12.177 -0.1549 -0.0965  0.1201
 8991W        W25125  15.030  14.522  13.347 -0.1390  0.4118  0.2639
 8992W        W25126   5.920  10.729   0.926  0.0138 -0.1264 -0.0419
 8993W        W25127   5.195   2.691  14.000  0.2054 -0.1365  0.2070
 8994W        W25128   9.077   9.617   5.031  0.0389 -0.0338 -0.1887
 8995W        W25129  11.727  15.716   1.197 -0.0551  0.1078  0.2674
 8996W        W25130   7.378   1.138  14.991  0.1993  0.0070 -0.2234
 8997W        W25131   3.341   3.009   0.276  0.3375 -0.1241  0.1572
 8998W        W25132   6.017  12.125  15.373  0.1421 -0.1444  0.0498
 8999W        W25133  12.228   7.811   3.383  0.1808  0.3380  0.1505
 9000W        W25134   9.956  15.341   4.341  0.2274  0.1703  0.1450
 9001W        W25135  17.559   2.526   2.951 -0.0316 -0.0577 -0.0440
 9002W        W25136   1.342  12.533   5.328 -0.4589  0.4410  0.1434
 9003W        W25137   5.412  14.333   2.515 -0.0863  0.1570  0.0768
 9004W        W25138   8.542   1.715  12.898 -0.1358 -0.1898 -0.2026
 9005W        W25139  15.650   8.974  12.853 -0.0494 -0.0325 -0.1778
 9006W        W25140   3.839  17.441   2.820 -0.0863  0.0253  0.3067
 9007W        W25141   5.758   3.612   4.371  0.1850 -0.1201 -0.1500
 9008W        W25142   4.820   5.071  12.442 -0.1952  0.0811 -0.1017
 9009W        W25143  13.375  11.763   2.398 -0.0771  0.4829 -0.3215
 9010W        W25144   5.524  13.220   1.092  0.2508  0.0226  0.0779
 9011W        W25145  16.609   8.185   0.701 -0.3813 -0.1662 -0.0534
 9012W        W25146  16.887  18.008   1.210  0.0470 -0.1056  0.2519
 9013W        W25147   0.133   5.784   2.043 -0.0667 -0.1499  0.0128
 9014W        W25148  13.018  18.322  10.856  0.0691 -0.0056 -0.1976
 9015W        W25149  18.374   3.229   3.245 -0.1748  0.0635  0.2248
 9016W        W25150   2.009   5.831  13.809  0.1503 -0.0844  0.0050
 9017W        W25151  11.421  10.053   0.106 -0.1232  0.4888 -0.1685
 9018W        W25152  12.758  11.234   5.027 -0.2799  0.1322  0.0532
 9019W        W25153   4.080   8.947  15.541 -0.0556 -0.0453 -0.1006
 9020W        W25154  12.427  12.154   0.489 -0.0700 -0.1518 -0.0833
 9021W        W25155   2.860  11.627  13.167  0.2705 -0.1214  0.1663
 9022W        W25156   6.091  16.995   2.945 -0.0045  0.1422  0.2114
 9023W        W25157   8.005  18.197  10.836  0.0319  0.0351  0.0637
 9024W        W25158   4.046   6.756   3.198  0.1383 -0.0598  0.0972
 9025W        W25159   5.084   7.378   1.318 -0.2964 -0.2356  0.1373
 9026W        W25160   1.335  15.491   2.856 -0.0337  0.0304 -0.2810
 9027W        W25161   1.719   3.946   0.959  0.2334 -0.3736 -0.1200
 9028W        W25162  14.165   3.272  12.757  0.0676  0.1705 -0.5389
 9029W        W25163   3.968  16.896  14.910 -0.2144 -0.2005  0.0445
 9030W        W25164   9.261  16.570  10.904  0.0933 -0.3662 -0.0592
 9031W        W25165   4.470   7.546   2.070  0.1042  0.0075 -0.0458
 9032W        W25166  16.855  13.261   0.480  0.0491 -0.0850  0.0846
 9033W        W25167  14.741   9.800   3.325  0.0488  0.0926  0.1056
 9034W        W25168   2.639  10.729  14.937 -0.2471 -0.0487 -0.1277
 9035W        W25169   9.180   0.282  14.622  0.3210 -0.1700 -0.0341
 9036W        W25170   5.731  13.969   2.174  0.1392  0.2059  0.4411
 9037W        W25171   2.029   9.823   0.070  0.0335 -0.0792 -0.0551
 9038W        W25172  14.331  17.755  11.842 -0.0528 -0.1540 -0.0420
 9039W        W25173   0.695  12.626   9.860  0.0554 -0.1542 -0.2133
 9040W        W25174   9.808  14.934   4.593 -0.3556 -0.2912 -0.0828
 9041W        W25175   7.604   1.979   3.954  0.0137 -0.1027  0.2966
 9042W        W25176   7.992  16.270  11.802  0.1207  0.0119 -0.1279
 9043W        W25177   4.833   8.607   0.006 -0.3237 -0.0616  0.0827
 9044W        W25178   9.388  10.763   4.235  0.0309 -0.2104 -0.1156
 9045W        W25179   6.575  10.957  13.726  0.0047  0.1132 -0.0082
 9046W        W25180   3.389   2.256   4.551 -0.0739 -0.0092 -0.1296
 9047W        W25181   2.159  18.419  11.639 -0.1216 -0.0128 -0.0172
 9048W        W25182   0.294   8.505   2.817 -0.0585 -0.3769  0.0475
 9049W        W25183  12.511   5.772   0.513  0.1325  0.0186  0.2143
 9050W        W25184  10.367  16.006   0.854  0.0437  0.3236 -0.1904
 9051W        W25185   0.717   3.875  12.435 -0.2168 -0.1256 -0.1110
 9052W        W25186  14.117   7.263   4.443  0.1266 -0.1697  0.1729
 9053W        W25187  15.874   4.450   1.045  0.0679  0.0487  0.1877
 9054W        W25188  16.960   1.622   2.628  0.0870  0.0423 -0.3659
 9055W        W25189   5.427  16.328   0.685  0.2399 -0.0795 -0.0111
 9056W        W25190  11.775   0.641  11.957  0.0077 -0.2734  0.3446
 9057W        W25191  17.168  12.978  12.592 -0.2925 -0.0944  0.0495
 9058W        W25192  11.839   4.828  15.829  0.1342 -0.2307  0.0819
 9059W        W25193  11.355   2.163  14.379  0.0082  0.0763  0.0946
 9060W        W25194   0.424  11.207   2.536  0.2732 -0.0687  0.5115
 9061W        W25195   4.206  10.566   3.522  0.3520  0.1986 -0.2664
 9062W        W25196  10.477   5.604  13.337  0.2109 -0.1478 -0.1682
 9063W        W25197  16.810  18.000   3.813  0.0424 -0.1189  0.2417
 9064W        W25198  14.014   4.058   0.286  0.1313  0.3508  0.1503
 9065W        W25199   6.831  13.798   1.636  0.0827  0.0253  0.0757
 9066W        W25200   4.358  12.885  12.042 -0.2148 -0.2835 -0.0528
 9067W        W25201   9.765  11.706  10.237  0.0179  0.1327 -0.0833
 9068W        W25202  12.068   0.734  11.362 -0.1454 -0.2756 -0.3381
 9069W        W25203  15.074   4.622  13.597  0.3253  0.0310 -0.3040
 9070W        W25204  14.924   9.947   1.668  0.0327 -0.1242 -0.0223
 9071W        W25205  17.110   9.161   1.848  0.3063 -0.0570 -0.0038
 9072W        W25206  14.131  16.678   6.125  0.0496  0.0132 -0.0749
 9073W        W25207   0.831   8.670  14.599 -0.2969 -0.0950 -0.0357
 9074W        W25208   1.800  11.601   0.801  0.0217 -0.0963  0.0229
 9075W        W25209   0.883   7.006   1.869 -0.1964  0.0230  0.1446
 9076W        W25210   8.850   3.955   1.049 -0.0153 -0.0458  0.0423
 9077W        W25211  17.143  13.596  10.661 -0.1880  0.0707  0.0165
 9078W        W25212   4.468  12.405  15.462 -0.1703  0.1696  0.2314
 9079W        W25213   9.375   5.032  11.047  0.2747  0.0395 -0.0865
 9080W        W25214   7.002   1.122  13.291 -0.0394  0.0957 -0.2143
 9081W        W25215  17.134   2.119   9.894  0.1179 -0.0049  0.3170
 9082W        W25216   4.860  11.080   4.839  0.0816  0.0456  0.0533
 9083W        W25217   7.289  17.927   4.872 -0.3498 -0.2686 -0.1327
 9084W        W25218   6.031  17.525   0.477 -0.1299  0.1229 -0.1087
 9085W        W25219  13.103   5.844  14.776 -0.1437 -0.0661 -0.0668
 9086W        W25220   0.092   4.639   4.944  0.1222  0.2346  0.2552
 9087W        W25221   4.136  15.554   1.569 -0.3179  0.0567  0.0157
 9088W        W25222   4.429  12.073  13.291 -0.3868 -0.2476  0.1977
 9089W        W25223  13.967  11.159   0.580 -0.0493 -0.3581  0.2413
 9090W        W25224   9.226   1.498  13.731 -0.2470 -0.2934  0.2713
 9091W        W25225   2.517  15.888   5.502  0.0347 -0.1159  0.1276
 9092W        W25226   1.733   8.519  10.694 -0.2801  0.3134 -0.0831
 9093W        W25227   6.226  11.236   3.852 -0.0892  0.1380  0.0357
 9094W        W25228   7.472  11.634  13.866  0.2173  0.2712 -0.1183
 9095W        W25229  11.570  17.177  10.506  0.3170 -0.0433  0.2732
 9096W        W25230   5.425   4.823   2.266  0.0970  0.0405 -0.0034
 9097W        W25231   8.248   0.534   4.959  0.2598 -0.0407 -0.0884
 9098W        W25232   7.396   5.520  13.272 -0.0862 -0.0217 -0.0646
 9099W        W25233   7.162   5.563   3.141 -0.0005 -0.0790 -0.2151
 9100W        W25234   3.948   6.699   0.513  0.1159  0.2325  0.1701
 9101W        W25235  14.068   3.013   4.504  0.1441  0.1518 -0.3719
 9102W        W25236   5.094  13.545   2.669 -0.0776  0.2467  0.2843
 9103W        W25237   8.690   3.900   0.121  0.0307 -0.2543  0.0553
 9104W        W25238   3.380   6.483  11.847  0.0889 -0.0500  0.1215
 9105W        W25239  18.037  10.486  14.197  0.1049  0.0600  0.3347
 9106W        W25240  13.535  18.005  12.261 -0.1091 -0.1818  0.0335
 9107W        W25241   1.973   6.578   1.018  0.2025  0.2290 -0.2085
 9108W        W25242   7.286   2.823   2.826  0.1332  0.2255 -0.1974
 9109W        W25243   8.404   2.023   2.692 -0.1458 -0.1501  0.2369
 9110W        W25244   8.562   7.489   4.697  0.1027  0.0179  0.2143
 9111W        W25245   3.109   6.709  15.705  0.1747 -0.1306 -0.0488
 9112W        W25246  10.891   4.154  13.279 -0.2025  0.0103  0.1701
 9113W        W25247  14.970  14.444  12.092 -0.0299  0.0131  0.2282
 9114W        W25248   4.540   2.694  12.195 -0.0763  0.1662 -0.3346
 9115W        W25249  16.391  12.609  10.120  0.0073 -0.2044  0.1854
 9116W        W25250   8.910   2.249   4.021  0.1238  0.0874  0.0388
 9117W        W25251   0.415   8.582   0.913  0.0165 -0.2365  0.1423
 9118W        W25252   6.977   8.422   0.926  0.1542  0.1270  0.1154
 9119W        W25253   5.744  10.048   1.294  0.0177  0.1864 -0.0853
 9120W        W25254   7.286   6.380  11.160 -0.1500 -0.0466 -0.1362
 9121W        W25255   6.155  17.707  15.475 -0.1077  0.2459 -0.0771
 9122W        W25256   0.337   2.332  14.450  0.0212  0.3456  0.1794
 9123W        W25257   1.862   6.722  12.388 -0.0169  0.0216 -0.3357
 9124W        W25258   6.776   2.810  13.480 -0.0313  0.0498  0.0513
 9125W        W25259   3.848   6.810   4.826 -0.0323  0.2375 -0.3529
 9126W        W25260  12.656   2.513  14.159 -0.0721 -0.1143  0.0085
 9127W        W25261  12.840   8.490   1.445 -0.0464  0.1886  0.0930
 9128W        W25262   0.400  15.253   2.339  0.2101 -0.1691 -0.2651
 9129W        W25263  10.374   5.947   3.872 -0.0946  0.1071  0.3461
 9130W        W25264  13.643  10.243  15.880 -0.1164  0.1138  0.4154
 9131W        W25265  11.709   9.244   2.759  0.2587 -0.1764  0.1035
 9132W        W25266  12.118  10.174   2.747  0.1086 -0.0952 -0.1758
 9133W        W25267  12.393  10.361   2.314  0.3822 -0.1383 -0.0067
 9134W        W25268  12.220  13.903   2.944 -0.0457 -0.1419 -0.1027
 9135W        W25269   1.403   6.276  11.565 -0.1333 -0.3842 -0.1480
 9136W        W25270  12.439  15.475   1.889 -0.0672 -0.0191  0.0238
 9137W        W25271  11.682   0.266   1.838 -0.2214  0.1970  0.0024
 9138W        W25272  16.454  16.200   2.971 -0.1118 -0.0731  0.1194
 9139W        W25273   2.860  12.171   2.272 -0.0247 -0.1268 -0.4349
 9140W        W25274   3.983  16.813   0.508  0.1644  0.0175 -0.3011
 9141W        W25275   7.405   7.184  13.906 -0.1741  0.0192 -0.2253
 9142W        W25276   1.791   8.467  14.354  0.3019 -0.1504 -0.1986
 9143W        W25277  16.411   9.880  11.743 -0.3322 -0.0913 -0.0571
 9144W        W25278   6.651  14.526   3.277  0.0598 -0.0601 -0.1421
 9145W        W25279  12.708  15.750   0.565  0.1631  0.1458 -0.2385
 9146W        W25280  13.331   5.011   3.461  0.0538  0.0130 -0.1491
 9147W        W25281   0.005   8.936  12.694 -0.0095  0.1033 -0.4766
 9148W        W25282  14.252   5.455  14.388 -0.1110  0.0467  0.0725
 9149W        W25283  12.963  13.319  12.633 -0.0094  0.0917 -0.0900
 9150W        W25284   0.570   4.623  10.235 -0.3624  0.0954 -0.0690
 9151W        W25285  17.920   7.079   3.892  0.1189  0.1065 -0.0290
 9152W        W25286  15.206   2.037  14.647  0.2267 -0.4791  0.3911
 9153W        W25287  13.449  16.873   3.686  0.1701 -0.1280 -0.1504
 9154W        W25288  14.081   7.602   4.048 -0.1420  0.4028 -0.1884
 9155W        W25289   9.670   3.766  14.036 -0.1756  0.2169  0.0061
 9156W        W25290   6.873  13.216  12.651  0.4887  0.1161  0.1207
 9157W        W25291   4.598   6.824  15.114 -0.0826 -0.0017 -0.1432
 9158W        W25292   4.523  15.177   4.124 -0.2140  0.0681  0.0392
 9159W        W25293  17.659   0.595   5.822 -0.0049  0.0612  0.1883
 9160W        W25294  14.626   7.062  10.173 -0.1185  0.0479  0.2795
 9161W        W25295  12.994   6.627   5.123  0.0263  0.2311  0.1858
 9162W        W25296   6.789  10.622  14.930  0.1564  0.0372 -0.3665
 9163W        W25297   0.451   5.091   1.543 -0.0157  0.0432  0.2249
 9164W        W25298   9.612  11.056   0.531 -0.3419  0.2716 -0.0768
 9165W        W25299  10.711  11.376  12.333 -0.0613 -0.2536  0.0655
 9166W        W25300  15.071  12.034  12.104 -0.2486  0.0867  0.2599
 9167W        W25301   7.033  12.322  11.670 -0.1988 -0.0162 -0.2538
 9168W        W25302  13.326  16.503   2.829 -0.1865 -0.2945 -0.3135
 9169W        W25303   6.579   8.920   4.629  0.0099 -0.4759  0.1026
 9170W        W25304  10.714   2.233  11.480 -0.2510 -0.0682 -0.2070
 9171W        W25305   7.575   3.198   6.104  0.1596  0.2309  0.0842
 9172W        W25306  12.078  15.434  12.623 -0.2109  0.1189 -0.1013
 9173W        W25307   2.696   6.108  13.262  0.0614 -0.1066  0.0604
 9174W        W25308   9.276  16.667  13.015  0.1622 -0.0377  0.0632
 9175W        W25309   8.089  11.601  13.100 -0.2824 -0.0667 -0.1592
 9176W        W25310  17.832   1.421   4.469 -0.1518 -0.0468 -0.0493
 9177W        W25311   9.172  13.978   2.959  0.0116  0.1530 -0.1181
 9178W        W25312  18.142  14.335   4.793 -0.0791 -0.3931 -0.0367
 9179W        W25313   8.361  14.827  11.535  0.0942 -0.0783 -0.1705
 9180W        W25314   4.710  15.698   0.193 -0.0163  0.2028 -0.1838
 9181W        W25315  17.724  14.643  11.992  0.1872  0.1512  0.2014
 9182W        W25316  17.509   6.895  11.681  0.1527 -0.0722  0.3185
 9183W        W25317   4.365   9.726  13.223 -0.0649  0.1576  0.0421
 9184W        W25318  13.674  14.251  11.798  0.1034 -0.2239 -0.1684
 9185W        W25319  17.310   0.305  15.847  0.0203 -0.2230 -0.0726
 9186W        W25320   7.732   0.960  13.730 -0.3150 -0.1245  0.2288
 9187W        W25321  17.971  12.822   0.700  0.0438 -0.1142  0.1160
 9188W        W25322   1.354   5.722  11.563  0.2342 -0.3629  0.3041
 9189W        W25323  11.998   6.289  11.344  0.0214 -0.0795  0.2354
 9190W        W25324  11.977  14.797  13.500 -0.2499  0.0513 -0.0583
 9191W        W25325   7.003  11.717  15.274  0.1563  0.1517  0.1699
 9192W        W25326   6.497  10.628  14.497 -0.0250 -0.0679 -0.1410
 9193W        W25327  13.082  10.020  15.189 -0.0954 -0.0924  0.0546
 9194W        W25328  17.566   9.158  15.731  0.0097  0.0641 -0.3634
 9195W        W25329  15.752   6.810  11.222 -0.0219 -0.0253  0.1369
 9196W        W25330  15.632  13.861  13.250  0.2066 -0.2705 -0.0555
 9197W        W25331  14.877  15.201  11.285  0.2300  0.0596  0.0539
 9198W        W25332  17.415  11.416   1.810  0.2239 -0.1004 -0.2249
 9199W        W25333  13.404  15.733   1.242  0.2618 -0.1410  0.2325
 9200W        W25334  11.876   5.163   3.776  0.1821  0.1974  0.3254
 9201W        W25335  12.394   4.505  12.373 -0.3202  0.1639 -0.1840
 9202W        W25336   6.620   0.444   0.315 -0.1394 -0.0980 -0.2054
 9203W        W25337  17.227  10.547   2.197  0.2126  0.0268  0.1703
 9204W        W25338   4.913  17.718   2.671 -0.3259  0.5400 -0.0746
 9205W        W25339  12.650   8.746  15.531 -0.2353 -0.1046  0.3033
 9206W        W25340   4.448  14.928  13.014 -0.2801 -0.1274  0.0472
 9207W        W25341  16.660   7.742  10.838  0.3514 -0.1089 -0.1369
 9208W        W25342   9.477   5.652   3.986  0.2169 -0.2660 -0.3355
 9209W        W25343   6.282  11.331  13.789  0.4728  0.0871 -0.1978
 9210W        W25344   6.637  15.007   4.105 -0.0107  0.0231 -0.2822
 9211W        W25345  11.283  12.613  11.845  0.1475 -0.0506  0.4166
 9212W        W25346   4.692  17.049   5.397 -0.0535  0.1703 -0.1283
 9213W        W25347   6.507  17.698  11.938 -0.0638 -0.2141 -0.1487
 9214W        W25348   7.778  17.631  13.038  0.3859  0.0441 -0.4076
 9215W        W25349   0.258  17.929  11.428  0.0234 -0.2495 -0.0849
 9216W        W25350   3.936  11.512   4.791  0.0362  0.1592 -0.0673
 9217W        W25351  17.201  15.000  12.033 -0.2021  0.1480 -0.1233
 9218W        W25352  11.044  18.336  10.435  0.0633 -0.0657 -0.2115
 9219W        W25353   8.256   7.365   3.122 -0.0399  0.0633 -0.0899
 9220W        W25354  18.191   3.475  14.986 -0.0205  0.0638 -0.0500
 9221W        W25355   3.116  10.614  13.727 -0.1803 -0.0679 -0.3328
 9222W        W25356   0.404   1.066  11.029 -0.1405  0.2464  0.2022
 9223W        W25357  12.185  11.444  13.159  0.0435 -0.3434  0.3015
 9224W        W25358  12.789  15.773  15.843 -0.2683 -0.1134  0.0109
 9225W        W25359  12.251  17.126  13.246  0.1940  0.1312 -0.1784
 9226W        W25360   3.776   6.507  12.287  0.1008 -0.2920 -0.0231
 9227W        W25361  14.787   0.484   4.499  0.2053 -0.2950 -0.0578
 9228W        W25362  16.056  13.481  15.387 -0.2429 -0.1654 -0.1989
 9229W        W25363   3.646   9.327  13.213  0.0600  0.1728  0.1368
 9230W        W25364   6.722  14.021  15.141  0.0974 -0.1483  0.0697
 9231W        W25365  13.643   7.141  12.683 -0.1738 -0.1800  0.0149
 9232W        W25366   3.789  14.336   0.894 -0.2331 -0.2532 -0.3533
 9233W        W25367  13.135  10.933   4.906 -0.1810 -0.0696 -0.0406
 9234W        W25368   6.415   3.071  10.935  0.1677  0.2664 -0.0658
 9235W        W25369  15.507  16.272   4.080  0.2698  0.0100  0.0558
 9236W        W25370  18.158  11.857  14.733 -0.2044 -0.0939  0.4209
 9237W        W25371   5.537   8.275  15.242  0.1375 -0.2497  0.2886
 9238W        W25372   4.916  14.992  14.671 -0.1204 -0.1150 -0.2012
 9239W        W25373  10.873   2.719  11.340 -0.0646  0.2282 -0.0971
 9240W        W25374   9.187   7.447  11.168  0.0558  0.1099 -0.1593
 9241W        W25375   1.567   5.465  14.981 -0.2728  0.1049  0.0854
 9242W        W25376   0.990   2.480  13.298  0.1737 -0.0458  0.0412
 9243W        W25377   3.373   6.604   0.789  0.0156  0.0483 -0.1093
 9244W        W25378   3.800   0.011  14.140  0.4404 -0.2630 -0.1381
 9245W        W25379  16.038   5.481   4.035 -0.1830 -0.0790  0.3409
 9246W        W25380  14.013  15.239   1.085 -0.0798  0.0355  0.2985
 9247W        W25381  13.491   9.511   4.673  0.2190  0.1556 -0.0809
 9248W        W25382  17.569  16.669  12.711 -0.0889  0.2474  0.0570
 9249W        W25383   7.327  14.529  13.343 -0.1496 -0.3364 -0.1743
 9250W        W25384  16.166   6.037   3.719 -0.0853  0.6031 -0.1930
 9251W        W25385   2.835   6.312   1.973  0.0247  0.0692  0.0265
 9252W        W25386   7.908  12.059  11.452  0.2447 -0.2383  0.0366
 9253W        W25387   2.498  15.472  11.449  0.0153  0.2279  0.1476
 9254W        W25388  14.547   5.279  10.905 -0.2058 -0.1485 -0.0800
 9255W        W25389  13.666   0.361  13.756 -0.0740  0.2316 -0.1339
 9256W        W25390   0.387   1.766  11.311  0.2457  0.1143 -0.1913
 9257W        W25391  14.934   1.944   0.876  0.2748 -0.1891 -0.1424
 9258W        W25392   7.987  15.835   5.213  0.0080 -0.2225 -0.2832
 9259W        W25393  13.074  16.944  13.372 -0.1394 -0.3215 -0.0449
 9260W        W25394   5.184  10.957  12.466  0.0348  0.0194 -0.0276
 9261W        W25395  10.831  16.914   4.972 -0.0398 -0.1201 -0.0642
 9262W        W25396   0.465  18.046   1.057  0.0940  0.0258  0.0602
 9263W        W25397  13.409   5.490   2.253 -0.0764  0.1928  0.0385
 9264W        W25398   1.767   5.031  11.504  0.1714  0.0814 -0.0943
 9265W        W25399  13.194  18.034  10.052  0.1223 -0.0591  0.0902
 9266W        W25400   6.470   9.993  13.241 -0.1674 -0.1649  0.1105
 9267W        W25401   2.172   9.296   3.174 -0.3610 -0.1475 -0.1861
 9268W        W25402   0.044   2.227  11.797  0.0636  0.0389 -0.1874
 9269W        W25403  12.082   3.937   4.334  0.0759 -0.3666 -0.0054
 9270W        W25404  10.624  13.901  12.627 -0.0972  0.0803  0.0934
 9271W        W25405   3.408  13.138   4.334 -0.1963  0.0299  0.0195
 9272W        W25406   0.658   2.707  11.771 -0.0002 -0.1380  0.1616
 9273W        W25407   0.317  15.408  14.652 -0.1977  0.0951  0.0496
 9274W        W25408   6.687  15.032  11.063 -0.2656 -0.1208 -0.0887
 9275W        W25409  16.690  11.508  15.455 -0.3809  0.3937  0.2608
 9276W        W25410  13.413  15.757  14.752 -0.0819  0.1276  0.4731
 9277W        W25411  15.951   6.133   1.303  0.1503 -0.2172  0.0153
 9278W        W25412   6.225   3.446   4.263  0.0615 -0.1894 -0.0266
 9279W        W25413   7.407  14.606   2.778  0.1840 -0.0230 -0.0728
 9280W        W25414  13.879   6.940   5.175 -0.2450  0.2635 -0.2839
 9281W        W25415  14.041  13.565   0.276  0.1272 -0.0465 -0.1358
 9282W        W25416  13.485   6.348  15.797 -0.3760  0.1365  0.1567
 9283W        W25417  12.211   2.361  10.672 -0.1301  0.1508  0.2043
 9284W        W25418   4.040   9.175   0.116  0.0212  0.0726 -0.2451
 9285W        W25419  17.066  14.488   3.341 -0.1817  0.0215 -0.0600
 9286W        W25420  18.083   1.449  15.719  0.0107  0.0117  0.0818
 9287W        W25421  14.161   9.135  11.361  0.1186 -0.0252 -0.0207
 9288W        W25422   2.347  17.228   5.331  0.0995 -0.2107  0.0794
 9289W        W25423   7.374   2.487   4.459 -0.1924 -0.2250 -0.0222
 9290W        W25424   5.456   7.275  15.425  0.0666 -0.0243 -0.1468
 9291W        W25425   1.410  11.108   0.636  0.4105  0.1929 -0.0375
 9292W        W25426  16.752   0.202   5.992 -0.2686 -0.0692  0.0467
 9293W        W25427  14.093   3.816   3.818  0.1882  0.2269  0.2058
 9294W        W25428  14.213   4.862  11.921 -0.1813 -0.2139 -0.3197
 9295W        W25429  10.339   0.711  12.060  0.0185  0.2543 -0.1083
 9296W        W25430  14.592   2.267   2.822  0.0312 -0.0259 -0.0075
 9297W        W25431   2.681   6.582  13.046 -0.0129 -0.0785  0.0638
 9298W        W25432  10.535   2.996  12.799 -0.0087 -0.1254  0.1984
 9299W        W25433   9.620   0.745  14.059 -0.1635 -0.2720  0.1443
 9300W        W25434  17.384   4.060  11.256  0.0390  0.2005 -0.2115
 9301W        W25435  17.726  10.004  14.235 -0.0928 -0.2849 -0.1142
 9302W        W25436  17.337  15.453   5.463 -0.2304  0.0653  0.2518
 9303W        W25437   1.603   5.053   1.463 -0.2695  0.1720  0.3898
 9304W        W25438  11.767  14.654  13.108 -0.0717 -0.1673 -0.0417
 9305W        W25439  10.923  17.928  13.435 -0.0545 -0.0626  0.2221
 9306W        W25440  17.828  14.710  12.845  0.1239  0.0459  0.1059
 9307W        W25441  15.225  16.728   0.073  0.1844 -0.2638  0.0357
 9308W        W25442  10.021  18.306   4.421 -0.0464 -0.1722 -0.0942
 9309W        W25443   8.798   8.764  14.422 -0.0912  0.1290 -0.1542
 9310W        W25444  16.773  16.579   1.724 -0.0320 -0.2826  0.2337
 9311W        W25445   8.171   4.970  13.038 -0.0259 -0.0995  0.1554
 9312W        W25446   1.929  11.763  13.002  0.0237 -0.1808 -0.0630
 9313W        W25447   0.141  17.686   1.260 -0.2540  0.1659  0.1454
 9314W        W25448  14.224  15.579  12.362  0.1439 -0.3447 -0.1832
 9315W        W25449  18.464   2.977   4.391  0.1574 -0.0578  0.2260
 9316W        W25450   5.436   6.185   4.065 -0.1866  0.2354 -0.0089
 9317W        W25451  11.909   7.687  11.864 -0.2007 -0.2550  0.2026
 9318W        W25452  14.706   6.373   4.219  0.1864  0.1238  0.3629
 9319W        W25453   3.454  16.147   3.478 -0.0551  0.0172 -0.1995
 9320W        W25454  13.081   7.973  11.477 -0.2932  0.1940  0.0645
 9321W        W25455  15.651  12.483   1.084 -0.3052  0.1465 -0.1198
 9322W        W25456   5.038  17.334  15.720 -0.0592  0.1151 -0.4954
 9323W        W25457   4.906   7.318   3.366 -0.0221  0.3428  0.0210
 9324W        W25458  15.494   1.722  11.358 -0.3063  0.1125 -0.3243
 9325W        W25459   1.188  16.879  12.892 -0.2828 -0.1184  0.0196
 9326W        W25460   9.968   8.178   4.139  0.4452 -0.2424 -0.2181
 9327W        W25461   9.276  17.377   3.649  0.0090  0.1898 -0.1351
 9328W        W25462   7.452  15.902  14.497  0.1204  0.1864 -0.2098
 9329W        W25463   0.529   0.758   2.460  0.2042 -0.1865  0.3297
 9330W        W25464   9.112  12.436   3.122  0.0422 -0.0835  0.0634
 9331W        W25465   7.241   9.473  13.337  0.2396 -0.4519 -0.0013
 9332W        W25466   7.030  15.652  14.376 -0.4409  0.3910  0.0370
 9333W        W25467  17.945  17.562  13.038  0.0077 -0.1147 -0.0825
 9334W        W25468  12.301  16.048   0.390  0.0867  0.0650  0.0123
 9335W        W25469  11.771   0.552   2.251 -0.2266 -0.0946 -0.0561
 9336W        W25470  11.326   6.578  15.403 -0.2625 -0.1142  0.2199
 9337W        W25471  13.088  10.174   4.193 -0.3329 -0.2332  0.0015
 9338W        W25472   9.398  14.666   2.297 -0.0107 -0.0707  0.1211
 9339W        W25473   1.090   0.472  11.265  0.1560  0.0457  0.1926
 9340W        W25474   7.884   7.351   0.899 -0.0223 -0.0707  0.1188
 9341W        W25475  15.322   5.982   2.000  0.2134 -0.0032  0.2951
 9342W        W25476   2.256  15.019   1.326  0.3714  0.0050  0.2324
 9343W        W25477  18.323   2.551  14.540  0.1140 -0.0639  0.0401
 9344W        W25478  13.639   4.325   5.458  0.0009 -0.1586  0.0654
 9345W        W25479   8.539  11.388   3.346 -0.2020 -0.1379  0.2467
 9346W        W25480   9.235   5.492  15.018  0.1345  0.0450  0.3083
 9347W        W25481   0.375  17.381  12.736 -0.0510 -0.1749  0.1013
 9348W        W25482  11.929   3.577   1.116  0.0811  0.0380 -0.1051
 9349W        W25483   6.846   9.158   4.210  0.0142 -0.0091  0.2002
 9350W        W25484  12.011   2.264   0.060 -0.3650 -0.4655 -0.1279
 9351W        W25485   9.895  12.833   4.440  0.2126  0.1809 -0.1998
 9352W        W25486   5.350   0.115  13.804 -0.0775  0.1560 -0.0021
 9353W        W25487  13.529   6.218   4.366  0.0072  0.0591  0.3730
 9354W        W25488  16.243   5.229  14.572 -0.2805  0.0373  0.1743
 9355W        W25489   4.450  15.506   0.647 -0.1728 -0.0516 -0.0085
 9356W        W25490  15.711   3.425   1.974  0.1357  0.1153 -0.1889
 9357W        W25491  15.013  15.367  11.966  0.0858  0.0257 -0.1768
 9358W        W25492  10.352   3.662   2.836  0.0090 -0.0281  0.0750
 9359W        W25493  13.997   9.912  11.894  0.1093  0.4997  0.2110
 9360W        W25494  12.999  17.580  12.035  0.1674  0.0608 -0.0621
 9361W        W25495   1.046   0.972   3.331  0.1336  0.1392 -0.1483
 9362W        W25496  16.653  16.829  11.539 -0.1344 -0.0439 -0.3219
 9363W        W25497  15.288   2.040   4.739 -0.0045  0.0228  0.0672
 9364W        W25498  15.302  14.461   4.080  0.2918  0.0459  0.2656
 9365W        W25499  10.932   6.424   2.746 -0.0046  0.3296 -0.1984
 9366W        W25500   0.034   2.585   2.695  0.0583  0.0145  0.0214
 9367W        W25501  15.253   4.040   2.809  0.0569 -0.3157  0.1741
 9368W        W25502   7.019  11.033   1.044  0.0530  0.0094  0.2242
 9369W        W25503  12.725   6.561  11.816 -0.1995 -0.1504  0.1124
 9370W        W25504  10.927  13.229   4.635 -0.0675  0.1226 -0.2523
 9371W        W25505  14.237   4.074  13.292 -0.0793  0.3736  0.0434
 9372W        W25506  17.388   7.651   1.765 -0.1588  0.0631  0.4761
 9373W        W25507   0.900  10.993  10.724 -0.0556  0.2012 -0.0687
 9374W        W25508   6.575  14.454  10.918 -0.0214  0.0426  0.1287
 9375W        W25509   6.998   5.476   3.625  0.0807  0.0112 -0.1326
 9376W        W25510   4.495   2.243  13.746  0.0680  0.1916  0.0874
 9377W        W25511  17.936  11.123   0.052 -0.0836  0.1029 -0.0205
 9378W        W25512  16.537   3.540   5.075  0.0292  0.0210 -0.0729
 9379W        W25513   7.609  14.860   3.161  0.0798 -0.0862  0.0157
 9380W        W25514  17.699   8.631  14.228  0.3317  0.0900  0.1835
 9381W        W25515   3.209  10.066  12.841 -0.1030  0.2770  0.0517
 9382W        W25516   1.132  14.108  15.536 -0.0014 -0.0244  0.2718
 9383W        W25517  11.494   0.844  13.322 -0.0390  0.2104  0.1723
 9384W        W25518  16.996  12.019   1.454  0.1695 -0.0505  0.2460
 9385W        W25519  10.313   9.286   4.458 -0.3325  0.1085 -0.1642
 9386W        W25520  12.384   4.203   1.754 -0.2252 -0.0577  0.3606
 9387W        W25521   0.814   1.996  11.168  0.1005 -0.1184  0.3786
 9388W        W25522  11.874  12.375  15.153  0.1651 -0.2020 -0.1020
 9389W        W25523   0.275   3.747   9.703  0.0028 -0.3146 -0.1592
 9390W        W25524   9.340   1.895  13.434 -0.0387  0.0857 -0.0709
 9391W        W25525   6.917   0.454   5.271  0.2440 -0.3065 -0.2409
 9392W        W25526   2.823   8.565   2.801  0.1054 -0.2739 -0.0756
 9393W        W25527   1.180   6.381  12.585 -0.0086 -0.1559  0.1911
 9394W        W25528   9.764   9.029   0.181 -0.0680 -0.2805  0.1250
 9395W        W25529   3.252   1.050  15.377  0.0722  0.0558 -0.0939
 9396W        W25530   1.035  16.279   0.914  0.5331  0.1310  0.0504
 9397W        W25531  13.582  10.403   1.244  0.3208  0.0112 -0.0432
 9398W        W25532  14.697  11.767  14.551 -0.0729  0.0772  0.1407
 9399W        W25533   6.120   1.975  13.498  0.0422 -0.0513 -0.0652
 9400W        W25534   4.266   2.591   4.875 -0.2349  0.0824  0.2085
 9401W        W25535  13.732   6.911   3.015  0.1804 -0.1668  0.2579
 9402W        W25536  12.840   9.154  14.578  0.4435  0.2703 -0.1045
 9403W        W25537   6.560   5.459   2.293  0.2256  0.4930  0.1604
 9404W        W25538  11.753  13.295   2.310  0.0957 -0.0576  0.1638
 9405W        W25539   9.107  11.309   0.674 -0.2113  0.2374 -0.2209
 9406W        W25540  10.819   8.676   3.864 -0.0712  0.2669  0.1245
 9407W        W25541   3.796  12.755   2.354  0.0757 -0.0772 -0.0253
 9408W        W25542   9.298  14.067  12.372  0.0059 -0.1085  0.3525
 9409W        W25543   2.045  15.674  15.342  0.2280  0.0993 -0.2088
 9410W        W25544   4.986  16.176   0.632  0.2952  0.2845 -0.0541
 9411W        W25545  16.523   1.382  10.219 -0.0495 -0.1150  0.0462
 9412W        W25546   5.433  13.035   2.110 -0.0384 -0.2066 -0.3113
 9413W        W25547   0.645   3.747  15.258  0.1074 -0.2901  0.1123
 9414W        W25548  17.835  15.246  10.725 -0.3328  0.2747 -0.0223
 9415W        W25549  12.740   2.779  10.805  0.1597 -0.4038 -0.1382
 9416W        W25550  16.110  15.672  11.714  0.2402 -0.0355  0.0067
 9417W        W25551  14.598  17.062  13.107  0.1468  0.2170  0.1470
 9418W        W25552  13.676   3.785   0.048  0.2156  0.0246 -0.1188
 9419W        W25553   9.985  17.273   4.178 -0.3408  0.0860 -0.2185
 9420W        W25554   7.052   9.761  11.271 -0.1018  0.0470 -0.0939
 9421W        W25555  16.966  18.430  11.755 -0.1184  0.3233  0.2618
 9422W        W25556   4.067   7.837   3.778 -0.1343 -0.0156  0.0607
 9423W        W25557   5.480   4.454  15.621 -0.1070  0.1465  0.0086
 9424W        W25558  10.945  14.765  13.966  0.1995 -0.0462  0.1175
 9425W        W25559   0.040  17.404   2.171 -0.2862  0.0136  0.1605
 9426W        W25560  18.352   8.601   0.199 -0.1118 -0.0587 -0.3638
 9427W        W25561  18.166  13.627   3.406 -0.1846 -0.4719  0.3759
 9428W        W25562  18.198  12.257  11.371  0.0677  0.1402 -0.1391
 9429W        W25563   2.863  10.819  10.947 -0.1161  0.1618 -0.1403
 9430W        W25564  13.394   5.897   0.077 -0.3531 -0.0448 -0.1057
 9431W        W25565   0.349  14.147   0.772 -0.1531  0.1410 -0.2243
 9432W        W25566  17.898  17.157   2.909  0.0298 -0.0202  0.1466
 9433W        W25567  17.755   9.399  10.565 -0.1095 -0.3931  0.1564
 9434W        W25568  15.268  18.351  12.475  0.0935 -0.0870 -0.2790
 9435W        W25569  11.027   6.072  11.277  0.1442  0.0579 -0.0579
 9436W        W25570  18.321   9.774  13.088 -0.1410 -0.1339  0.0866
 9437W        W25571   4.768   5.307   2.096  0.1684  0.1851 -0.3211
 9438W        W25572   3.995  10.013  12.999  0.3539  0.2264  0.0398
 9439W        W25573   1.448   6.509   5.984  0.0334  0.0561  0.2942
 9440W        W25574  15.966   2.497   3.404 -0.1687  0.0524 -0.0095
 9441W        W25575  12.663   3.994   5.524  0.0209  0.0320 -0.4034
 9442W        W25576   8.278  14.600  14.521  0.4374 -0.1701 -0.0474
 9443W        W25577  16.931  10.324  10.944  0.0830 -0.2168  0.0819
 9444W        W25578   2.728   8.090   2.477  0.2487  0.3524 -0.0930
 9445W        W25579   9.307   1.128  11.371 -0.3378  0.2623 -0.0505
 9446W        W25580  11.130   2.941   5.357  0.0802 -0.2156 -0.1413
 9447W        W25581  10.554   6.225   2.486  0.0529  0.1650 -0.0220
 9448W        W25582  10.441   4.656  11.545  0.2730  0.1987  0.0803
 9449W        W25583  13.298   6.816   0.008 -0.1437 -0.1293 -0.1144
 9450W        W25584   8.442  14.213  12.098 -0.1849  0.0541 -0.1148
 9451W        W25585  12.894  14.027   5.230 -0.2504 -0.0781  0.1761
 9452W        W25586  12.649  11.865   0.092  0.3069  0.2972 -0.1568
 9453W        W25587  14.470   8.182  15.029  0.0136 -0.0516  0.2197
 9454W        W25588   6.319   9.224   4.261 -0.0939  0.0235 -0.4986
 9455W        W25589   9.245  14.954   1.396 -0.2176 -0.2116  0.0691
 9456W        W25590   8.782  12.146   2.828  0.0534 -0.0680 -0.1058
 9457W        W25591  16.302  17.704  13.156  0.0622 -0.0671 -0.0213
 9458W        W25592   0.211   2.433  14.943  0.0292  0.0271  0.3567
 9459W        W25593   9.251   9.574  12.649 -0.0639  0.0634  0.1477
 9460W        W25594   1.835   0.313   5.166 -0.1016 -0.3610  0.1293
 9461W        W25595   2.847   0.946   2.214  0.1122  0.1107  0.3135
 9462W        W25596   5.853  17.555   4.703 -0.0264  0.0135  0.1719
 9463W        W25597   0.373   9.456  11.364  0.0974 -0.0478  0.0076
 9464W        W25598  12.992   9.275   0.665  0.2910  0.1007  0.3533
 9465W        W25599  16.765  17.119   1.961  0.1467 -0.0131 -0.1228
 9466W        W25600   1.725   6.219   1.391  0.1473  0.0860 -0.2224
 9467W        W25601   1.806   0.382   1.779 -0.1054 -0.1985  0.2198
 9468W        W25602  12.585   0.036   2.583  0.0544  0.1695  0.2441
 9469W        W25603  10.244   3.392  12.891  0.1696 -0.1037  0.0273
 9470W        W25604  18.007  13.601  14.210  0.1697  0.0632 -0.3175
 9471W        W25605   8.075   2.495  11.796 -0.2555 -0.4627 -0.1170
 9472W        W25606  13.921   4.145  14.688  0.1805  0.2721  0.0554
 9473W        W25607   8.855   5.743  13.822 -0.1150  0.0049  0.3041
 9474W        W25608  11.744  11.597   5.627 -0.3224  0.0109  0.2171
 9475W        W25609   5.498  17.122   5.734  0.1504 -0.3006 -0.1396
 9476W        W25610  12.233  17.082  11.325  0.0202 -0.1668  0.0092
 9477W        W25611   0.915   8.185   5.152 -0.1014  0.1349  0.0879
 9478W        W25612  18.181  18.456   1.573  0.1421  0.4168 -0.1269
 9479W        W25613  15.584  17.148  10.138 -0.1628  0.0498  0.1295
 9480W        W25614  13.327  14.044  12.968  0.1779  0.0882  0.0595
 9481W        W25615   3.113   6.839  15.195  0.1862  0.0178 -0.0021
 9482W        W25616   1.889  16.976   0.870  0.4118  0.3758 -0.2743
 9483W        W25617  11.694   3.614  13.425 -0.0365 -0.2236 -0.6539
 9484W        W25618   6.564  13.448   2.974  0.1524  0.0056  0.4412
 9485W        W25619  11.397  10.633   5.883  0.1983  0.0978 -0.0426
 9486W        W25620   6.121  15.304   1.243  0.0287  0.0619 -0.0614
 9487W        W25621  10.683   7.605   5.056 -0.1092 -0.0217  0.0302
 9488W        W25622  12.274  12.055   4.951  0.1167  0.1905  0.1174
 9489W        W25623   4.005   4.135   2.282 -0.0051  0.0858  0.0283
 9490W        W25624  14.054  13.973   4.609  0.0001  0.1003 -0.1482
 9491W        W25625   5.168   2.286  15.439 -0.0929 -0.1212  0.0634
 9492W        W25626   3.301   0.118   5.555 -0.1002  0.2091  0.2270
 9493W        W25627   9.129  16.830   3.133  0.1932  0.0327 -0.0459
 9494W        W25628   9.352   1.586  15.029  0.2888 -0.0947 -0.0951
 9495W        W25629   4.333  13.545   0.978 -0.1861  0.2317 -0.0965
 9496W        W25630  11.037   3.477  14.346 -0.2935 -0.1676 -0.0166
 9497W        W25631  15.563  16.302   0.137 -0.3378  0.0230  0.1100
 9498W        W25632  14.254   3.504   1.326 -0.3014 -0.0248  0.2238
 9499W        W25633   4.671  10.881  10.266 -0.2554 -0.0748 -0.0451
 9500W        W25634  12.033  15.137   0.551  0.2440 -0.1779 -0.0298
 9501W        W25635   4.549  17.291   1.991  0.0681 -0.0299  0.2026
 9502W        W25636   3.845   7.348   2.477  0.0266 -0.0236 -0.0847
 9503W        W25637  16.551   5.991   4.871 -0.0416 -0.0741  0.2524
 9504W        W25638  14.257   0.799   3.344 -0.0302 -0.1523  0.2945
 9505W        W25639   5.959   9.109   0.617  0.0364  0.0924 -0.0190
 9506W        W25640   1.191  14.682  10.910  0.1826 -0.2037 -0.3048
 9507W        W25641  10.531   2.463  12.837  0.1289  0.0128 -0.3395
 9508W        W25642   6.394   1.299   1.520  0.0276  0.1411  0.1235
 9509W        W25643  13.473  17.741  13.314 -0.2674 -0.1999 -0.1202
 9510W        W25644  14.177   9.658  14.341 -0.0232 -0.0840  0.0002
 9511W        W25645   0.215   0.600  11.088 -0.0189  0.0407 -0.0476
 9512W        W25646   0.027  14.036  11.208  0.3006 -0.1741  0.0883
 9513W        W25647  13.613   3.314   0.727 -0.1296 -0.1287 -0.2087
 9514W        W25648   0.654   5.315   3.886  0.0761 -0.5470 -0.4960
 9515W        W25649  16.304  14.433   1.038 -0.3671 -0.0503  0.0640
 9516W        W25650  11.454  10.013   2.088  0.1534  0.1046 -0.2039
 9517W        W25651   6.280   6.997  15.211  0.2060  0.2715 -0.0195
 9518W        W25652   5.437   8.833  14.987 -0.1474  0.2558  0.0238
 9519W        W25653   8.607   7.401   1.598  0.0864  0.2001 -0.0280
 9520W        W25654   7.897   7.681  13.152 -0.0945  0.1183  0.3317
 9521W        W25655  10.744   8.046   2.769 -0.0916  0.0171  0.0720
 9522W        W25656   6.768   8.538  13.427  0.0406  0.3258  0.2147
 9523W        W25657   4.450   2.840  14.897 -0.1312 -0.2167 -0.0890
 9524W        W25658  11.244  14.695  11.323  0.3138 -0.1586  0.0072
 9525W        W25659  18.147  14.578  13.904 -0.1719 -0.3674 -0.1053
 9526W        W25660   5.068  16.435  14.239  0.2325 -0.0935 -0.1163
 9527W        W25661  14.250   1.704   1.675  0.1773 -0.2836 -0.2677
 9528W        W25662  15.959   7.482  12.510 -0.0402  0.2471 -0.1337
 9529W        W25663  17.214  17.250  15.809 -0.1381 -0.0786  0.2068
 9530W        W25664   9.321   6.108  13.195 -0.1535  0.1292 -0.1615
 9531W        W25665   6.165   0.754  13.375  0.3476  0.1165 -0.1243
 9532W        W25666   9.273  12.599   1.446  0.0637 -0.1637 -0.1893
 9533W        W25667  11.352  15.796  14.774  0.1170 -0.1129 -0.0279
 9534W        W25668   3.066  13.589   4.080 -0.3219  0.2137  0.3288
 9535W        W25669  14.550  15.267  11.748 -0.1023  0.0219 -0.1386
 9536W        W25670   0.278  13.328   0.245  0.0314  0.2441  0.2038
 9537W        W25671   7.822   6.270  11.835  0.1026  0.1112 -0.0707
 9538W        W25672   9.043  15.547   5.568 -0.0793  0.1602 -0.1196
 9539W        W25673   4.544   9.287   1.038  0.1048 -0.1479 -0.1239
 9540W        W25674  14.385   4.104   2.405 -0.0573 -0.2934 -0.2846
 9541W        W25675  15.013  11.933  12.634 -0.1035  0.1610  0.1854
 9542W        W25676   5.108   9.593  10.679 -0.0355  0.2716  0.2707
 9543W        W25677  10.831  13.288   5.123 -0.1015 -0.0846  0.0787
 9544W        W25678  12.357   6.761   3.000 -0.0556  0.0741 -0.1451
 9545W        W25679  16.754   0.496   0.378  0.2090 -0.0105 -0.2015
 9546W        W25680  12.650  12.719   4.309 -0.0268 -0.0191  0.0358
 9547W        W25681   4.971  15.374  11.275 -0.1978  0.1888 -0.2106
 9548W        W25682   6.184   9.060  13.740  0.1473  0.1455 -0.0623
 9549W        W25683   7.937  15.172  13.908  0.1677  0.1516  0.0361
 9550W        W25684  12.907   4.238  13.874 -0.2482  0.0804  0.0266
 9551W        W25685   8.500   0.835   4.103  0.3199  0.1131 -0.3272
 9552W        W25686   3.366   1.385   0.575 -0.2872 -0.2175  0.0870
 9553W        W25687  17.406   7.484  11.609 -0.2841  0.1367  0.0175
 9554W        W25688   5.400   9.944   1.736  0.1320  0.1731 -0.4670
 9555W        W25689  15.335  14.043   0.126  0.2688 -0.0267  0.1039
 9556W        W25690   4.342  10.462  11.658 -0.0236  0.5035 -0.0278
 9557W        W25691  13.628   1.143   1.821 -0.0931  0.3447  0.0828
 9558W        W25692   1.554   0.635  14.195  0.0746  0.2134 -0.0648
 9559W        W25693  13.439  11.519   0.493  0.0207 -0.0443 -0.0696
 9560W        W25694   0.252   9.468  15.625 -0.2255 -0.4935 -0.1708
 9561W        W25695  17.484  10.078  14.644 -0.0348  0.0326 -0.1343
 9562W        W25696  13.208   7.046  11.914 -0.4507  0.1468 -0.2716
 9563W        W25697  13.085   7.695   1.041  0.4090  0.0350 -0.3204
 9564W        W25698   6.192   6.648   4.643  0.2222 -0.2170 -0.0753
 9565W        W25699   7.695   8.227  13.154 -0.1925 -0.2895  0.3140
 9566W        W25700   2.443  17.918  14.979  0.4762 -0.0892 -0.1351
 9567W        W25701  14.898  10.556   3.875  0.1611 -0.2115 -0.1483
 9568W        W25702   3.453   3.087  13.059  0.0786  0.0210 -0.2547
 9569W        W25703   0.815   8.303  11.427 -0.0774  0.2652  0.2088
 9570W        W25704  11.361  17.380   2.371  0.1104 -0.2203  0.3404
 9571W        W25705  15.989   7.591   3.001  0.1269  0.1870  0.3025
 9572W        W25706   9.990   0.865  13.752 -0.0896 -0.3530 -0.0298
 9573W        W25707   8.718   8.989   5.420  0.3136 -0.1650  0.0928
 9574W        W25708  10.586   8.489   3.008 -0.3255 -0.0894  0.3281
 9575W        W25709   0.762  12.378   2.060  0.1404 -0.1537  0.0468
 9576W        W25710   5.309   8.045   1.984 -0.2741  0.0011 -0.1089
 9577W        W25711  15.780   7.012  10.706 -0.0902  0.3664 -0.1147
 9578W        W25712  10.800  11.623  11.522 -0.0314 -0.0079  0.0870
 9579W        W25713   7.853  15.527   2.219  0.3923 -0.1553 -0.0450
 9580W        W25714   2.561  17.568   0.568 -0.2806 -0.2283 -0.2672
 9581W        W25715  13.695  16.273   5.416  0.1104 -0.3447  0.0072
 9582W        W25716   3.905  14.229   4.547 -0.1243 -0.0637  0.0621
 9583W        W25717  16.300   7.732   3.425  0.3091  0.3009 -0.4506
 9584W        W25718   1.609  17.860  11.732  0.5362  0.1567 -0.2614
 9585W        W25719  13.127   9.729   0.970  0.1060  0.0401 -0.2134
 9586W        W25720  15.335   3.095  12.805 -0.0443  0.0154  0.1146
 9587W        W25721   8.971   9.164   1.127  0.1128  0.2269 -0.1122
 9588W        W25722  12.724   2.299  13.093  0.2326 -0.1781 -0.2316
 9589W        W25723  13.167  10.217  14.724 -0.2550  0.0831 -0.1717
 9590W        W25724  10.665   6.380  12.801 -0.2703  0.0824 -0.0938
 9591W        W25725   9.011   4.078  14.076 -0.2664 -0.1233 -0.2603
 9592W        W25726   9.843   1.671  11.993 -0.3563  0.0531  0.3619
 9593W        W25727  14.422  17.184   3.538  0.1689 -0.1967 -0.0677
 9594W        W25728  11.428   8.814   2.338 -0.2494 -0.0296 -0.0908
 9595W        W25729  15.304   7.456   2.569  0.0445 -0.0806 -0.2117
 9596W        W25730   9.743   8.737  11.688  0.0420 -0.2136  0.2163
 9597W        W25731  10.186  15.096  10.722 -0.1191 -0.2656  0.1202
 9598W        W25732  13.874  11.990  15.543  0.1427 -0.2881 -0.0666
 9599W        W25733   2.055   6.678  14.920 -0.0285  0.1975 -0.2208
 9600W        W25734  17.237  15.679   0.327  0.0087 -0.3843 -0.3473
 9601W        W25735  15.955  10.352  13.315 -0.3095  0.3300  0.1239
 9602W        W25736  12.052   7.118  14.880  0.1589 -0.4072  0.0490
 9603W        W25737  11.404   9.384   5.023  0.1253  0.4347 -0.2882
 9604W        W25738   8.208   7.443   1.268 -0.1278  0.3556 -0.1986
 9605W        W25739   2.691   5.951   2.844  0.0465 -0.3011 -0.1278
 9606W        W25740   7.177   5.404  10.480  0.0664 -0.1951  0.2191
 9607W        W25741  15.834   0.919   9.862  0.2542 -0.2776 -0.0975
 9608W        W25742   4.965  12.910   3.997  0.0677 -0.1035 -0.0142
 9609W        W25743   5.740   7.836   4.055  0.1185  0.0301  0.0589
 9610W        W25744   1.834   7.891   4.862 -0.0646 -0.1680 -0.3651
 9611W        W25745   1.366   7.671  10.825  0.0584 -0.2906 -0.2063
 9612W        W25746   6.550  15.952   3.876 -0.2154  0.0224  0.0814
 9613W        W25747  14.791   8.420  10.244 -0.3140 -0.0635  0.1178
 9614W        W25748  16.108  15.698   5.177  0.1212 -0.0947 -0.2218
 9615W        W25749   2.007   1.841  11.710  0.0278  0.0380 -0.1120
 9616W        W25750  18.248  15.910  14.210 -0.1903  0.1894  0.1446
 9617W        W25751  14.534  17.946   0.357 -0.0284  0.1318  0.1801
 9618W        W25752  13.373  15.062   4.218  0.2160  0.1340  0.1444
 9619W        W25753  11.146  11.532  11.947 -0.0168 -0.2201  0.0437
 9620W        W25754   6.530   5.459  13.394 -0.0371 -0.3189  0.0208
 9621W        W25755  11.993   6.507   3.642 -0.1292  0.2360 -0.0964
 9622W        W25756  18.073   1.949   5.341  0.2021  0.0536  0.0628
 9623W        W25757   8.442  16.333   5.337  0.3453 -0.1129 -0.0018
 9624W        W25758  12.448  14.349   1.312  0.0430 -0.2486  0.1925
 9625W        W25759   1.749  10.646  13.829 -0.0994  0.0192  0.2021
 9626W        W25760  10.363  11.262   4.057  0.3587  0.0981  0.3272
 9627W        W25761   0.574   3.014   3.807  0.0883  0.1254  0.0070
 9628W        W25762   4.523   4.217  11.871  0.0253  0.0240  0.0592
 9629W        W25763  10.341   8.673  15.514 -0.1122  0.0405  0.2585
 9630W        W25764   0.314   4.535  10.649  0.2310 -0.4316  0.1341
 9631W        W25765   8.138  16.061  12.198 -0.2104  0.1631 -0.4472
 9632W        W25766   7.762  12.211  14.762 -0.0616 -0.1303  0.1806
 9633W        W25767  16.149   8.821  12.645 -0.0566 -0.3042 -0.1274
 9634W        W25768  14.733   1.788   3.450  0.0206  0.0326  0.1877
 9635W        W25769   4.497   2.492   6.382 -0.0253  0.1439  0.0004
 9636W        W25770  12.691   8.244   4.613 -0.2099 -0.1912 -0.1226
 9637W        W25771   6.415  18.232   0.334  0.1684 -0.1521  0.0549
 9638W        W25772  15.941   7.476   2.205 -0.0488 -0.3102  0.1369
 9639W        W25773  15.587   0.822   4.121  0.0509 -0.0056  0.0756
 9640W        W25774  16.119   1.350   4.897  0.0009  0.0987 -0.3030
 9641W        W25775  12.714   8.032   1.274  0.1658  0.1557  0.0864
 9642W        W25776   6.600  11.425  11.386 -0.0153 -0.2792  0.4007
 9643W        W25777   9.600   3.358  10.940  0.1161  0.2438  0.1989
 9644W        W25778  11.254  17.487   0.237 -0.3307  0.0361  0.3488
 9645W        W25779  10.695  11.448   0.709 -0.1975  0.0751  0.0718
 9646W        W25780   0.765   4.862  13.962  0.0614  0.3773  0.3765
 9647W        W25781   3.121  14.263   3.429  0.1771  0.2887 -0.0869
 9648W        W25782  10.908  13.250  12.948 -0.1144 -0.0164 -0.0556
 9649W        W25783   8.215   4.527  10.612 -0.0805  0.0098 -0.0363
 9650W        W25784   8.307  12.385  14.786 -0.2326  0.1259 -0.1063
 9651W        W25785  17.442   2.577   0.958 -0.2812  0.1550 -0.4506
 9652W        W25786  10.376  16.771  15.226 -0.1212  0.2490  0.0917
 9653W        W25787   1.362   6.807  10.724 -0.0732  0.1893  0.4067
 9654W        W25788  12.286  14.352  13.139  0.1729  0.1591  0.0350
 9655W        W25789   9.712  14.500   3.845 -0.2591  0.1748 -0.1728
 9656W        W25790  12.481  16.439   2.132 -0.0539  0.0750 -0.2855
 9657W        W25791  14.236  13.618  11.900 -0.0031 -0.2621 -0.2373
 9658W        W25792  17.321  17.014  13.327 -0.0240 -0.1987  0.0849
 9659W        W25793  14.812  17.547  14.748  0.2226  0.1613 -0.0988
 9660W        W25794   3.583  14.366   5.435  0.1738  0.2035  0.0464
 9661W        W25795   3.082   2.273   5.403  0.0749  0.0555  0.4563
 9662W        W25796  18.076  16.004   1.834 -0.1674  0.0824  0.1013
 9663W        W25797  12.522  11.150   2.430  0.0065 -0.3608 -0.1567
 9664W        W25798  11.654   2.482  11.778  0.0592 -0.0613  0.0858
 9665W        W25799   7.615  10.844   1.909  0.0429 -0.2846 -0.1562
 9666W        W25800  15.062   4.625  11.822 -0.1570  0.0694  0.2178
 9667W        W25801  14.021   9.360   0.671 -0.0617  0.0714  0.1122
 9668W        W25802   5.928   4.431   5.655  0.1544 -0.0650  0.0280
 9669W        W25803   9.686   7.025   4.076 -0.0362 -0.0730  0.1547
 9670W        W25804  13.683  15.983  15.420 -0.0032 -0.0569 -0.0510
 9671W        W25805  10.996  16.262  12.785 -0.0074  0.2526 -0.1414
 9672W        W25806   6.397   6.469  12.434 -0.2292 -0.1078 -0.2959
 9673W        W25807   3.420   7.009   1.730 -0.1155  0.0411 -0.1842
 9674W        W25808  13.964   7.239   2.035 -0.0322  0.3338 -0.0099
 9675W        W25809  16.363  16.792  13.195 -0.1027 -0.2652  0.0828
 9676W        W25810   3.491  17.548   5.080  0.1083  0.0511  0.0290
 9677W        W25811   1.337   5.208  12.137  0.0620  0.0793  0.3701
 9678W        W25812   3.308   7.739   1.179  0.3054 -0.0739  0.0839
 9679W        W25813   8.598  14.198   0.542 -0.0630 -0.1173 -0.1524
 9680W        W25814   8.111   2.350  11.271  0.2997 -0.0659 -0.0332
 9681W        W25815  13.987  17.862   4.396 -0.0922  0.1230  0.4684
 9682W        W25816  15.519   7.880  15.139  0.1085 -0.1279 -0.0475
 9683W        W25817   1.395  18.301   2.534  0.1575  0.1234  0.2460
 9684W        W25818  16.905  14.973   5.110 -0.0683 -0.0456  0.0257
 9685W        W25819   2.240   8.999   2.169  0.0246  0.4033  0.4133
 9686W        W25820  10.694   5.084   3.538 -0.2418 -0.0935  0.0442
 9687W        W25821  10.674  14.963   1.035  0.1869 -0.0731 -0.0947
 9688W        W25822   8.756  13.462  13.092 -0.0110  0.1235  0.1850
 9689W        W25823  16.487   3.960  12.957  0.0987 -0.0246 -0.0252
 9690W        W25824   1.585   8.263  15.843 -0.0378  0.2661  0.0595
 9691W        W25825   6.897   1.687   0.904 -0.0623  0.1249 -0.2006
 9692W        W25826   5.428  10.123   3.386 -0.1083  0.0225 -0.3804
 9693W        W25827  18.184   9.203  11.273 -0.2644 -0.2560 -0.2213
 9694W        W25828   2.374  10.989   5.443  0.0518 -0.1877  0.0939
 9695W        W25829   4.532  11.038   3.614 -0.1508 -0.0401 -0.1401
 9696W        W25830   9.002   6.426   3.828 -0.0677  0.1996  0.1664
 9697W        W25831  12.027  16.665   5.493 -0.0969 -0.2922  0.0481
 9698W        W25832  17.803  14.000  12.132 -0.2668 -0.1988  0.0859
 9699W        W25833  18.068  13.611  13.707  0.1460  0.1255 -0.2588
 9700W        W25834   1.974   7.643   1.421 -0.4013 -0.1586 -0.1011
 9701W        W25835  13.049   4.555   2.823 -0.0906  0.1048 -0.0660
 9702W        W25836  10.846  14.791   1.492 -0.0529  0.4091 -0.1596
 9703W        W25837   7.414   5.184   2.877 -0.0359 -0.0469 -0.0258
 9704W        W25838   5.337  16.125   3.393 -0.3099 -0.1424  0.1015
 9705W        W25839  14.865   6.915  14.610 -0.1495  0.1042  0.1048
 9706W        W25840   0.253   0.602   4.761 -0.2854  0.0510  0.1118
 9707W        W25841  10.107   3.389  15.240 -0.1121  0.0695 -0.0159
 9708W        W25842   5.251   6.332  15.169 -0.0044 -0.0666  0.0329
 9709W        W25843   8.175   4.270  12.448 -0.1438  0.0225 -0.0799
 9710W        W25844   5.474   6.804  12.692 -0.2895  0.0996  0.1764
 9711W        W25845   9.162  10.950  13.668  0.0470 -0.1886  0.0455
 9712W        W25846  12.942  14.849  15.397 -0.1678 -0.0241 -0.1139
 9713W        W25847   7.589   3.223   3.704 -0.1274  0.0651  0.0098
 9714W        W25848  17.114  10.622   5.024 -0.1702  0.2556  0.1561
 9715W        W25849   8.448   9.866   5.367 -0.0718 -0.1163  0.2656
 9716W        W25850  14.868  11.514  15.433 -0.0561 -0.2487  0.0640
 9717W        W25851   5.278   0.730   4.852  0.3930 -0.0441 -0.1659
 9718W        W25852   4.607   8.817  12.856  0.3070 -0.0899 -0.0943
 9719W        W25853   9.369  11.711   4.644 -0.6417 -0.0419  0.2588
 9720W        W25854  11.768   4.971   0.908  0.0903 -0.0595 -0.0633
 9721W        W25855   3.032  16.329   3.797 -0.0865 -0.1024  0.1585
 9722W        W25856   5.209  12.477  10.733 -0.0366  0.1322 -0.1360
 9723W        W25857  11.105   8.157   2.383 -0.5697 -0.0789  0.0288
 9724W        W25858   1.059   9.153   0.059  0.2897 -0.1103  0.1857
 9725W        W25859   9.669  10.762   6.133 -0.0995  0.2701  0.1955
 9726W        W25860   0.533  15.520  15.163 -0.0255  0.1756  0.1324
 9727W        W25861  17.025  12.343   2.854 -0.2842 -0.1156  0.1285
 9728W        W25862  14.284  14.185   1.690 -0.0582  0.0788  0.0302
 9729W        W25863  14.639  14.916   1.811  0.1325  0.1260  0.0910
 9730W        W25864  14.126   3.337   4.866  0.0824 -0.0698  0.0406
 9731W        W25865  18.375  17.055  11.114  0.0049 -0.2841 -0.0845
 9732W        W25866   6.909  11.322   0.119 -0.1892 -0.3150  0.1382
 9733W        W25867   6.035  17.675   4.157 -0.1550 -0.3060  0.2595
 9734W        W25868  12.741  10.480  11.171 -0.0395  0.1902 -0.1095
 9735W        W25869   3.195   7.090   3.117 -0.4327 -0.2965 -0.2052
 9736W        W25870   8.071  12.056  14.412 -0.0622 -0.1241 -0.0835
 9737W        W25871   7.397  16.033   5.390 -0.2387  0.0047 -0.1569
 9738W        W25872  15.505  13.474  14.934  0.1482  0.0613 -0.1727
 9739W        W25873  14.981  10.223   2.904 -0.0343 -0.0124 -0.1251
 9740W        W25874   5.998   5.030   9.967 -0.1089 -0.2818  0.1072
 9741W        W25875  17.227  11.686  13.675  0.0516  0.1213  0.3333
 9742W        W25876   7.639   4.940   4.651  0.0998  0.0667  0.1975
 9743W        W25877   2.967   7.016  11.168 -0.0700  0.0225 -0.0889
 9744W        W25878   3.419  12.983  12.671 -0.0265  0.0223  0.0295
 9745W        W25879   6.559  18.354  13.279  0.0733  0.3175  0.0420
 9746W        W25880   0.913  14.336   3.851  0.1067  0.0305 -0.0346
 9747W        W25881  15.304   4.957   0.265  0.0605 -0.2751  0.1289
 9748W        W25882   3.519  14.344   2.238 -0.2075  0.3344 -0.0828
 9749W        W25883   0.042  15.621  15.006  0.1222 -0.1065  0.0647
 9750W        W25884   0.525  15.759  13.713 -0.2002  0.2688  0.1184
 9751W        W25885   4.670   9.801   3.298  0.1137  0.1049 -0.0985
 9752W        W25886  17.769  17.048   2.043  0.3990  0.1627 -0.1120
 9753W        W25887  18.273   7.662   5.303 -0.1765  0.1294  0.1892
 9754W        W25888   4.142   8.629   3.629 -0.1779  0.1554 -0.2430
 9755W        W25889   3.762   7.447   3.758 -0.1681 -0.1981 -0.1473
 9756W        W25890  12.117   5.017  13.287 -0.1963  0.2329 -0.0358
 9757W        W25891  12.753  14.710  11.472  0.0583 -0.1220  0.0342
 9758W        W25892   1.429   8.124   5.116 -0.0146  0.4640 -0.0552
 9759W        W25893  15.701   7.105   3.141  0.1261  0.0522  0.1669
 9760W        W25894   9.174  11.981   0.795  0.0699  0.1512  0.0610
 9761W        W25895   5.943   9.593   3.798 -0.2521 -0.2973  0.0653
 9762W        W25896  14.429  11.264   6.222 -0.1519  0.3921 -0.1617
 9763W        W25897  14.783   8.630  14.198  0.1959  0.2651 -0.0276
 9764W        W25898  12.562   8.021   0.759 -0.0709  0.1634 -0.2931
 9765W        W25899  11.748  10.863   1.063 -0.3340  0.1627 -0.0894
 9766W        W25900   8.725  17.503   4.307 -0.2051  0.1016 -0.0604
 9767W        W25901  16.244   0.017   4.440 -0.0349 -0.3460 -0.2248
 9768W        W25902   7.168  15.905   4.618  0.2607 -0.0495 -0.0753
 9769W        W25903   8.330  17.965  11.283 -0.0839  0.0205 -0.0866
 9770W        W25904   1.542  16.287  11.447 -0.0905 -0.0514 -0.3926
 9771W        W25905   5.178   1.818   3.008 -0.1127 -0.3460 -0.2828
 9772W        W25906   7.615   8.159   3.285 -0.0478  0.0400  0.2370
 9773W        W25907   7.020  13.443  15.272  0.2278 -0.1391  0.2765
 9774W        W25908  11.234   6.022  14.568  0.0794 -0.1297 -0.2100
 9775W        W25909   8.313  13.042  15.338 -0.0110 -0.0683  0.1499
 9776W        W25910   4.617   8.447  14.345  0.2933 -0.0196 -0.0858
 9777W        W25911   8.411  16.607   1.357 -0.2212 -0.2708 -0.0217
 9778W        W25912  18.115  13.958  12.640 -0.0420 -0.0471  0.0069
 9779W        W25913   3.207   7.441  11.977 -0.0635 -0.0579  0.0369
 9780W        W25914   3.649   8.617   1.555 -0.3272  0.0262 -0.0695
 9781W        W25915  10.180   1.247  14.661 -0.0931 -0.1420  0.1490
 9782W        W25916  18.409   4.084   4.519 -0.2822  0.0683 -0.1013
 9783W        W25917   5.689   7.386  14.244  0.2546 -0.1626  0.1090
 9784W        W25918  16.113   9.843   4.658 -0.1240  0.2921  0.1264
 9785W        W25919  10.530   7.130  11.706  0.1313  0.3643 -0.2856
 9786W        W25920   2.752  15.258  14.954  0.1691  0.0207 -0.3855
 9787W        W25921   9.986   9.056  12.678 -0.1123 -0.2960  0.2044
 9788W        W25922  15.852  10.717   3.770  0.0246 -0.1213 -0.0646
 9789W        W25923  13.114   9.888  13.352  0.0947 -0.1783  0.1309
 9790W        W25924  16.288  11.784  13.797 -0.4015  0.2522 -0.4039
 9791W        W25925   3.994   9.901  14.590 -0.0823 -0.0746  0.2022
 9792W        W25926  11.869   6.589  15.803 -0.0760 -0.1922 -0.1413
 9793W        W25927   8.189  17.248   3.130 -0.0664 -0.0224 -0.1220
 9794W        W25928  11.504   1.586  14.521  0.1137  0.3382  0.0494
 9795W        W25929   2.942  15.802  14.179  0.1260  0.0270 -0.1523
 9796W        W25930   6.232   5.785   4.870  0.0065 -0.2202  0.3106
 9797W        W25931   9.961   4.337   3.093 -0.5373  0.1592 -0.0159
 9798W        W25932   7.397   2.032   0.294  0.3233  0.1043 -0.0237
 9799W        W25933   6.652  15.555   2.325  0.0253  0.1538  0.2266
 9800W        W25934  10.372   2.213   4.463 -0.1425  0.2775 -0.3633
 9801W        W25935   4.682  11.306   3.214 -0.0378 -0.2348 -0.0752
 9802W        W25936  16.646   0.603   4.986  0.1943  0.1423 -0.1475
 9803W        W25937  17.413  14.188  11.766  0.1008 -0.2902  0.1392
 9804W        W25938   6.824  10.376  11.024  0.1776 -0.0106 -0.2653
 9805W        W25939   4.482   0.666   2.424  0.5236  0.1858  0.0805
 9806W        W25940  13.883  16.859   4.468  0.4149  0.0250 -0.0506
 9807W        W25941   3.940   7.055   4.121 -0.0148 -0.0742 -0.6026
 9808W        W25942  14.226  16.052  14.564  0.0132 -0.0825  0.0806
 9809W        W25943  13.671  13.527   1.754 -0.2124 -0.1408 -0.0413
 9810W        W25944   8.295  16.773  11.990 -0.0401 -0.2988 -0.1816
 9811W        W25945  13.859  10.512  15.498  0.0290 -0.3053  0.0931
 9812W        W25946   7.032   0.689   4.441 -0.1974  0.2996  0.2170
 9813W        W25947  14.294  11.688   3.490  0.2170 -0.0710  0.0230
 9814W        W25948   3.068   9.332   4.650  0.0210 -0.1189 -0.2027
 9815W        W25949  16.782  11.424   2.785 -0.1817 -0.2962  0.0749
 9816W        W25950  11.248  11.125  13.877 -0.0025  0.0725 -0.1676
 9817W        W25951   4.047   1.095  13.292  0.1505 -0.2467  0.0151
 9818W        W25952   8.478  17.074  13.271 -0.0629 -0.2138  0.1621
 9819W        W25953   8.037  14.473   1.467  0.1422  0.1358  0.1330
 9820W        W25954   2.793  14.747  14.717  0.0064 -0.1888  0.2348
 9821W        W25955  15.058  15.391   1.272 -0.2256  0.0576 -0.0491
 9822W        W25956  11.768  10.549  14.835 -0.2408  0.0592 -0.3619
 9823W        W25957  10.747  16.577  13.896  0.0459  0.3366 -0.0921
 9824W        W25958  12.514  12.390  14.351 -0.0109 -0.0891 -0.0736
 9825W        W25959   1.041  16.959   4.479 -0.0693 -0.1840  0.0561
 9826W        W25960   6.817  11.193   1.813 -0.3481  0.0749  0.3287
 9827W        W25961  11.760  10.549  13.646  0.1103 -0.0492 -0.1878
 9828W        W25962   6.725  11.832   2.182  0.3167  0.0208  0.0528
 9829W        W25963  11.631   1.570  15.335  0.1194  0.0925 -0.1470
 9830W        W25964   2.530  13.888   0.895 -0.0425  0.0985  0.0078
 9831W        W25965   9.859   9.635   5.274  0.1308 -0.0712 -0.0036
 9832W        W25966  16.321  12.184  11.236  0.1824  0.1283  0.0813
 9833W        W25967  14.105  16.176   2.393  0.0361  0.1298  0.3107
 9834W        W25968   4.041  12.623   1.283  0.2741  0.3366  0.0756
 9835W        W25969  18.451   1.984  11.029 -0.2127  0.0190  0.3600
 9836W        W25970   5.140  17.593   0.284 -0.1541  0.2713 -0.0999
 9837W        W25971   9.102   9.796   1.758 -0.2943 -0.2854 -0.0188
 9838W        W25972   8.282   4.213  13.066 -0.5229 -0.0987 -0.2824
 9839W        W25973   2.813   7.024  12.007 -0.0568 -0.1398  0.0358
 9840W        W25974   6.072  13.581   2.313  0.2234  0.1271  0.2039
 9841W        W25975   7.974  17.649   1.021 -0.0294  0.1018  0.0605
 9842W        W25976  10.426  17.060  13.235  0.2310 -0.1687 -0.1926
 9843W        W25977  15.013  18.041  12.119 -0.1446 -0.0143 -0.0073
 9844W        W25978   4.704   3.551  15.640  0.0230  0.0030  0.2290
 9845W        W25979   2.333   8.272   0.955 -0.0990  0.1233  0.1232
 9846W        W25980   8.056  16.554   1.752 -0.0347  0.0411 -0.0483
 9847W        W25981  18.200  17.384  12.043 -0.0242 -0.0806 -0.0025
 9848W        W25982  18.085  12.718  15.148  0.1306  0.1262 -0.4067
 9849W        W25983  13.677   9.921   1.216  0.2858 -0.2637  0.2813
 9850W        W25984   0.268  14.687   1.795 -0.1725  0.0114  0.1745
 9851W        W25985  11.920  15.256   3.628  0.1925 -0.1946 -0.2674
 9852W        W25986  10.157   6.230  15.383  0.0491 -0.2616  0.0706
 9853W        W25987   1.915  17.538  14.487  0.1674 -0.2096 -0.0906
 9854W        W25988   4.863   8.573  13.210 -0.1169 -0.0983 -0.0940
 9855W        W25989  10.511  10.581   2.801 -0.3549 -0.1019  0.1747
 9856W        W25990   1.463   3.168   1.688  0.1108 -0.1469 -0.4210
 9857W        W25991  15.967   0.041  15.860  0.3039 -0.0180 -0.0885
 9858W        W25992   3.795  10.603  14.417  0.2475  0.0986 -0.0161
 9859W        W25993   6.660   5.657  14.911 -0.1608  0.4276  0.0643
 9860W        W25994  15.239   3.182  15.576 -0.2428  0.2976 -0.1778
 9861W        W25995   1.678  13.139   4.158  0.0151  0.2184 -0.0712
 9862W        W25996  15.535  17.859  15.430 -0.4415  0.1496  0.0144
 9863W        W25997  13.292   0.294  14.680 -0.0342  0.0600  0.1653
 9864W        W25998  15.470  14.526  13.692 -0.1588 -0.1918 -0.2132
 9865W        W25999   0.323   8.947   4.057  0.0458 -0.0213 -0.0116
 9866W        W26000  12.688   0.253  14.026 -0.0227 -0.0037 -0.0086
 9867W        W26001   9.119  10.469  12.421  0.2068 -0.0602 -0.0789
 9868W        W26002   1.121  10.155   2.459 -0.0314  0.0555  0.0583
 9869W        W26003   3.697   0.744  13.669  0.0582 -0.0151  0.0063
 9870W        W26004   4.920   4.206   0.370  0.0550  0.1212 -0.0398
 9871W        W26005  16.134  14.329  10.619  0.0664 -0.0923  0.1156
 9872W        W26006   9.979   1.705   0.647 -0.1805 -0.2921 -0.1613
 9873W        W26007   3.091   3.020   1.644 -0.3318  0.1608  0.0198
 9874W        W26008   6.571   1.700  15.506  0.0651  0.0428 -0.0280
 9875W        W26009  13.045   1.840   2.269 -0.1502  0.2869 -0.3983
 9876W        W26010   3.909   5.016   2.175  0.0876  0.3213 -0.4472
 9877W        W26011  10.319  13.811  14.263  0.0910  0.2289 -0.1219
 9878W        W26012   6.789   2.576  14.422 -0.1146 -0.3743 -0.1385
 9879W        W26013   3.269  17.297  13.037  0.3634 -0.0234  0.1870
 9880W        W26014   9.114   6.574   4.403 -0.0491  0.2516 -0.4031
 9881W        W26015  14.252   5.092  12.531  0.1555 -0.2592  0.0213
 9882W        W26016   9.225   0.865   3.362  0.0201  0.0663 -0.0120
 9883W        W26017  12.615   7.752   4.824 -0.0144  0.3568  0.4649
 9884W        W26018  11.642   0.307  11.471  0.2502  0.1578 -0.1665
 9885W        W26019  16.266   8.482   0.009  0.1725  0.2945 -0.0312
 9886W        W26020   1.220   6.098   1.201  0.0136  0.2909  0.0041
 9887W        W26021   4.762  10.429   2.243  0.1096  0.1938 -0.1223
 9888W        W26022  10.576  12.617   1.669 -0.1333 -0.1291  0.1424
 9889W        W26023  17.857   0.243  13.232  0.2346  0.2361  0.3021
 9890W        W26024   8.211  10.329  13.785 -0.1786 -0.0111  0.1248
 9891W        W26025   5.015  17.721  15.242 -0.0464  0.0636  0.1065
 9892W        W26026  10.409  17.487   4.626  0.1310  0.2800 -0.0604
 9893W        W26027   9.529   9.370  15.729  0.3232 -0.0332  0.1204
 9894W        W26028  16.357  15.746  14.041  0.3012  0.1913 -0.2302
 9895W        W26029   7.152   7.920   4.663 -0.1096  0.0570  0.0215
 9896W        W26030  12.532   0.768  11.531 -0.1068  0.1321 -0.2890
 9897W        W26031   9.569  16.497  11.369 -0.1034  0.2150 -0.2708
 9898W        W26032   5.724  12.214  12.026 -0.0554 -0.1574  0.0814
 9899W        W26033  12.495  10.449   4.327  0.1127  0.0254  0.2686
 9900W        W26034   3.285   1.041   2.022 -0.1778  0.1492  0.2316
 9901W        W26035   5.836  13.643   5.374 -0.3983  0.2538  0.0678
 9902W        W26036   6.534   3.019  15.243  0.1294 -0.0476 -0.0565
 9903W        W26037   9.879  15.744  11.604  0.0510 -0.1487 -0.1341
 9904W        W26038  16.597   3.862  14.639  0.4243  0.1515  0.0577
 9905W        W26039   0.489   9.267   1.697  0.2108  0.2591 -0.0292
 9906W        W26040  18.217   7.796  11.956  0.1248  0.0517  0.0862
 9907W        W26041  16.114   6.209   5.928  0.1516 -0.1442 -0.0393
 9908W        W26042  16.566  10.375   2.910  0.1359  0.0027 -0.1315
 9909W        W26043   2.569   9.918  10.597  0.1165  0.3537  0.1232
 9910W        W26044   7.026  16.658  13.041 -0.0302  0.0542  0.1153
 9911W        W26045  10.575  10.347   5.414 -0.1999  0.1287 -0.0449
 9912W        W26046   5.334  13.298  14.207 -0.0828  0.2472  0.0668
 9913W        W26047  18.276  14.460   2.943  0.0668  0.2073 -0.0441
 9914W        W26048   3.926  14.424  15.803 -0.1703  0.1794 -0.0373
 9915W        W26049  14.136   8.638   1.880 -0.0260  0.0021  0.1364
 9916W        W26050  10.615  17.029   2.993 -0.0125 -0.0045  0.0352
 9917W        W26051   5.553   3.987  13.101  0.0616 -0.0058 -0.0326
 9918W        W26052   5.015  13.104   4.703  0.1319 -0.0960 -0.0202
 9919W        W26053  15.729  16.841  12.360  0.2246 -0.1729 -0.0027
 9920W        W26054   6.553   3.402   5.909  0.1990 -0.1604  0.0905
 9921W        W26055   1.893   2.075  13.112 -0.2919 -0.0987 -0.1769
 9922W        W26056   0.649  12.965  14.433  0.2326  0.1392 -0.1447
 9923W        W26057   7.090  17.604  12.994 -0.0764  0.2850  0.0130
 9924W        W26058  14.933  17.031  13.870 -0.3026 -0.1053  0.0492
 9925W        W26059   1.209  15.030  15.644 -0.4298  0.0386 -0.1767
 9926W        W26060  13.021   5.115   2.785 -0.1787  0.2658 -0.1628
 9927W        W26061  12.156  11.895   1.866  0.0287 -0.1470 -0.0025
 9928W        W26062   4.626  16.296   5.368 -0.0085  0.0757 -0.0962
 9929W        W26063   0.693   6.381   2.467 -0.0117  0.3096 -0.0538
 9930W        W26064  10.725   6.837  13.572 -0.1106 -0.2378  0.1719
 9931W        W26065   9.005   9.094   0.598  0.0199 -0.1564 -0.0913
 9932W        W26066   0.522   7.186  15.680  0.1364 -0.2650  0.1208
 9933W        W26067   4.222  16.270  10.818 -0.0125  0.3204  0.1023
 9934W        W26068   1.858   1.393  15.697 -0.4893  0.3222 -0.0594
 9935W        W26069   2.309  11.549  15.717 -0.0552  0.0239  0.0714
 9936W        W26070   4.980   8.100  14.446  0.2655  0.2000  0.0386
 9937W        W26071   8.302  12.982  11.169 -0.3071 -0.3197 -0.0460
 9938W        W26072  13.962  18.363   4.372 -0.3394 -0.1242  0.0548
 9939W        W26073  14.181   1.614  11.833 -0.0224  0.0828 -0.1522
 9940W        W26074  14.171  14.582  15.241  0.0188 -0.1176 -0.1373
 9941W        W26075   3.570   9.042   2.679  0.1416 -0.2299 -0.0884
 9942W        W26076   6.854  17.987   3.051  0.2072 -0.0216 -0.1362
 9943W        W26077   1.383   6.257   3.709 -0.0602  0.0114 -0.0174
 9944W        W26078   0.054   7.292  15.532 -0.1509 -0.1272  0.0637
 9945W        W26079   8.066   8.206  14.529  0.0547  0.1625  0.1019
 9946W        W26080  17.324   8.905   0.860  0.3367  0.1696  0.0557
 9947W        W26081   0.320   4.103  13.896  0.1363  0.1193  0.0094
 9948W        W26082  16.228  17.604   2.461 -0.1051  0.2551  0.1213
 9949W        W26083   4.199   4.621  11.722 -0.0319  0.0032 -0.3057
 9950W        W26084  18.181  11.470   1.633  0.2685  0.0768 -0.0254
 9951W        W26085   8.951   0.061  12.535  0.2700 -0.0145 -0.2264
 9952W        W26086   9.116  13.928   3.446 -0.0225  0.0337  0.0174
 9953W        W26087   2.392  15.688  14.862 -0.2082 -0.0435 -0.2386
 9954W        W26088  14.631   5.246   0.618 -0.1013 -0.0650  0.2680
 9955W        W26089  17.750  12.187   2.184  0.5803  0.0400 -0.1490
 9956W        W26090   4.366   7.165  14.028 -0.1864  0.0498  0.1608
 9957W        W26091   0.036  11.164   1.871  0.0609 -0.0669  0.1283
 9958W        W26092   1.649   9.335   4.424  0.1614  0.1791  0.0239
 9959W        W26093  14.133   2.618  13.395  0.3252  0.0586  0.2698
 9960W        W26094   4.163  16.592   0.029 -0.1670 -0.2565 -0.1090
 9961W        W26095  17.563  18.111   2.993 -0.1860  0.1576 -0.0052
 9962W        W26096  12.837   3.612  13.064 -0.2103  0.2533 -0.1388
 9963W        W26097   1.940  14.630   1.757  0.0192 -0.2781  0.1846
 9964W        W26098   2.804   9.905  12.650  0.5153  0.0582  0.1665
 9965W        W26099  17.012  11.103   3.105 -0.0081 -0.4134 -0.1305
 9966W        W26100   0.040  17.878   3.052  0.0999  0.0654  0.3210
 9967W        W26101   4.001  11.763  11.788  0.0485  0.0578 -0.1244
 9968W        W26102   9.750  10.120  11.500  0.5341  0.1628  0.2160
 9969W        W26103   7.000  13.027   1.553  0.1115 -0.0123  0.0126
 9970W        W26104  13.219  16.073   2.062  0.0538 -0.1361  0.1800
 9971W        W26105  11.153   8.212   3.981 -0.0803  0.2649 -0.2568
 9972W        W26106  12.240  10.802  13.709 -0.1901 -0.3804  0.2009
 9973W        W26107   1.515  18.061  15.175  0.0008  0.1725 -0.1270
 9974W        W26108   4.144  17.901   6.131 -0.6168  0.3686 -0.1718
 9975W        W26109  11.082  11.914   5.014  0.0874 -0.2300 -0.1653
 9976W        W26110   3.620   6.226   3.916  0.1033  0.0042 -0.0474
 9977W        W26111  10.740  17.710   3.715 -0.0335 -0.0048 -0.0564
 9978W        W26112   5.035  11.876   1.432  0.1616 -0.2648  0.0766
 9979W        W26113  12.652   8.202  15.593 -0.0440  0.0943  0.1617
 9980W        W26114   7.954   3.090   3.409  0.1270  0.1612  0.0264
 9981W        W26115   8.224   8.496   1.387  0.0562  0.1871  0.0459
 9982W        W26116   1.100  13.614   1.784 -0.1812  0.2204 -0.2464
 9983W        W26117   5.587   0.238  13.321  0.0783  0.1099  0.2189
 9984W        W26118  10.075   7.743   2.102  0.1434 -0.0358  0.0997
 9985W        W26119   2.968   9.342   1.678  0.0520  0.0014 -0.0033
 9986W        W26120   6.816  15.836  13.795  0.1402 -0.2716  0.2040
 9987W        W26121   2.916  16.465  14.061  0.2559 -0.0306  0.2137
 9988W        W26122  18.425  14.957  15.562  0.0669 -0.3785  0.0450
 9989W        W26123  10.430  13.220   4.700 -0.4031 -0.0208 -0.2007
 9990W        W26124   4.666   3.061   2.561  0.1844  0.0852 -0.1122
 9991W        W26125  14.852   7.883  12.520  0.0656 -0.2547 -0.1890
 9992W        W26126  15.331  11.709  15.321 -0.0621  0.0738 -0.1709
 9993W        W26127   4.509  11.185   5.437  0.0498 -0.1590 -0.1058
 9994W        W26128  11.125   0.251   0.424 -0.1285  0.0311 -0.0572
 9995W        W26129   6.787   3.748   1.946  0.0352  0.2600  0.1771
 9996W        W26130   3.663   9.118   1.857  0.4290 -0.0213 -0.0020
 9997W        W26131  11.006   1.863  14.077  0.2426 -0.2954 -0.1071
 9998W        W26132   3.659   0.043   3.492 -0.0938 -0.1506  0.1313
 9999W        W26133   1.755   1.027   2.464  0.3302 -0.2193  0.0396
10000W        W26134   1.746   4.183   0.004  0.0998 -0.2086 -0.0755
10001W        W26135   7.163  16.257   2.049  0.2514 -0.0801  0.1404
10002W        W26136   7.112  13.402   0.318 -0.0272 -0.1639 -0.3677
10003W        W26137  12.192  13.787  13.043 -0.0105  0.0162  0.0251
10004W        W26138   9.314   7.596  14.927 -0.0600  0.3484  0.2684
10005W        W26139   5.440  17.490  13.800 -0.0241 -0.1108 -0.0054
10006W        W26140  15.126  12.671  11.405  0.2572 -0.2375  0.0757
10007W        W26141   9.597   8.999  12.149 -0.2414  0.1059 -0.0803
10008W        W26142   9.527   3.498   2.047 -0.3435 -0.0428  0.0211
10009W        W26143   6.785   4.310  12.061 -0.3478 -0.3660 -0.1019
10010W        W26144   1.981  11.804  12.513 -0.1528 -0.0960 -0.1528
10011W        W26145  15.326   6.913  10.872  0.0415  0.4044  0.0666
10012W        W26146   7.004   3.589   1.402 -0.0254  0.0576 -0.1341
10013W        W26147  17.357   0.442  11.361  0.1643  0.0083  0.1553
10014W        W26148   1.750  15.656   4.188  0.0299  0.4948  0.2380
10015W        W26149  18.372  16.051   3.712 -0.1608 -0.2639  0.2844
10016W        W26150  18.267   6.891  15.346 -0.1848 -0.0177 -0.2716
10017W        W26151  15.574  15.111  12.565 -0.4449 -0.0936  0.2202
10018W        W26152   3.486   5.955  11.847 -0.0842  0.3266 -0.0701
10019W        W26153  15.321   5.906   0.019  0.0834  0.0524  0.2341
10020W        W26154   8.678   2.381  11.258  0.1214 -0.1080 -0.0037
10021W        W26155  11.900   8.796   2.544  0.0538  0.1644 -0.0631
10022W        W26156   3.311  14.414  10.940  0.2375 -0.2210  0.1387
10023W        W26157  16.921  17.385  13.100 -0.0081  0.1481 -0.1680
10024W        W26158  11.527   8.308   3.296 -0.1111  0.3161 -0.1455
10025W        W26159   9.133  12.997   0.436 -0.0260 -0.1197  0.0600
10026W        W26160  16.131   5.406   5.388 -0.3132  0.0245  0.0244
10027W        W26161   8.447   0.322  12.426  0.3841  0.4407  0.0284
10028W        W26162   3.917   5.807  11.594  0.1663 -0.1168 -0.1200
10029W        W26163   2.710  18.429  13.712 -0.0381  0.0085  0.1721
10030W        W26164   0.669   7.140  12.315  0.0929 -0.0692  0.0686
10031W        W26165  15.423   9.076   3.998 -0.0653 -0.2258  0.0563
10032W        W26166  16.248   5.594  11.755  0.3058 -0.1215 -0.3131
10033W        W26167   8.495  18.363   1.838 -0.0775 -0.0107  0.3229
10034W        W26168  12.314   6.035   3.513 -0.1204 -0.3302 -0.0213
10035W        W26169   8.932   6.427  13.027  0.2197 -0.0672 -0.0722
10036W        W26170  10.685  18.435   3.663  0.1945 -0.0767 -0.0146
10037W        W26171  14.045   2.599   5.581  0.2974  0.0696 -0.3690
10038W        W26172  12.200   5.191   2.756  0.1350 -0.3231 -0.1286
10039W        W26173   5.176   1.729  13.703 -0.1125  0.3064 -0.0281
10040W        W26174   0.542  16.594  14.178 -0.3404 -0.1428  0.2773
10041W        W26175  15.307  13.148  12.020 -0.0545  0.1718  0.0231
10042W        W26176  15.632   7.838   2.554  0.3400  0.0535  0.1448
10043W        W26177   1.823  14.940  12.186 -0.1840  0.2279 -0.3060
10044W        W26178  15.953  16.483   5.442 -0.2577  0.0570 -0.4433
10045W        W26179   5.566   2.294  11.964  0.0401  0.2575 -0.2076
10046W        W26180   8.500   6.682   5.141 -0.1103  0.0426  0.3615
10047W        W26181  15.571  17.918  12.349  0.4197 -0.0346  0.1259
10048W        W26182  18.017   3.975   5.441  0.1222 -0.0147  0.0809
10049W        W26183   4.561   1.073   3.946 -0.0171 -0.1084 -0.2203
10050W        W26184   6.608   6.070   1.853 -0.0851 -0.0355 -0.0753
10051W        W26185   7.380   1.468  13.217 -0.1393  0.1344 -0.0108
10052W        W26186   3.464   9.573   1.778 -0.0375 -0.1796 -0.1420
10053W        W26187   0.002  10.152   2.126  0.0247 -0.0676  0.3519
10054W        W26188   8.821  16.610   3.466  0.2318 -0.0075 -0.0798
10055W        W26189  15.895   0.352  12.659  0.0462  0.2353 -0.2796
10056W        W26190   3.453   3.929  13.241 -0.0740 -0.3002 -0.0500
10057W        W26191  10.111   4.648  14.190  0.1180 -0.1930  0.0197
10058W        W26192   0.254  12.210   4.122 -0.0551  0.0189  0.2107
10059W        W26193  12.552  11.721   5.169  0.0675  0.0408  0.0158
10060W        W26194   3.746   7.084  12.811  0.2128 -0.1031  0.1637
10061W        W26195   9.624   2.565   2.987  0.0978 -0.2554 -0.1373
10062W        W26196  11.747   2.539  15.235  0.1128 -0.1625 -0.2852
10063W        W26197  15.189  10.492   2.497 -0.0083  0.0074  0.1935
10064W        W26198  17.626   3.337   3.569 -0.2310  0.2353  0.0629
10065W        W26199  13.935  17.875  10.468  0.0996  0.1874 -0.0237
10066W        W26200   6.778   3.123   2.076 -0.2092 -0.1874  0.0527
10067W        W26201  14.745   4.366   3.011 -0.2581 -0.1088 -0.4143
10068W        W26202  17.891  15.415  13.068 -0.0882  0.2217 -0.0065
10069W        W26203  11.769   8.811  11.880  0.0063  0.1618 -0.1868
10070W        W26204  17.954   8.619  14.982 -0.1934 -0.0966 -0.1352
10071W        W26205   1.031   6.172   0.672  0.0237  0.2452  0.1000
10072W        W26206  16.494   8.667  12.309 -0.1372  0.3540 -0.0691
10073W        W26207  16.209   0.494  12.305 -0.0044 -0.4587  0.2268
10074W        W26208   3.684  17.435  15.890 -0.1615  0.1258  0.0833
10075W        W26209   5.991   0.911   5.351 -0.1571 -0.0483  0.0622
10076W        W26210   2.303  11.796   2.746  0.1471  0.0444 -0.1076
10077W        W26211  17.671  11.674  14.069 -0.0650 -0.2802 -0.1471
10078W        W26212   8.109   7.956  11.780  0.0477  0.1493 -0.0677
10079W        W26213  14.762  14.253   4.116  0.0994 -0.1596  0.0778
10080W        W26214   6.085  12.420   3.297  0.1547  0.1924  0.1721
10081W        W26215   6.225  16.264   2.964  0.0451 -0.3098 -0.0493
10082W        W26216   7.021   2.450   4.050  0.0501 -0.1569  0.0326
10083W        W26217   6.695   0.347   4.821  0.2606 -0.0464 -0.4062
10084W        W26218  13.638  10.681  13.287  0.0169 -0.4685  0.3080
10085W        W26219   1.099   4.831  15.678 -0.0168 -0.2787 -0.1162
10086W        W26220  16.716  15.946  12.275  0.0202 -0.1309 -0.1325
10087W        W26221  12.362   9.551   3.918  0.0385 -0.1930  0.0082
10088W        W26222  11.851  11.234  11.188  0.3708  0.0158 -0.1660
10089W        W26223  14.383   4.069  12.257  0.5341 -0.0879 -0.1725
10090W        W26224   2.972   1.541  13.462 -0.0297  0.2124 -0.1268
10091W        W26225   0.033  15.754   2.948  0.0241  0.2066  0.1460
10092W        W26226  10.731   3.751  15.836 -0.3216  0.6361  0.1765
10093W        W26227   9.963  16.809   4.802 -0.0669  0.0049  0.0022
10094W        W26228  13.165   0.867   4.585 -0.2202  0.2318 -0.0154
10095W        W26229  13.819   2.499   2.322 -0.1016 -0.2594 -0.0480
10096W        W26230  11.731   2.829  15.689  0.2271 -0.0872  0.3308
10097W        W26231  12.274  18.320  10.409  0.1637  0.4287  0.0886
10098W        W26232  17.574   3.414   4.111 -0.3378  0.2956  0.0610
10099W        W26233   0.540   8.800  11.619 -0.1949 -0.0985 -0.2208
10100W        W26234   9.063  14.357   0.283 -0.2776  0.0811  0.0087
10101W        W26235   5.986  12.186   5.575  0.1698 -0.0076  0.2947
10102W        W26236   5.091   8.518  12.089  0.0961 -0.1138 -0.1621
10103W        W26237   5.474  12.895  13.927 -0.1382  0.2263  0.3266
10104W        W26238  11.410  15.567  11.551 -0.1528 -0.1615 -0.0518
10105W        W26239  13.684  14.155   4.400 -0.0762  0.3220 -0.3980
10106W        W26240   8.472   1.114   1.655  0.0490 -0.1683  0.1333
10107W        W26241  13.334  13.001  15.616  0.0931 -0.1796  0.0840
10108W        W26242   6.447  14.384   2.815  0.2764 -0.2228  0.1269
10109W        W26243  18.309   3.865   3.265  0.3267 -0.1357 -0.0961
10110W        W26244  14.619  15.688  13.678 -0.1999 -0.0240  0.0631
10111W        W26245  14.034   8.297   4.893  0.2799  0.0507  0.1309
10112W        W26246  12.211  12.170  13.976  0.0966 -0.2025  0.0153
10113W        W26247   7.766   5.819   2.384 -0.1182 -0.0305  0.1120
10114W        W26248   8.123  14.309   0.474  0.1155  0.0872  0.1204
10115W        W26249   8.413   3.361   1.657  0.0823 -0.2749 -0.0487
10116W        W26250  14.813   7.367   3.451 -0.1364 -0.1063  0.2733
10117W        W26251  17.207  14.584   5.078 -0.0081  0.1047 -0.0571
10118W        W26252  15.993  16.611   2.839 -0.0584 -0.0448 -0.0634
10119W        W26253   8.862  12.805   0.832 -0.0325  0.1479 -0.1349
10120W        W26254  12.788  17.882   0.795 -0.1504 -0.2418 -0.3532
10121W        W26255  16.926   5.409   3.322  0.1170  0.0002 -0.4236
10122W        W26256   7.513  12.502  11.432  0.1980 -0.0426  0.4857
10123W        W26257  14.724  11.450   3.578 -0.1202  0.5809  0.0380
10124W        W26258   4.165  11.370   1.682  0.0912  0.2155 -0.0171
10125W        W26259   5.789  16.368  13.446  0.0739  0.0837 -0.0243
10126W        W26260  17.896  16.154   4.720 -0.0285  0.4835 -0.1512
10127W        W26261  17.973   2.643  12.340  0.1332  0.0607 -0.2237
10128W        W26262  10.648   2.714  10.779 -0.1943  0.2932  0.0839
10129W        W26263   5.797   6.733  12.275 -0.4493  0.0536 -0.1104
10130W        W26264  14.915   6.185   5.578 -0.0844 -0.2966 -0.0497
10131W        W26265  12.810  18.461   9.950 -0.0198 -0.2465  0.0179
10132W        W26266   3.761   6.852  13.726  0.1890  0.2660 -0.2567
10133W        W26267   1.517   0.670  11.290  0.1489  0.0540  0.1502
10134W        W26268   1.732   1.578   3.468 -0.0419 -0.2053  0.2117
10135W        W26269   2.091  12.173  15.741 -0.2590  0.0610 -0.0528
10136W        W26270   8.689  16.328   2.324 -0.0560  0.1848  0.1825
10137W        W26271  14.863  18.427   5.663 -0.0648  0.1873  0.0528
10138W        W26272   8.151  16.333   3.939 -0.0096  0.4088 -0.0755
10139W        W26273   0.746   0.890  13.628 -0.2377 -0.0745 -0.4181
10140W        W26274  11.757   5.619   0.983  0.0315 -0.0648  0.0979
10141W        W26275   1.122  15.437  15.219 -0.0457 -0.0889  0.0399
10142W        W26276   6.011   8.320  11.211  0.4440  0.4645  0.1608
10143W        W26277  16.873  16.279   3.988 -0.1669  0.1860 -0.3688
10144W        W26278  15.800   2.293   2.504  0.3836  0.1386 -0.2985
10145W        W26279  11.608   7.737   4.866  0.0146  0.3203 -0.0630
10146W        W26280   6.546  14.530  13.975  0.0523 -0.2883 -0.2171
10147W        W26281   2.328   0.220  11.217 -0.1350 -0.0244  0.1820
10148W        W26282   1.838   3.860  13.824 -0.0436 -0.1402  0.0456
10149W        W26283   8.785  10.439   5.508 -0.0738 -0.0040  0.1775
10150W        W26284   0.552  14.296   1.232  0.2009  0.0922  0.3678
10151W        W26285  14.098   6.661   0.719 -0.3644  0.1451  0.1358
10152W        W26286  14.677   8.640   3.157 -0.0074 -0.1615  0.1606
10153W        W26287   0.747   0.409   5.824  0.1619 -0.2347 -0.3887
10154W        W26288  15.480   0.640  14.777  0.1495  0.0996 -0.0981
10155W        W26289  16.326   6.622   5.836  0.0420 -0.0980  0.1974
10156W        W26290   4.733  18.132   2.464  0.1019  0.0273 -0.1936
10157W        W26291   2.845   7.838   0.167 -0.2585 -0.0650 -0.0929
10158W        W26292   0.407   9.384  14.221 -0.2545 -0.3970 -0.0460
10159W        W26293  12.087  12.114  12.066  0.2856 -0.1113 -0.2065
10160W        W26294   9.812  12.548   0.671  0.0161 -0.0594  0.1213
10161W        W26295   6.616   7.897  14.976  0.0336  0.2190  0.3280
10162W        W26296  17.014  18.178   1.707 -0.0975 -0.0277  0.2685
10163W        W26297   4.616  10.796   1.880 -0.3717  0.1232 -0.0889
10164W        W26298  16.025  16.271  11.141 -0.0117  0.1000  0.3861
10165W        W26299   5.347  11.370  14.299  0.0241  0.1250 -0.3403
10166W        W26300   7.169  13.739  13.568  0.0039  0.1168 -0.2677
10167W        W26301  12.451   1.405   2.207  0.2320 -0.1489 -0.1038
10168W        W26302  18.388  10.246  13.925  0.3337  0.0499  0.1345
10169W        W26303  18.330  18.364   5.790 -0.0606 -0.1572 -0.0654
10170W        W26304  10.178  10.359   0.290 -0.1439  0.1095 -0.3477
10171W        W26305  15.544   1.266   2.382  0.1984 -0.0728 -0.0493
10172W        W26306   2.928   5.340   1.539 -0.0489 -0.1699  0.0928
10173W        W26307  17.541  15.511  11.116 -0.2276  0.2254 -0.0475
10174W        W26308   2.625   7.822   4.382  0.2402  0.0108 -0.1388
10175W        W26309  13.905   4.743  12.362 -0.0230 -0.2668  0.1033
10176W        W26310  10.717  14.684   0.067  0.4587 -0.0581  0.0861
10177W        W26311   4.675   0.978   0.733  0.3468  0.1796 -0.0955
10178W        W26312  14.590   9.975  11.714  0.1389 -0.0362  0.0173
10179W        W26313   0.384   6.019  11.468 -0.0307 -0.0902  0.0499
10180W        W26314  12.675  13.094   3.344 -0.1628 -0.1079  0.0839
10181W        W26315   0.429   6.088   3.243  0.1993  0.0978 -0.0701
10182W        W26316  15.134  14.764  12.889 -0.1171 -0.0606 -0.2909
10183W        W26317   9.987   9.839   0.583  0.0400 -0.0138 -0.2198
10184W        W26318  13.850   7.573   4.752 -0.1013 -0.2119 -0.3383
10185W        W26319  10.396   0.799   5.168  0.3433 -0.0497  0.0951
10186W        W26320  12.031  13.614  14.342 -0.0394 -0.3571 -0.2452
10187W        W26321   3.999   7.209   0.488 -0.0518 -0.1865  0.1228
10188W        W26322   4.286  13.733  11.568  0.0218 -0.1899  0.0383
10189W        W26323   6.769  15.204   0.717 -0.1573 -0.1071  0.0909
10190W        W26324   6.101   4.059  11.419  0.0287 -0.0871  0.2061
10191W        W26325  12.245   4.323  10.954  0.1465 -0.2045 -0.2057
10192W        W26326   9.916   3.104   2.401  0.3883  0.0473  0.0852
10193W        W26327   1.928  17.876  14.933 -0.0458  0.0293  0.1053
10194W        W26328  13.697  16.780   5.287 -0.0946  0.1116 -0.2596
10195W        W26329  15.761  10.134  14.699 -0.0310  0.0902  0.2626
10196W        W26330  10.724   5.710  12.060 -0.3733 -0.2316 -0.0432
10197W        W26331   2.085   2.435  12.358 -0.3181 -0.3752 -0.1818
10198W        W26332  17.892  16.354  15.250 -0.0050  0.3395 -0.1021
10199W        W26333   3.003  12.136   3.240  0.1379  0.0364 -0.1705
10200W        W26334  16.367  11.587  12.429 -0.0044  0.0913  0.1008
10201W        W26335   8.999   3.302   0.753 -0.0286  0.0537  0.1413
10202W        W26336  18.352  17.207  12.984  0.1356  0.2788  0.0787
10203W        W26337  11.821  16.749  12.002 -0.1243  0.0957  0.3237
10204W        W26338  14.849   9.547  11.753 -0.0264 -0.1864 -0.2631
10205W        W26339   4.483   2.494   1.953  0.1589 -0.1082  0.1213
10206W        W26340  14.826   9.860   0.332  0.2614  0.3687  0.2845
10207W        W26341  11.971   5.289   0.066 -0.0907  0.1684 -0.0790
10208W        W26342   8.708   5.696   4.032  0.0552 -0.0427  0.0097
10209W        W26343  12.553  17.162  15.552 -0.1174  0.1225 -0.0497
10210W        W26344  13.970   3.123   3.867 -0.0456 -0.0049 -0.0379
10211W        W26345  12.429  13.436   2.835  0.0027 -0.0150 -0.1435
10212W        W26346  13.263   5.910  11.133 -0.0143 -0.1701 -0.0955
10213W        W26347  14.461   2.065  15.762 -0.5045 -0.1041 -0.1500
10214W        W26348   4.003   7.780  15.294 -0.2715  0.1106  0.1692
10215W        W26349   4.849  15.421   3.830 -0.0262  0.1099  0.0622
10216W        W26350   8.574  10.277  10.123 -0.0727 -0.0909  0.0360
10217W        W26351   3.631   2.440   1.834  0.2669  0.0418  0.0405
10218W        W26352  14.251   5.501  13.699  0.2406 -0.2044  0.1712
10219W        W26353   8.245   9.362   3.574  0.0179 -0.1851 -0.0204
10220W        W26354  10.711  11.912   2.802 -0.0150  0.0371 -0.0807
10221W        W26355   8.270  15.148  15.271  0.2739  0.2281 -0.0081
10222W        W26356  12.701   2.447   4.880  0.0330  0.3431  0.1240
10223W        W26357  13.237  14.136   0.693 -0.2648 -0.2021 -0.1152
10224W        W26358   9.121   3.644   1.784 -0.0752 -0.2139  0.0549
10225W        W26359  17.286  15.243   3.948  0.0871  0.0869  0.0676
10226W        W26360  15.294   3.036  10.705  0.0560  0.1279  0.0812
10227W        W26361  18.274  12.004   4.999 -0.3123 -0.1279  0.3385
10228W        W26362  13.625  17.464  12.910  0.0497  0.0205  0.0433
10229W        W26363   8.987   7.040   0.913 -0.0348 -0.0717 -0.1993
10230W        W26364  16.631   6.440   0.240 -0.3445 -0.1781 -0.0380
10231W        W26365   9.772  17.971  13.725 -0.0301 -0.0392 -0.0606
10232W        W26366   0.792  10.532   2.233 -0.0089  0.2836  0.1012
10233W        W26367  10.489  10.297  13.783 -0.1184  0.0360  0.0959
10234W        W26368  16.516  14.204  12.719  0.1315  0.4315 -0.2335
10235W        W26369  11.246  15.658   5.533  0.2219  0.2805  0.1097
10236W        W26370   4.320  12.025   2.938 -0.0406 -0.0684  0.3180
10237W        W26371   7.646  12.390  14.269 -0.0785 -0.1409 -0.0112
10238W        W26372  13.436   6.048  14.225  0.0037  0.2920 -0.0438
10239W        W26373   9.204  12.717  11.969 -0.1125 -0.0604 -0.1213
10240W        W26374  15.340   5.319  12.726  0.0316 -0.0824 -0.0054
10241W        W26375   4.963  15.818   2.304 -0.0516 -0.2630 -0.0823
10242W        W26376  13.536  16.056   0.172 -0.1628 -0.0266 -0.0958
10243W        W26377  14.236  13.749  12.450  0.0426 -0.1409  0.0051
10244W        W26378  15.989  17.672  15.285 -0.0974  0.4008 -0.0206
10245W        W26379  14.094   1.745  15.683  0.2065 -0.0021  0.1193
10246W        W26380  14.995  11.792  14.039  0.2994 -0.0304  0.1975
10247W        W26381  13.210   2.679  13.004 -0.2700  0.2771 -0.1152
10248W        W26382   2.418   2.088  11.473  0.0840 -0.1627  0.0044
10249W        W26383   1.112  17.347   4.102  0.1980 -0.0911 -0.0705
10250W        W26384   8.902  12.447   4.492 -0.1609 -0.0116  0.1019
10251W        W26385  18.341   0.264   4.843  0.3039 -0.2849 -0.4034
10252W        W26386   3.960   2.265  13.523  0.0784 -0.0325  0.0993
10253W        W26387   8.308   4.439  15.734  0.1365  0.0385 -0.0133
10254W        W26388  10.332   7.927   1.194  0.0611  0.0819 -0.1603
10255W        W26389   5.907   9.947  12.102 -0.1907 -0.4298 -0.1085
10256W        W26390   2.287   1.055   5.418 -0.1151  0.3533  0.0420
10257W        W26391   8.830   3.639  11.164  0.3564 -0.3659 -0.1379
10258W        W26392   1.579   5.997  14.737  0.0535  0.2085 -0.1797
10259W        W26393  12.641   2.722  12.066  0.1183  0.1174 -0.2122
10260W        W26394   3.617   4.106   0.266 -0.0391 -0.1308  0.0321
10261W        W26395   1.057   0.540  11.771 -0.1788  0.1204  0.0767
10262W        W26396   1.363  14.251   3.782 -0.0519  0.0178  0.1420
10263W        W26397  12.131  13.279   3.183  0.3190  0.0755 -0.0463
10264W        W26398   2.456   7.944  12.569 -0.1630  0.4002  0.1141
10265W        W26399   5.511   9.835   3.838  0.1222  0.1862 -0.1936
10266W        W26400  13.166  14.364  15.473  0.0374 -0.1087  0.1363
10267W        W26401  16.694   1.493   3.233  0.4354  0.0269  0.0506
10268W        W26402  17.686   2.716   2.178  0.0237 -0.1609 -0.2039
10269W        W26403   2.202   5.526   2.955 -0.2897 -0.1089  0.1908
10270W        W26404   4.489  16.313   0.866 -0.2148 -0.0297 -0.6181
10271W        W26405  15.977   9.894  11.420 -0.0239 -0.5675 -0.0947
10272W        W26406  14.407  15.990   0.963  0.0692  0.2771  0.0544
10273W        W26407   9.253   6.149   3.413 -0.0301 -0.0570  0.0596
10274W        W26408   8.003   9.858  11.722 -0.1808 -0.0228 -0.2037
10275W        W26409  10.501  15.488  15.490 -0.2896  0.2841  0.1411
10276W        W26410   6.454   0.851  11.488  0.3168 -0.2698  0.0571
10277W        W26411   8.961   1.015   0.271 -0.0447  0.2549  0.1518
10278W        W26412  15.109  10.121   3.378  0.0352 -0.1640 -0.0820
10279W        W26413   2.521   4.191   0.557  0.2532 -0.3130 -0.0466
10280W        W26414   2.632   8.002  10.459  0.2560  0.3731 -0.3896
10281W        W26415   7.694  15.032   2.529 -0.2941  0.2783 -0.4920
10282W        W26416   4.708   4.064  15.885 -0.2618  0.0100 -0.1127
10283W        W26417  14.873   2.701   1.400 -0.3532 -0.0580 -0.1478
10284W        W26418   4.081  16.495   3.696  0.1403  0.0166  0.4771
10285W        W26419   0.493   2.158  14.004  0.0249 -0.1375 -0.0519
10286W        W26420  11.123   1.143  11.522  0.0247 -0.0442 -0.0688
10287W        W26421  12.411  14.845   4.322  0.3602  0.1304 -0.0787
10288W        W26422   5.471  12.325  13.283  0.4010 -0.1160 -0.0809
10289W        W26423   5.585  15.972  11.587  0.0877 -0.3486 -0.2683
10290W        W26424   8.471  11.859   1.486 -0.2140 -0.2373  0.0094
10291W        W26425   8.747  15.753  13.113 -0.2213  0.0908  0.1729
10292W        W26426   5.523  17.595  15.335 -0.2672 -0.1283 -0.0383
10293W        W26427   9.166   6.138  13.716 -0.1577 -0.4505  0.0548
10294W        W26428  13.838   5.989   3.989  0.0908  0.0286  0.3688
10295W        W26429   6.593   5.965  14.472 -0.0169  0.0560  0.1319
10296W        W26430   3.413   9.790  11.522 -0.0340  0.0351 -0.0374
10297W        W26431   1.957   1.530  14.920 -0.0877 -0.1363  0.2010
10298W        W26432   7.690   9.747   0.663 -0.1364 -0.0421  0.1134
10299W        W26433  11.564   7.000  13.140  0.1345 -0.2000  0.2287
10300W        W26434  14.286  15.019  10.719 -0.1034  0.0603 -0.0333
10301W        W26435  15.097   7.181   2.246  0.3212 -0.2708  0.0728
10302W        W26436   3.210  11.883   3.811 -0.1604  0.0357  0.1183
10303W        W26437   1.472  13.298   1.447 -0.1001  0.2650 -0.1035
10304W        W26438  13.005  15.052  12.424 -0.1215 -0.1285  0.1523
10305W        W26439   6.384   9.999   3.327 -0.0471  0.0537 -0.1133
10306W        W26440   8.394  15.415   2.003  0.0750 -0.3284  0.2668
10307W        W26441   7.103   0.736   2.481 -0.1363 -0.1990  0.0093
10308W        W26442   2.710   5.482   2.104 -0.0551 -0.0143  0.3563
10309W        W26443  12.082  12.280  12.578 -0.0175 -0.0958  0.0763
10310W        W26444  10.626   0.844   3.806  0.0734 -0.1739 -0.1312
10311W        W26445   1.086  13.704   4.266 -0.1365  0.0588  0.1200
10312W        W26446   7.063  12.503  12.197  0.0030 -0.1515  0.0226
10313W        W26447   6.806   1.828   2.430 -0.1348  0.2350  0.1512
10314W        W26448  10.219  15.044  10.223  0.0556 -0.0724 -0.1811
10315W        W26449   8.569  12.012  12.981  0.2478  0.0711  0.0234
10316W        W26450  15.826   9.765   4.282  0.1226  0.2514 -0.0222
10317W        W26451  17.640   0.400  12.776  0.0378  0.1620  0.1613
10318W        W26452   2.041  12.518  10.782  0.3194  0.0492  0.0633
10319W        W26453   7.878  12.609   1.728 -0.0055 -0.4372 -0.4245
10320W        W26454   3.015  17.062   4.420 -0.4834  0.1311  0.1276
10321W        W26455   6.729  16.374   3.201 -0.0550  0.0005  0.0713
10322W        W26456   4.474   5.712  13.146  0.3532  0.0906 -0.0215
10323W        W26457   5.544   1.468   0.481  0.2192  0.0543  0.0452
10324W        W26458   4.654  11.611   1.681 -0.2108  0.0716  0.0012
10325W        W26459   5.201   9.564   0.672 -0.1407 -0.0438  0.2628
10326W        W26460  14.681   0.307   1.701  0.0275 -0.0507 -0.0456
10327W        W26461   4.273   2.677   3.465  0.1313 -0.1423 -0.0643
10328W        W26462  15.857   6.071   4.190  0.1385  0.1875  0.0353
10329W        W26463  18.195  15.099  13.549 -0.2126 -0.1682  0.2094
10330W        W26464  11.164   0.579  11.894 -0.0381 -0.0657 -0.0443
10331W        W26465   2.120   4.984   2.651  0.2001 -0.2749 -0.1015
10332W        W26466   5.837   9.172   4.121 -0.0214 -0.2869 -0.4116
10333W        W26467  10.100   0.521   1.478 -0.2757 -0.1842 -0.1464
10334W        W26468   7.351   9.672   4.498 -0.0020 -0.4741  0.0022
10335W        W26469   0.642   0.154  12.510  0.2497  0.0330 -0.2030
10336W        W26470  13.665  15.220  14.900  0.0435 -0.1020  0.1171
10337W        W26471  14.222  18.109   5.167  0.1991 -0.0138 -0.0017
10338W        W26472   0.586   1.011   4.890 -0.1479  0.0157 -0.0926
10339W        W26473   8.011   2.011  12.504  0.1970  0.3512 -0.0184
10340W        W26474   4.190  17.182  11.875 -0.0825 -0.0110 -0.0476
10341W        W26475   4.471  15.286   0.172  0.0790  0.2824 -0.2955
10342W        W26476   8.276  17.013  13.706 -0.0074  0.1154  0.2147
10343W        W26477  17.996   0.002   0.331  0.1521  0.3086  0.2504
10344W        W26478  13.145  17.002  11.239 -0.0188 -0.2224 -0.2207
10345W        W26479  11.802  10.860  11.730  0.2458 -0.1068 -0.0645
10346W        W26480   7.085  18.186  14.973 -0.3125 -0.0940  0.1842
10347W        W26481  12.778   1.247  13.949 -0.3465 -0.2024  0.3728
10348W        W26482   8.185  10.375   2.419 -0.0923 -0.0320 -0.0938
10349W        W26483  16.607   0.238  11.969  0.5198  0.2691  0.0536
10350W        W26484  12.638  17.909  12.070 -0.0817  0.2398  0.1287
10351W        W26485  11.613   5.958   4.769 -0.0396 -0.3017  0.0227
10352W        W26486   9.097   6.569   1.715 -0.0011  0.1413 -0.0383
10353W        W26487   6.603  10.011  11.439  0.2095  0.2077 -0.0973
10354W        W26488   5.006   4.801   3.108 -0.1410 -0.0629 -0.2307
10355W        W26489   8.294  10.424   1.535 -0.1206 -0.0843 -0.0077
10356W        W26490  18.232   0.409   0.507 -0.2616  0.0714 -0.2636
10357W        W26491   1.277  11.520   0.921 -0.4415  0.2964  0.2265
10358W        W26492  11.482  11.663  12.796  0.1554  0.2089 -0.1203
10359W        W26493   8.110   2.983   1.668  0.1934  0.1793 -0.3976
10360W        W26494   5.362   6.168   4.604 -0.1377  0.0110 -0.1111
10361W        W26495   4.480   9.886  11.791 -0.3254 -0.1201  0.0098
10362W        W26496   2.383   5.944   3.243 -0.0191  0.0475 -0.2398
10363W        W26497  16.972   7.271  14.044 -0.0089 -0.0337  0.1879
10364W        W26498  17.971  11.316  11.567 -0.0112 -0.2414  0.1999
10365W        W26499   4.585  17.288   0.020 -0.3122  0.0355  0.1369
10366W        W26500  10.467  13.249  13.870 -0.0309  0.0981 -0.1415
10367W        W26501  10.678  12.914   5.964  0.1456 -0.3949 -0.1150
10368W        W26502  10.489  11.830  14.116  0.0976  0.1762  0.1842
10369W        W26503  13.378   3.194   3.706  0.1625  0.2819 -0.1793
10370W        W26504   4.995  18.118  12.855  0.1670 -0.0596  0.2864
10371W        W26505  17.922   8.870  10.467  0.1450 -0.2242  0.2477
10372W        W26506   0.923  13.988   5.863  0.0259 -0.2077 -0.1459
10373W        W26507   5.441  12.282  11.665  0.1274 -0.0796 -0.1868
10374W        W26508  18.448   9.888   1.700 -0.1867  0.0179 -0.0858
10375W        W26509  10.916   7.667  13.438 -0.1986  0.1341 -0.1166
10376W        W26510  15.905   5.481  13.390 -0.0613 -0.2876 -0.0045
10377W        W26511  17.917  18.016   2.123 -0.1878  0.1283 -0.0898
10378W        W26512  10.603   3.738   0.462 -0.2049  0.1481 -0.2030
10379W        W26513   9.501   9.423   3.887 -0.0471  0.1190  0.1103
10380W        W26514  15.613  17.866   0.055 -0.1006  0.1896  0.0028
10381W        W26515  17.787   8.932  13.234 -0.1158  0.0832  0.3873
10382W        W26516   0.872   2.963  15.594 -0.0970 -0.1480  0.0877
10383W        W26517   4.962  11.171  13.903  0.2063  0.0673  0.0772
10384W        W26518  18.231   1.922   3.951  0.2572 -0.0080 -0.2944
10385W        W26519   8.551   6.745   0.070  0.0467 -0.0826 -0.1217
10386W        W26520   3.388   7.212  14.936 -0.1184 -0.0204  0.0524
10387W        W26521   6.590  15.462   3.436  0.1128  0.1527  0.0915
10388W        W26522   5.708   7.009  13.077 -0.0639  0.0268  0.1062
10389W        W26523  16.749   1.003  12.488  0.0060  0.2455  0.0291
10390W        W26524   0.641   4.855   0.644  0.4695 -0.0190  0.3566
10391W        W26525   1.695  17.064  14.570  0.0142 -0.1114  0.2612
10392W        W26526   8.568  13.354  10.847 -0.2086 -0.0696 -0.0152
10393W        W26527  15.631  13.573   2.317 -0.1177 -0.1962  0.4548
10394W        W26528  10.912  16.356  15.701  0.2222 -0.4446  0.0542
10395W        W26529   0.971   1.034   2.762  0.1592  0.2240 -0.2875
10396W        W26530   9.285   0.152   2.197  0.0825 -0.1557 -0.2045
10397W        W26531  17.553  12.920  13.580  0.0223  0.3051  0.0226
10398W        W26532   5.265   7.649  11.808 -0.0959 -0.0015  0.0317
10399W        W26533   1.907  14.634  13.292 -0.0473 -0.0770  0.0759
10400W        W26534  11.988   5.858  14.138 -0.2850  0.1738  0.1853
10401W        W26535   2.108   2.540   1.400 -0.0060 -0.0193  0.1176
10402W        W26536  17.245   6.010   2.634  0.2692 -0.3138  0.1925
10403W        W26537   2.361   7.399  13.452 -0.0751  0.0705  0.0734
10404W        W26538   6.140  16.837  15.403 -0.1372  0.0155  0.0862
10405W        W26539  18.196   9.314   0.890 -0.0114 -0.0685  0.1032
10406W        W26540  16.864  11.954  13.857  0.0708  0.1070 -0.1117
10407W        W26541  17.204  12.897   0.280 -0.2181 -0.2780 -0.0226
10408W        W26542  12.129   7.401  13.764 -0.2107  0.0724  0.0119
10409W        W26543   2.078   2.886   2.708 -0.0990 -0.2964  0.4194
10410W        W26544   6.297  10.954  14.957  0.1404  0.2890  0.0015
10411W        W26545  11.162   4.836  12.891  0.0626 -0.0303  0.2749
10412W        W26546   1.582  15.819  15.259  0.0586  0.1941  0.0552
10413W        W26547  11.061   2.558  14.152 -0.1005  0.0400  0.0093
10414W        W26548   2.416  13.433   5.623  0.0797  0.1958 -0.1251
10415W        W26549   9.276   0.712  12.043 -0.0893 -0.1481 -0.0557
10416W        W26550   6.525  14.590  12.056 -0.1846 -0.1546  0.1268
10417W        W26551  16.259  13.646   1.728 -0.1750 -0.2320 -0.0644
10418W        W26552  11.264  10.726  13.595  0.2284 -0.0219 -0.2496
10419W        W26553   9.004  17.874   1.098  0.3143 -0.2189 -0.3593
10420W        W26554  12.698   8.962   1.478 -0.0955 -0.0154 -0.1088
10421W        W26555  15.957   9.315  13.926 -0.0062 -0.0647 -0.1538
10422W        W26556   7.747   3.553  13.472 -0.0194 -0.0174  0.1793
10423W        W26557  15.898   2.069  15.837  0.0409 -0.4560  0.0405
10424W        W26558   2.086  11.192  11.433 -0.4407  0.0286 -0.1980
10425W        W26559   5.091  15.536  13.406  0.2060  0.2445 -0.2103
10426W        W26560  12.427   9.067  12.661  0.2788 -0.0067 -0.1930
10427W        W26561  16.549  17.340   2.810  0.0906  0.0789  0.3669
10428W        W26562   6.038  15.726  15.252  0.1972 -0.0124 -0.1487
10429W        W26563   2.188   5.400   0.838  0.1364  0.2432 -0.2052
10430W        W26564  11.694  14.458  15.459 -0.1362  0.0357 -0.1804
10431W        W26565  16.579  14.585   2.568 -0.1401 -0.1091  0.1349
10432W        W26566   8.291  15.456  14.864 -0.1038 -0.0471  0.1279
10433W        W26567   6.043  17.639  14.507 -0.0125 -0.0498 -0.2936
10434W        W26568   5.473  11.573   4.297 -0.0952  0.2337  0.0659
10435W        W26569   3.043  11.064  13.245  0.2025  0.3195  0.0276
10436W        W26570   9.450   1.608   2.094  0.1056 -0.0340  0.1905
10437W        W26571   8.905  12.383  14.848  0.0543 -0.0343 -0.0228
10438W        W26572   2.315  17.533  12.449 -0.0944 -0.0823  0.2189
10439W        W26573   1.983  12.088  12.120  0.1798  0.0274  0.0262
10440W        W26574  12.579   5.987   0.010  0.2000  0.2219  0.0906
10441W        W26575  18.221  12.056   0.003  0.1786 -0.2224 -0.2416
10442W        W26576   0.274  12.515  11.655 -0.0976  0.1753 -0.0778
10443W        W26577   1.625  13.753  13.752 -0.0368  0.2272  0.2220
10444W        W26578   1.570   1.372   4.767 -0.0239  0.1902 -0.0678
10445W        W26579  17.330   3.377   2.615  0.0063  0.0222  0.0256
10446W        W26580   4.186   3.006  12.375  0.1921  0.2418 -0.0008
10447W        W26581  10.791   5.104  12.603  0.1683  0.1592 -0.0607
10448W        W26582   0.094  16.904   5.532 -0.2507  0.1798  0.0203
10449W        W26583  10.450   4.124  11.568 -0.3603  0.0177  0.0412
10450W        W26584   1.246   9.658   3.703  0.2430 -0.0263 -0.2678
10451W        W26585   5.543  10.366   1.877  0.2203  0.0768  0.3021
10452W        W26586   2.970  10.932   3.632 -0.2147 -0.2113  0.3271
10453W        W26587  11.970   8.575  13.489  0.2405  0.2296  0.2779
10454W        W26588   8.249  18.294   2.301 -0.3945  0.1214  0.1834
10455W        W26589   2.153   7.547   4.001 -0.3002  0.1815 -0.2370
10456W        W26590   9.969  16.702  12.386 -0.3805  0.2386 -0.1327
10457W        W26591   2.466   8.486  10.516 -0.2692  0.0769 -0.2709
10458W        W26592   8.162  16.695   4.468  0.1994 -0.0638 -0.2399
10459W        W26593   2.025   2.893  13.693 -0.2921 -0.0872 -0.0302
10460W        W26594  11.460   8.478   4.291  0.2665  0.1142 -0.1320
10461W        W26595  13.834  12.650   4.223  0.1198 -0.1725  0.2008
10462W        W26596   3.857  11.297  10.199 -0.0268 -0.0050 -0.1517
10463W        W26597   9.130   5.540  12.902 -0.0617 -0.2061  0.0971
10464W        W26598   0.132   7.039   4.860 -0.3505  0.1623  0.0990
10465W        W26599  13.388   7.108  13.121 -0.0965  0.0438  0.2138
10466W        W26600   9.963  12.758   2.001  0.2271 -0.2593  0.1845
10467W        W26601  18.176  16.900  11.897  0.1890  0.0562  0.0011
10468W        W26602  12.000   2.119   3.424  0.2410 -0.0077 -0.1299
10469W        W26603  18.226   3.540   5.558  0.0596  0.1227 -0.1205
10470W        W26604  16.223  11.861   5.001 -0.1190 -0.1933 -0.0912
10471W        W26605  16.133   3.675   4.690  0.3242 -0.0273 -0.3670
10472W        W26606   1.269   4.130   1.697 -0.0061  0.1230 -0.0128
10473W        W26607  14.091   7.941   4.475 -0.1476 -0.0926 -0.0373
10474W        W26608   8.677   9.375  12.456  0.0328 -0.1595 -0.0548
10475W        W26609   0.432  17.483   4.736 -0.0229  0.0658  0.0292
10476W        W26610  12.290   4.350  13.672  0.0815  0.0858  0.0030
10477W        W26611  16.037  16.808  12.751 -0.0053  0.0437 -0.0238
10478W        W26612  17.659   2.079  14.021  0.2400  0.3102 -0.1414
10479W        W26613   8.688   0.605   4.501  0.1212  0.2194  0.1115
10480W        W26614  12.351  17.852   0.462 -0.1622  0.0211 -0.0547
10481W        W26615   9.139  14.576  13.832 -0.3170 -0.3998  0.2863
10482W        W26616   6.558  12.411  11.500  0.0371 -0.0608  0.1600
10483W        W26617   5.508  12.718   1.153 -0.0241  0.2630  0.0601
10484W        W26618   2.926   2.006  14.241  0.0003 -0.1600 -0.0051
10485W        W26619   2.838   7.944   1.151  0.1301 -0.0142 -0.2130
10486W        W26620   2.732   3.051   0.827  0.2073  0.0030  0.0438
10487W        W26621   6.494   1.136   3.875  0.0490  0.2122 -0.0444
10488W        W26622  17.175  16.605   5.154 -0.0841 -0.1837  0.1345
10489W        W26623  10.534  12.230  13.804 -0.0042 -0.0664  0.1437
10490W        W26624   8.501  11.661  13.851  0.1623 -0.1061  0.0315
10491W        W26625  13.401   6.278  13.121  0.0845  0.2052 -0.1640
10492W        W26626   9.555  10.432  14.766  0.1756  0.1250 -0.0510
10493W        W26627  18.045   9.590   1.611 -0.1360  0.0853 -0.0460
10494W        W26628   1.438  15.770   4.650 -0.1064 -0.2874 -0.1460
10495W        W26629   8.504  14.234   4.317 -0.0575 -0.3144 -0.1291
10496W        W26630   7.036   2.693   2.405  0.1200 -0.0323 -0.1310
10497W        W26631   7.322  14.290   3.843  0.1627 -0.1026 -0.0535
10498W        W26632   8.852  15.975   0.043 -0.2441 -0.0103 -0.2681
10499W        W26633  15.171   5.106  13.599 -0.3360  0.2107  0.3407
10500W        W26634   3.621  12.689   4.084  0.2490  0.1001  0.0085
10501W        W26635   4.638   8.012  12.443 -0.1654  0.1273 -0.1165
10502W        W26636   0.694   9.856  14.167 -0.0015 -0.0146 -0.1440
10503W        W26637   8.166   4.074  11.634 -0.0113  0.1774  0.1701
10504W        W26638  13.182  17.788  12.896 -0.2310 -0.1149  0.2799
10505W        W26639   6.019   4.044  13.416  0.0326 -0.1681  0.2122
10506W        W26640   2.663   8.683  13.452  0.0227  0.1688  0.0493
10507W        W26641   0.568  14.979   3.467  0.2026  0.0936 -0.1216
10508W        W26642   6.306  15.957   2.540  0.1163 -0.2895 -0.2200
10509W        W26643  14.078  10.994  13.217 -0.1521 -0.2105  0.0492
10510W        W26644  11.209   6.808   3.345  0.0586 -0.1942 -0.1819
10511W        W26645  11.001  12.943  15.469  0.1179 -0.3898 -0.0241
10512W        W26646   1.262  11.877   3.865  0.0017 -0.0284  0.0808
10513W        W26647   5.720  13.952   4.015 -0.2022 -0.2779 -0.1447
10514W        W26648   0.851  17.834   4.673  0.1555 -0.2764  0.0772
10515W        W26649   1.502  17.803   2.360  0.3355 -0.2446 -0.0290
10516W        W26650  17.692   5.626  15.416  0.3228  0.0169  0.2764
10517W        W26651   7.501   4.469   2.386  0.3087 -0.1914  0.0591
10518W        W26652  16.539  14.247  15.327 -0.1069  0.3905  0.0990
10519W        W26653   0.466  10.018  10.512 -0.2825  0.0730  0.0123
10520W        W26654   4.199  17.651   1.984  0.1697 -0.0616 -0.2194
10521W        W26655   8.872  11.313  11.272  0.0859  0.3437  0.0897
10522W        W26656   7.359   1.822   2.631 -0.3395  0.3151 -0.0033
10523W        W26657  15.658   7.170   1.264 -0.0220  0.1250  0.1805
10524W        W26658   9.179  15.458   1.429  0.1118 -0.1089 -0.1705
10525W        W26659   6.724   6.395   3.491 -0.3792  0.0514  0.2106
10526W        W26660  16.809   7.123   1.093 -0.0147 -0.3368  0.0381
10527W        W26661   2.433  12.037   4.014  0.0537 -0.0206 -0.0749
10528W        W26662  13.552  14.563   1.981 -0.1522 -0.3698  0.0476
10529W        W26663  10.456   7.261  14.830  0.0729  0.2869  0.0319
10530W        W26664   8.775   5.533   1.741  0.2371 -0.0643 -0.0313
10531W        W26665  10.743  10.609  12.826 -0.1317  0.1012 -0.1540
10532W        W26666  10.333   2.531  11.228 -0.2743 -0.1259  0.0578
10533W        W26667   5.616   5.344  12.660  0.2429  0.0017  0.1882
10534W        W26668  12.873   3.297   3.462 -0.1578 -0.1747 -0.0971
10535W        W26669  10.508   8.141  14.832  0.0673  0.0247  0.2521
10536W        W26670   9.139  17.723   4.643  0.2738 -0.0263  0.1198
10537W        W26671   6.688   2.446   1.934  0.0464 -0.3277 -0.2025
10538W        W26672   2.452  12.634  14.339  0.0899 -0.2176  0.0231
10539W        W26673   7.468  18.424   0.592  0.1450  0.1895 -0.0349
10540W        W26674   4.150  10.944  15.080 -0.0250 -0.0278 -0.0253
10541W        W26675  15.974  13.876   5.136  0.2850 -0.2259 -0.2903
10542W        W26676  10.217   7.753  14.988  0.0116  0.0030 -0.1385
10543W        W26677   1.014  16.397  15.594  0.0441  0.0884 -0.0359
10544W        W26678   3.753   3.828  12.499  0.1718 -0.0221  0.1463
10545W        W26679   6.642   3.700   0.052 -0.0242 -0.1262 -0.1324
10546W        W26680  17.206   9.848   1.112  0.0809 -0.1463 -0.0485
10547W        W26681   7.525   3.103  15.259  0.3270 -0.3000 -0.0339
10548W        W26682  12.120   8.156   5.854 -0.0115 -0.0374 -0.0141
10549W        W26683   9.891   4.189  14.069 -0.1303 -0.0899  0.0076
10550W        W26684  18.122  11.578  14.308 -0.2304  0.1323 -0.3085
10551W        W26685   1.360   2.815  15.541  0.1316 -0.2176 -0.1285
10552W        W26686   6.699  12.409  10.994  0.0324 -0.1165  0.0231
10553W        W26687  17.929   2.129  15.404 -0.1155 -0.2668  0.3386
10554W        W26688  17.466  14.282   1.253 -0.0145  0.1755  0.1947
10555W        W26689  17.844  10.356   3.521 -0.2470 -0.0873  0.0924
10556W        W26690   2.258   7.070  15.162 -0.0458  0.2099 -0.0928
10557W        W26691  16.741   8.284   1.180  0.0040  0.0271 -0.2257
10558W        W26692  16.920  10.474  11.443 -0.2235 -0.2865  0.1788
10559W        W26693   5.940  11.274   5.816 -0.0104 -0.0314 -0.3634
10560W        W26694   9.750   8.717  13.470 -0.1677  0.1594  0.0428
10561W        W26695   7.731  16.502   4.261 -0.1273 -0.1291 -0.1942
10562W        W26696   6.454   7.481   0.349  0.0416 -0.3046  0.0215
10563W        W26697  17.026  11.760  11.143  0.0120 -0.0111 -0.1048
10564W        W26698   2.677  11.324  14.744  0.5070  0.0110  0.1093
10565W        W26699   7.539  15.462   4.511 -0.0371 -0.0884  0.2166
10566W        W26700   2.851   8.615   3.755 -0.0279  0.2002 -0.1691
10567W        W26701   0.179   3.665   3.524  0.0480  0.3591 -0.1115
10568W        W26702   2.866  12.348  12.412 -0.1585 -0.1383 -0.2305
10569W        W26703  11.475  12.653  15.192  0.1474  0.1644 -0.2493
10570W        W26704   0.197  12.699  14.343 -0.0001  0.0131  0.0228
10571W        W26705   6.731  13.338   2.477  0.3286 -0.0372  0.3237
10572W        W26706   1.470  11.873  12.750  0.0313 -0.0384  0.2328
10573W        W26707  17.359  12.180  14.703 -0.3446  0.0639  0.0110
10574W        W26708   0.689  16.284  12.520 -0.0171 -0.2365  0.1838
10575W        W26709   6.448  10.333   0.127 -0.2281 -0.0684 -0.0502
10576W        W26710   7.879   0.980   4.583 -0.0721 -0.2343  0.0004
10577W        W26711   6.087  11.934   2.478 -0.0306  0.0646  0.3837
10578W        W26712  12.678  12.383   1.611  0.0112 -0.0183 -0.0421
10579W        W26713  15.645  14.162   3.420 -0.0338 -0.1555  0.2572
10580W        W26714  16.998   2.579   4.971  0.1731  0.2525  0.2430
10581W        W26715  12.206  11.326  13.634  0.0169  0.0185  0.2572
10582W        W26716   1.745   5.680   0.552 -0.1147 -0.0684 -0.1529
10583W        W26717   9.592  10.423  12.477 -0.1213  0.0584 -0.0711
10584W        W26718  11.073  16.136  14.470  0.0132 -0.0468 -0.0777
10585W        W26719   1.579   0.647  13.645 -0.0192 -0.2725  0.3520
10586W        W26720   3.589  14.028   4.192 -0.0285 -0.0092  0.0327
10587W        W26721   7.465  15.595   0.475 -0.0426  0.2647  0.0348
10588W        W26722   2.826  17.067   0.695 -0.2016 -0.0478  0.1194
10589W        W26723   0.412   1.063  14.071  0.0079 -0.1301  0.0313
10590W        W26724  10.384  12.673   0.641 -0.2028  0.0747 -0.1736
10591W        W26725   9.756  10.589   2.157 -0.2152  0.1249  0.0575
10592W        W26726  16.272  16.184  13.714 -0.1574  0.0042  0.0760
10593W        W26727  16.953  17.610  15.543 -0.0303 -0.0977 -0.1721
10594W        W26728  16.655   4.822  12.290 -0.0446 -0.2231  0.1191
10595W        W26729  14.487   9.595  12.116 -0.0173  0.0148 -0.2223
10596W        W26730   2.935  13.630   0.093  0.1454 -0.1161  0.0178
10597W        W26731  12.663  13.637  13.514  0.0989  0.0115 -0.2134
10598W        W26732   1.717  12.962   4.678  0.3692 -0.0525 -0.2246
10599W        W26733   8.814   2.902  11.189 -0.3107 -0.0194  0.1055
10600W        W26734   9.558   8.813   2.477  0.1252 -0.1651 -0.2164
10601W        W26735  13.326   7.977   5.503  0.2060  0.0266  0.0969
10602W        W26736   9.064  14.520   3.283  0.3345 -0.0808  0.2879
10603W        W26737  12.363  11.385   1.975  0.3098 -0.3067 -0.2677
10604W        W26738  12.208  16.377  10.724 -0.1618  0.1693  0.0466
10605W        W26739   7.395   8.256  13.638 -0.1693  0.3146  0.0071
10606W        W26740   6.884  17.344  13.364  0.1542  0.0292  0.1202
10607W        W26741  14.032  16.057   5.036  0.2008  0.0374  0.2490
10608W        W26742   2.514  12.638   0.378 -0.0129  0.3075  0.1436
10609W        W26743   7.283  16.895   6.143  0.3377  0.0368  0.2254
10610W        W26744   4.068   3.649  11.555  0.3475 -0.3241 -0.1280
10611W        W26745   9.086   1.028   1.333 -0.1385 -0.2437  0.3264
10612W        W26746   0.640   0.998  15.358  0.1368 -0.0769 -0.0048
10613W        W26747   8.172   4.168  11.070  0.1061  0.4507  0.0686
10614W        W26748  13.115  14.496  14.129 -0.1293  0.1744 -0.0891
10615W        W26749   7.034   8.800   4.927 -0.1334 -0.2916  0.0211
10616W        W26750   0.169  18.447   4.532 -0.1289  0.1425 -0.3871
10617W        W26751  10.275   2.904  10.390 -0.0568 -0.1436  0.2133
10618W        W26752  16.321  10.030  12.564  0.0583  0.1582 -0.3658
10619W        W26753   4.961   6.593   2.066  0.0706 -0.2758  0.2308
10620W        W26754   7.649  14.372   0.165  0.2703  0.0954  0.1238
10621W        W26755   7.233  10.781  11.717 -0.0095  0.1125 -0.4437
10622W        W26756  13.985   4.333  12.000  0.0117 -0.0550  0.2270
10623W        W26757   3.659   1.267  15.021  0.1129  0.0181  0.0640
10624W        W26758  13.322  14.971  13.725 -0.2911  0.0500 -0.2494
10625W        W26759  17.043   9.632   5.709 -0.2107 -0.2784  0.0311
10626W        W26760  12.441   5.265  12.075 -0.1116  0.1825 -0.0246
10627W        W26761  17.847  16.553   0.893  0.4831  0.1304  0.2204
10628W        W26762   8.455   5.864   1.579  0.2936  0.0035  0.1271
10629W        W26763  15.932  17.572  12.205  0.0457 -0.5154  0.1257
10630W        W26764  11.688   1.181  12.943  0.1925  0.0901  0.0051
10631W        W26765  17.389  17.533  11.735 -0.0296 -0.0533 -0.1869
10632W        W26766  13.264  17.388  13.630  0.1418 -0.0515  0.1966
10633W        W26767  14.857  12.101   5.375 -0.0293 -0.1964  0.0752
10634W        W26768  16.631   1.843   3.671  0.0926  0.0341 -0.2130
10635W        W26769  14.870   5.122  11.753  0.1815  0.0124  0.2076
10636W        W26770   4.354   8.076   4.775 -0.0616 -0.5222 -0.0857
10637W        W26771  15.099  15.152  12.459 -0.2699  0.2097  0.0399
10638W        W26772   8.709   5.568  11.290  0.0275  0.2410 -0.1149
10639W        W26773   8.899   3.388  13.006 -0.1406 -0.3474 -0.0304
10640W        W26774   9.744  14.378   1.340  0.1549  0.1551 -0.0419
10641W        W26775  14.098   7.756   1.594  0.1346  0.0549  0.1681
10642W        W26776   7.992  14.680   0.074 -0.0798 -0.0079 -0.0400
10643W        W26777  12.146   4.834  12.012  0.3011 -0.3267 -0.1662
10644W        W26778  13.584   2.221   4.945  0.3237  0.1325 -0.1700
10645W        W26779   9.477  17.569  12.917  0.0039 -0.0994  0.0655
10646W        W26780   0.913   2.331  14.309 -0.1188 -0.2305 -0.0631
10647W        W26781   9.888   1.449   2.997  0.0397  0.1466  0.2393
10648W        W26782   0.369   1.703   0.758 -0.1320 -0.1680 -0.0370
10649W        W26783   3.127   6.561  11.131 -0.3150  0.0612  0.1567
10650W        W26784   3.079   6.473   1.588  0.2692  0.1500 -0.0366
10651W        W26785  14.640  15.016   3.052  0.0896 -0.2320  0.0950
10652W        W26786   0.249  14.972   1.331 -0.0715  0.0634  0.0158
10653W        W26787   6.439  14.543  12.579 -0.0482 -0.1203  0.1351
10654W        W26788   5.185   3.453   6.229 -0.0149  0.1346  0.0730
10655W        W26789  10.069  18.438   0.123  0.0124  0.2794  0.2274
10656W        W26790  13.074  12.550  15.693  0.0396  0.4219  0.1474
10657W        W26791   1.024  10.017   0.078  0.0030 -0.1717 -0.0291
10658W        W26792  13.624  15.577   3.357  0.0202 -0.0386 -0.2302
10659W        W26793   0.696  10.125   0.768  0.0303 -0.2259  0.0911
10660W        W26794  11.877   3.030   5.172  0.1187  0.0572  0.1739
10661W        W26795  14.400  18.192   4.246 -0.0423 -0.4316  0.1983
10662W        W26796  13.648   2.889   1.147  0.0111  0.0324  0.1356
10663W        W26797   4.025  12.447   2.009 -0.2101 -0.0995 -0.1263
10664W        W26798   0.846   2.588   5.198 -0.0844  0.2914  0.0800
10665W        W26799  15.969  13.539   3.877  0.1326  0.2093 -0.1362
10666W        W26800  14.784  14.651  14.164  0.3169 -0.0937 -0.0687
10667W        W26801   9.063   9.656   3.966 -0.2993 -0.0149  0.2075
10668W        W26802  15.493  10.008  11.337  0.2204 -0.3555 -0.0691
10669W        W26803  17.619   5.367   0.997  0.1326  0.1464  0.1791
10670W        W26804  10.965   3.961   0.629 -0.2472 -0.0680  0.2731
10671W        W26805   7.067   3.209  11.380 -0.0431  0.2113  0.2372
10672W        W26806   6.073   7.599   0.662  0.2012  0.1062  0.2190
10673W        W26807  17.387   2.321   3.782 -0.1274 -0.0515  0.0581
10674W        W26808   5.949   1.909  14.882  0.2131 -0.1313 -0.1063
10675W        W26809  13.234   3.525   3.232 -0.2618  0.0525  0.3548
10676W        W26810  14.302  16.987   2.970 -0.1121  0.0865 -0.0769
10677W        W26811   4.077  10.844   4.668  0.2553  0.2654 -0.0170
10678W        W26812   4.315   7.504  13.277  0.3278 -0.4046  0.1147
10679W        W26813  11.966  18.145  15.223  0.0149  0.1487  0.2520
10680W        W26814  11.812   2.701   2.653 -0.1773  0.1758 -0.0437
10681W        W26815  13.400  18.215   2.453  0.2059  0.0826 -0.1560
10682W        W26816  16.445   0.123  11.543 -0.0119 -0.3237 -0.0730
10683W        W26817   0.626  17.642  10.084 -0.3737  0.1399 -0.1397
10684W        W26818   7.829   9.390  14.092  0.2050  0.0421  0.0809
10685W        W26819   8.694  13.321  12.564 -0.1832 -0.0248 -0.0653
10686W        W26820  11.913  15.429   5.016  0.0389  0.0938  0.1767
10687W        W26821  11.410  12.645  13.509 -0.0782  0.0164 -0.2155
10688W        W26822  11.243  10.512  11.319  0.0261 -0.0467  0.1807
10689W        W26823   3.113   8.439   2.321  0.0548  0.1424  0.0792
10690W        W26824  17.820   4.225  11.699  0.0191 -0.0503  0.2314
10691W        W26825  18.118  13.500   1.277 -0.1695 -0.5742 -0.0818
10692W        W26826   9.535   7.616   3.330  0.3160 -0.1427  0.1231
10693W        W26827  10.200   9.938   1.119 -0.0309  0.3032 -0.3183
10694W        W26828   7.869   2.478   0.609 -0.1751 -0.0616  0.0380
10695W        W26829  15.456  11.428  12.626  0.3033 -0.0564 -0.0760
10696W        W26830  11.226   7.555  15.286  0.1211 -0.2174 -0.1966
10697W        W26831  15.586  15.174   4.639 -0.0067 -0.0729  0.4410
10698W        W26832  14.273   4.323   4.822  0.0245 -0.3167  0.1639
10699W        W26833   2.375   3.588  13.091  0.2344  0.1008 -0.0575
10700W        W26834   1.300   5.213  14.628  0.1478  0.1765  0.0647
10701W        W26835  17.265  16.184  11.961 -0.0635 -0.2436 -0.1697
10702W        W26836   6.421  10.443  15.255  0.1594 -0.0162 -0.0918
10703W        W26837  17.706  16.289   1.465 -0.1924  0.0514  0.2751
10704W        W26838   5.598  14.423   4.181 -0.1455  0.0532  0.1119
10705W        W26839   0.516  11.078   4.627 -0.0354 -0.1307 -0.1718
10706W        W26840   1.952  13.055   2.214 -0.0700 -0.2616  0.2253
10707W        W26841   9.406   5.994  15.099  0.1549 -0.1864  0.0476
10708W        W26842   3.522   6.347   0.376 -0.0299 -0.0835 -0.1596
10709W        W26843   4.256   0.433  15.286  0.0207  0.3733 -0.0187
10710W        W26844   8.319  10.819  14.971  0.0791 -0.2122  0.0657
10711W        W26845   0.705  15.454  14.184  0.0171  0.2446 -0.2830
10712W        W26846  13.435  12.150  13.565  0.2865 -0.0093 -0.0107
10713W        W26847   5.817  15.816   2.294 -0.2494  0.1108 -0.0605
10714W        W26848  16.460  12.748   4.887 -0.1769 -0.0458  0.0121
10715W        W26849   0.763  11.403   4.235  0.2415 -0.0418 -0.0871
10716W        W26850  10.781   2.694  15.063 -0.1171  0.0370  0.2759
10717W        W26851  15.527  13.129   1.533  0.2062  0.0857  0.0286
10718W        W26852   1.323   5.405   1.711  0.1884 -0.3511  0.1090
10719W        W26853   1.122   1.476  11.411 -0.0204 -0.3103  0.1050
10720W        W26854  17.227  16.082  10.423 -0.2659 -0.0715  0.0454
10721W        W26855   9.365  16.255  10.517  0.3106 -0.3623  0.2260
10722W        W26856   7.145  16.458  12.351  0.4745  0.0192  0.1438
10723W        W26857   2.674   1.264  13.127 -0.0170  0.3131 -0.1038
10724W        W26858   7.125   3.368  13.212 -0.3095  0.1200  0.1088
10725W        W26859  10.403  10.366   3.275 -0.0003 -0.1696 -0.3771
10726W        W26860   1.719  17.057  13.263  0.3002  0.0593 -0.2664
10727W        W26861  18.177  15.712  15.686  0.2212 -0.2242 -0.0080
10728W        W26862   1.884  18.197   2.367  0.2668 -0.1358 -0.3467
10729W        W26863  11.727  17.151   2.842 -0.2769 -0.0596 -0.0257
10730W        W26864  13.711  16.336  13.824  0.2113  0.1699 -0.1190
10731W        W26865   2.392   6.467   3.359  0.1433 -0.1186  0.3606
10732W        W26866  12.901  15.205  13.565  0.0925 -0.1246 -0.0260
10733W        W26867   7.356  13.726  13.003 -0.0932 -0.1383 -0.2092
10734W        W26868   7.827   3.907   5.741 -0.0532  0.1687  0.1299
10735W        W26869   6.069   2.570   0.516 -0.2881 -0.0398 -0.1049
10736W        W26870   1.435   2.339   2.315 -0.3294 -0.1088  0.1615
10737W        W26871  13.863   1.089   3.467  0.4088 -0.1399  0.0815
10738W        W26872   0.965  18.311   2.153 -0.1239 -0.1668  0.2517
10739W        W26873   7.910   5.299  15.426 -0.0069  0.1286  0.1892
10740W        W26874  10.559   1.903   4.932  0.0828  0.1554 -0.2012
10741W        W26875  18.253   4.023   4.974  0.1691  0.1731  0.1770
10742W        W26876  13.788  18.083  13.513  0.1505  0.3768  0.1635
10743W        W26877   8.749   8.912  12.723 -0.2088  0.1276  0.1338
10744W        W26878   1.014   4.344   4.425  0.0042 -0.1499  0.3806
10745W        W26879   5.347  18.345  14.230 -0.1667 -0.2079  0.0122
10746W        W26880  14.035   3.387   2.927 -0.0566 -0.0609 -0.1389
10747W        W26881  14.264  12.373  11.736 -0.2886 -0.0644 -0.1837
10748W        W26882   8.260  13.510   0.071  0.0904 -0.2782  0.1278
10749W        W26883   7.687   1.379   3.958 -0.1798 -0.0289  0.1818
10750W        W26884  13.443   4.304  15.377 -0.2084 -0.2398 -0.0731
10751W        W26885  17.503   8.478  14.764 -0.1457  0.0320  0.2100
10752W        W26886   8.976   6.113  14.211 -0.0225  0.2719 -0.0845
10753W        W26887   5.669  16.543   2.030 -0.2320 -0.2983 -0.0064
10754W        W26888   7.133   6.352   3.168  0.0467  0.2596 -0.1871
10755W        W26889   5.856  16.560   2.998  0.2384  0.0592  0.0925
10756W        W26890   9.356   1.189   4.926 -0.0049  0.0880 -0.1660
10757W        W26891  10.734   9.073   5.614 -0.2354 -0.3104 -0.1440
10758W        W26892  10.952  14.418  13.435  0.2690  0.0655  0.0753
10759W        W26893  14.803   2.431  11.758 -0.1200 -0.1664  0.1433
10760W        W26894   2.466   9.403   4.006 -0.5441 -0.3547  0.1861
10761W        W26895   4.628   2.240   2.325 -0.2052 -0.3642  0.1062
10762W        W26896  18.126   3.286  12.690 -0.2358 -0.2491  0.1701
10763W        W26897   8.285   7.044  12.497  0.1650  0.0661  0.2156
10764W        W26898  14.872   7.690  11.817 -0.2387 -0.1864  0.1846
10765W        W26899   7.072   9.274  13.789 -0.0751  0.0488 -0.4349
10766W        W26900  17.757  14.672  14.215  0.1540 -0.0802  0.0258
10767W        W26901  12.566   1.981   5.089  0.2280 -0.1567  0.1783
10768W        W26902  18.010   8.541  12.385 -0.0691  0.1048 -0.1108
10769W        W26903   4.382   5.693   1.584 -0.3323 -0.2728 -0.0143
10770W        W26904  18.337   3.270  14.490  0.1111  0.2587 -0.0444
10771W        W26905   7.692   5.950   1.915 -0.2731 -0.1992 -0.1990
10772W        W26906   1.202  11.329  10.971  0.0246  0.2093 -0.2138
10773W        W26907   7.345   6.792   1.107 -0.0929  0.0484  0.0577
10774W        W26908   1.988  15.966  13.856  0.3333  0.1841 -0.2137
10775W        W26909  14.789   9.853   2.517 -0.0550 -0.0122 -0.0712
10776W        W26910  13.448  10.650   3.487 -0.1805  0.0760  0.0056
10777W        W26911   7.563   3.637   4.063 -0.0210 -0.1464  0.1144
10778W        W26912   1.335  17.965  12.178 -0.2987  0.0179 -0.2918
10779W        W26913   5.637  10.554   4.869 -0.0007  0.2230  0.4061
10780W        W26914  14.412  16.380   1.989  0.0591  0.2706  0.2115
10781W        W26915   2.927  13.809   1.656 -0.1289  0.0896 -0.1161
10782W        W26916   6.337  12.757  13.035 -0.0876  0.2569  0.1629
10783W        W26917   4.535   0.443  14.848  0.2539 -0.1451 -0.1905
10784W        W26918   9.784   7.333  13.083  0.0225  0.4903  0.3504
10785W        W26919   8.960  17.689  12.650 -0.1541 -0.0234 -0.0786
10786W        W26920  11.817  13.784  13.593  0.1609  0.0346  0.1813
10787W        W26921   4.849  13.746   3.111  0.2435 -0.2745 -0.0622
10788W        W26922  16.869   3.716   0.909  0.4554  0.2876 -0.0753
10789W        W26923   2.709  11.828   4.465  0.5885 -0.0359 -0.1115
10790W        W26924   0.468   5.055  10.838  0.0210 -0.1040  0.1752
10791W        W26925   9.840  15.454  13.713 -0.1363 -0.0319  0.1510
10792W        W26926  12.774   3.329   1.067  0.2391 -0.0113  0.1308
10793W        W26927   1.591   9.665  13.684  0.1485  0.2053  0.2927
10794W        W26928   1.415   6.999   5.049  0.2462 -0.0572 -0.0915
10795W        W26929   6.732   2.394  11.410 -0.0248 -0.0236 -0.0532
10796W        W26930  17.676   8.611   4.604 -0.2971  0.0752 -0.0706
10797W        W26931  15.050   8.276   3.870  0.1247 -0.2381  0.0963
10798W        W26932  14.227  14.963   2.036  0.0633 -0.0003  0.0615
10799W        W26933   5.502  13.860   3.483 -0.1452 -0.1350  0.2234
10800W        W26934  18.168   6.553  15.690  0.1667 -0.1625  0.1809
10801W        W26935  14.315   4.324   0.547 -0.1680  0.3791  0.0113
10802W        W26936   0.541  12.208   0.852 -0.0574  0.1316  0.2522
10803W        W26937  12.598   1.628  15.612 -0.0433 -0.1160  0.0744
10804W        W26938   8.660   6.155   2.452 -0.2994 -0.2298  0.2777
10805W        W26939  16.214   8.940   2.130  0.0907 -0.0408  0.0308
10806W        W26940  12.695   4.627   0.988 -0.1883  0.2726  0.0549
10807W        W26941  16.923  12.731   4.594  0.0921 -0.2095  0.2465
10808W        W26942   1.353  10.257   1.244 -0.1253 -0.2471  0.0575
10809W        W26943   8.592  12.009  14.485 -0.0490  0.0271 -0.1102
10810W        W26944   1.812  12.400   9.869  0.2389 -0.3093 -0.0090
10811W        W26945   6.038   8.064  15.473  0.1514  0.1493 -0.0313
10812W        W26946   5.071  16.115  13.082 -0.2503  0.1822  0.1329
10813W        W26947   4.503   6.540   4.035 -0.0263 -0.1463  0.0951
10814W        W26948  14.578   2.901   4.615 -0.3099 -0.0701  0.0730
10815W        W26949   0.144   2.714  15.346  0.0341 -0.1441 -0.2097
10816W        W26950  15.554  17.988   1.835 -0.0099  0.3497 -0.3156
10817W        W26951  15.234   0.915   0.559 -0.0796  0.0394  0.2674
10818W        W26952   5.932   1.639  13.807 -0.2037 -0.0191 -0.3243
10819W        W26953  15.351  10.195   4.952 -0.0368 -0.2658 -0.0638
10820W        W26954   3.585  16.812  11.935 -0.3782  0.2320 -0.0144
10821W        W26955  17.261   8.452  11.797 -0.1667 -0.0913  0.0773
10822W        W26956  13.905   1.968  13.882 -0.0437 -0.4344  0.0702
10823W        W26957  17.443   6.867   2.072  0.0311  0.2211  0.0923
10824W        W26958  14.361  12.315   1.334  0.1312  0.0249  0.0830
10825W        W26959   4.630   4.045  15.277 -0.1293  0.1365  0.2060
10826W        W26960   6.976  14.339   2.910  0.2555 -0.1129  0.5952
10827W        W26961  13.996  18.117   3.918 -0.3459  0.2896 -0.1286
10828W        W26962   3.235   1.431  12.052 -0.5963  0.1433  0.0255
10829W        W26963  17.969  17.628  14.344  0.1989  0.0901  0.2047
10830W        W26964   3.770  17.015   1.000 -0.4419  0.0038  0.0626
10831W        W26965   9.442   4.729   1.059 -0.0921  0.0060  0.0614
10832W        W26966  10.885   8.178  13.472  0.0428  0.0068 -0.0273
10833W        W26967  13.249  15.268  15.773 -0.0012  0.1921  0.0329
10834W        W26968  15.553   8.395   0.950 -0.1038 -0.3815  0.0926
10835W        W26969   6.610  14.941   3.621  0.0553 -0.2171  0.1404
10836W        W26970  10.587   5.338   0.391  0.0914  0.1545  0.0622
10837W        W26971   0.795   3.819   0.712  0.0851  0.1899 -0.1833
10838W        W26972  15.604  14.100  12.819  0.1464 -0.0718 -0.0318
10839W        W26973   8.981   1.951  13.070  0.0491 -0.1804 -0.0559
10840W        W26974  14.206   2.553  14.015 -0.0884 -0.0230 -0.0295
10841W        W26975   4.765   8.768   2.436  0.0586  0.0598  0.1738
10842W        W26976   8.576   5.831   4.721  0.0608  0.0005 -0.0905
10843W        W26977   5.215   9.055   2.072  0.0964 -0.1677  0.0544
10844W        W26978   3.814   8.160  11.349  0.0367  0.0972 -0.1204
10845W        W26979  15.306  18.295  15.717  0.3393  0.5078 -0.0632
10846W        W26980  11.017   6.526   0.319  0.1562  0.2602  0.1761
10847W        W26981   4.483  14.761   2.287  0.0126  0.1221  0.0043
10848W        W26982  11.521  15.413  15.533 -0.0464 -0.1667  0.0940
10849W        W26983  17.544  17.539   3.369 -0.0487  0.1398  0.2385
10850W        W26984   0.691   6.655  13.550  0.0136 -0.1558 -0.2392
10851W        W26985   7.814  15.770  13.271  0.0800  0.1296 -0.1398
10852W        W26986   1.312   6.806  11.640  0.0699 -0.0113 -0.2305
10853W        W26987   0.639  10.386  12.164  0.1189 -0.0576  0.4005
10854W        W26988  12.302   8.513  14.591  0.1080 -0.5405  0.1828
10855W        W26989   4.887  15.701   0.803 -0.1797  0.1674  0.0094
10856W        W26990   1.736  15.014   1.199  0.1429 -0.0080 -0.3767
10857W        W26991  15.032  15.197   2.374  0.1294 -0.0739  0.1545
10858W        W26992  14.866   5.669  11.591  0.1900 -0.1028  0.1413
10859W        W26993   3.392   3.609   5.471 -0.0179 -0.1761 -0.0769
10860W        W26994  17.709   7.134  14.811 -0.0636 -0.0515 -0.4144
10861W        W26995   6.115  14.461  14.753 -0.1493 -0.0373  0.2572
10862W        W26996  14.657   2.704  14.261  0.4147 -0.1802  0.0229
10863W        W26997  13.382   5.077   5.158  0.2252 -0.2490  0.2623
10864W        W26998  16.259   2.708  11.764 -0.0098  0.1129 -0.1399
10865W        W26999  10.257  17.608   0.803  0.3377  0.1591  0.5617
10866W        W27000   6.978  12.894   1.057  0.1067  0.0172  0.0512
10867W        W27001  16.212   2.534   4.504 -0.0096  0.1749 -0.0813
10868W        W27002  10.662   6.426  12.200  0.0876 -0.0254 -0.1891
10869W        W27003  15.802  14.293  15.612 -0.3687  0.0831  0.1572
10870W        W27004  16.393   1.355  14.283  0.0390 -0.1512  0.2707
10871W        W27005   9.492  10.384   3.731 -0.2140  0.1788  0.1836
10872W        W27006  10.903   3.867   5.023 -0.0740 -0.0854  0.2564
10873W        W27007   9.406  17.273   4.771  0.4215  0.1339 -0.0147
10874W        W27008   1.596   6.355  10.768  0.3718 -0.1229 -0.0932
10875W        W27009   9.994  15.181   3.000  0.0088 -0.3563 -0.0429
10876W        W27010   7.416   5.534  15.314  0.3049  0.1440 -0.0183
10877W        W27011   1.084  13.837   3.769 -0.0479 -0.1957  0.2396
10878W        W27012   4.672   2.309   0.334  0.2910  0.0923 -0.1917
10879W        W27013   1.254  15.363  11.713  0.1246  0.1077  0.1340
10880W        W27014   4.920  12.881   2.150  0.4207  0.0335  0.3250
10881W        W27015   9.111  17.902  13.600 -0.1403 -0.2532 -0.2463
10882W        W27016  17.809  17.617   0.155  0.0192 -0.0242 -0.0885
10883W        W27017  11.254  16.581   0.166 -0.1019 -0.0313 -0.1326
10884W        W27018  12.569   4.946  13.026 -0.0371  0.2869  0.2686
10885W        W27019   4.920  10.871  12.866  0.1423  0.2659 -0.1571
10886W        W27020  10.499  16.917  10.300  0.1650  0.0324  0.2531
10887W        W27021  14.362   9.845  15.342  0.0443  0.0578  0.2859
10888W        W27022  17.863  12.788  15.807  0.1635 -0.3173 -0.2177
10889W        W27023   5.791   8.626  15.831 -0.0054  0.0410  0.1071
10890W        W27024   9.951   4.114   5.038  0.1562 -0.3006 -0.0134
10891W        W27025  16.688  11.686  14.252  0.0682  0.0692  0.3107
10892W        W27026   8.953   0.625   1.137  0.0292 -0.2408  0.4020
10893W        W27027  14.367   6.043   0.414  0.4477  0.1452 -0.1286
10894W        W27028   3.415   6.357  15.205  0.3339  0.3122  0.1042
10895W        W27029  17.226   2.019   2.795  0.0461 -0.1122 -0.1556
10896W        W27030   1.060   5.582   2.772  0.0879 -0.0785 -0.3075
10897W        W27031   8.639  11.200  15.311  0.0189  0.0877 -0.0122
10898W        W27032  12.256  11.975   3.500 -0.0659 -0.2631 -0.3323
10899W        W27033  13.554   3.951   3.816 -0.0589 -0.1113  0.2357
10900W        W27034  10.811  10.530  14.838 -0.1193 -0.0039 -0.1347
10901W        W27035   4.057  15.891   1.998 -0.1561  0.1530  0.2028
10902W        W27036   2.837   8.427   1.902 -0.3015 -0.1540  0.0050
10903W        W27037   3.561  14.542  15.122  0.1888  0.0412 -0.1321
10904W        W27038  17.272  14.864   1.854 -0.2444 -0.1127 -0.2443
10905W        W27039  14.297  11.853  12.846 -0.0823 -0.1098 -0.3296
10906W        W27040  10.678   7.549  15.292  0.0870  0.0039  0.1006
10907W        W27041   3.221   7.178  15.837 -0.0563  0.0648 -0.3798
10908W        W27042  11.929  14.408   0.939 -0.0355 -0.1411 -0.0592
10909W        W27043   1.611  16.248   3.345 -0.0487  0.4740 -0.3242
10910W        W27044   9.074   5.340   3.575  0.0295  0.1517  0.3340
10911W        W27045   5.898   6.378  10.924  0.2452  0.1352  0.2238
10912W        W27046   3.829   3.295  14.368 -0.0992 -0.2891  0.1147
10913W        W27047   1.502  13.412  10.824  0.0779 -0.2049  0.0626
10914W        W27048   9.036   4.585  14.182 -0.3660 -0.0636  0.2029
10915W        W27049   4.767  13.309   1.108  0.2922 -0.1788 -0.4219
10916W        W27050   8.296  11.340  11.802 -0.3088 -0.0660  0.1583
10917W        W27051  16.374  16.379  12.430  0.0371  0.1025 -0.0398
10918W        W27052   6.771   0.725  13.071  0.1452 -0.0256  0.0788
10919W        W27053  17.773  14.922   1.749 -0.0629 -0.2151 -0.0720
10920W        W27054  16.795  11.957   5.268  0.3783  0.3088 -0.0480
10921W        W27055  17.830   3.644   1.982 -0.1550  0.1648 -0.1530
10922W        W27056   5.043   9.182   0.891 -0.1729  0.3959  0.0795
10923W        W27057  15.460   0.192  14.532  0.1233  0.3774 -0.2222
10924W        W27058  17.643   5.884  10.992  0.0891 -0.0707 -0.0221
10925W        W27059   1.493   3.306  15.669  0.1254  0.3171  0.1144
10926W        W27060  10.154  10.037   5.961  0.0058 -0.1203  0.0526
10927W        W27061   6.529  10.524   1.778 -0.1573 -0.0372  0.0424
10928W        W27062   2.764  15.967   2.412 -0.0453  0.0147  0.0950
10929W        W27063   5.080   9.783   4.145  0.1252  0.0287 -0.0873
10930W        W27064  14.665  14.198  11.763 -0.1392  0.2663 -0.1576
10931W        W27065   4.695   0.650   1.690  0.0369 -0.2705  0.0749
10932W        W27066   6.915   2.062  13.575  0.1408  0.0413  0.0469
10933W        W27067  16.285   8.393   2.597  0.1025 -0.1817 -0.1758
10934W        W27068  11.826  14.448   1.965  0.0204 -0.1807 -0.3135
10935W        W27069  14.593   7.535  13.655 -0.0548 -0.0464  0.2609
10936W        W27070   4.243   9.642  10.647 -0.0261 -0.0057  0.0265
10937W        W27071   3.921  12.919  10.801 -0.0047 -0.1654  0.0003
10938W        W27072   0.565  13.309   3.417  0.2679  0.2005 -0.2390
10939W        W27073   0.687  13.435  14.884 -0.2361 -0.1864  0.3009
10940W        W27074   2.689   3.478  11.981  0.0071 -0.1328 -0.5207
10941W        W27075   3.843  16.363  13.443 -0.1558 -0.2140  0.0105
10942W        W27076  15.406  11.798  11.262  0.0941  0.2196  0.0131
10943W        W27077   6.639  16.811   3.494 -0.2481  0.0189 -0.2938
10944W        W27078   0.612   0.454  15.393  0.0504  0.2382  0.4937
10945W        W27079   3.863  14.069   2.050  0.1946 -0.3276 -0.0378
10946W        W27080  14.334  14.987   4.391  0.0408 -0.4309  0.0727
10947W        W27081   8.551   0.221   4.061 -0.0577 -0.3605 -0.1485
10948W        W27082  12.394   8.232  14.162  0.1334  0.1259 -0.2426
10949W        W27083   5.564  17.028   2.909 -0.0684 -0.2578  0.3223
10950W        W27084  12.212   6.379   4.559  0.0597 -0.0169  0.2989
10951W        W27085   4.917   0.613  12.039  0.2166 -0.0132 -0.0126
10952W        W27086   6.797  18.048  12.848  0.0668  0.1308  0.0315
10953W        W27087  13.510  10.678  11.543 -0.1881  0.3685  0.2116
10954W        W27088  16.347   5.489  12.307  0.0752 -0.0289  0.0115
10955W        W27089  16.285   0.213  12.943 -0.1370  0.1677 -0.2945
10956W        W27090   3.550   9.247   0.971 -0.1035 -0.2301  0.3252
10957W        W27091  13.729   2.168   1.007  0.1899  0.2961  0.2466
10958W        W27092   5.658   0.905   4.047 -0.0958 -0.2374  0.4216
10959W        W27093  17.838   9.029   4.351 -0.5127 -0.1607  0.0823
10960W        W27094  18.230   7.244  12.687  0.2683  0.1924  0.2495
10961W        W27095   9.347  13.342  14.654 -0.1206  0.2533  0.1267
10962W        W27096   7.798   4.395  13.739 -0.3301  0.0958  0.1638
10963W        W27097   5.560  17.745   0.631 -0.0646  0.0895  0.1184
10964W        W27098   2.861   7.897  11.160 -0.1067  0.1734  0.1263
10965W        W27099   4.841  18.046  13.341  0.2490  0.5387  0.1622
10966W        W27100   3.674  18.192  13.731  0.0318 -0.3635 -0.2588
10967W        W27101   2.416   7.217  13.976  0.0313 -0.0703 -0.0463
10968W        W27102   2.339  13.156   9.885  0.1657 -0.0028 -0.2380
10969W        W27103  16.872  15.955   3.106  0.1377  0.0796  0.1977
10970W        W27104  12.422  11.659  10.498 -0.3916  0.2049  0.0708
10971W        W27105   5.897   1.881   4.405 -0.0668  0.3431  0.1820
10972W        W27106  15.522  16.971   5.543  0.1157 -0.0846  0.2022
10973W        W27107   9.899   7.182   0.933  0.1406  0.1731 -0.0354
10974W        W27108   6.869   4.872  12.066  0.0733  0.0133 -0.1454
10975W        W27109   2.586   3.024   1.752  0.0488 -0.0854 -0.3138
10976W        W27110   2.723   1.730  12.203  0.4426 -0.0164  0.2251
10977W        W27111  16.565   3.479  11.269  0.0530 -0.0375  0.0833
10978W        W27112  16.503  12.783  13.506  0.1791  0.4816  0.1985
10979W        W27113  17.058   1.498  12.297 -0.1341  0.1879  0.1026
10980W        W27114  15.264   4.801   3.875 -0.0581  0.0917  0.3345
10981W        W27115   1.057   3.289   5.296  0.1725  0.0330  0.0860
10982W        W27116   6.478   7.419  15.217  0.0450  0.0447  0.0845
10983W        W27117  14.169  18.462  12.087 -0.1409 -0.3164  0.0052
10984W        W27118   9.285   3.112   0.416  0.0181 -0.2063 -0.0560
10985W        W27119   5.480  12.713  12.982  0.0167 -0.0151  0.0256
10986W        W27120   8.980  16.949   3.985 -0.1115  0.0780  0.3464
10987W        W27121   7.021  14.388   4.208 -0.0341 -0.1535 -0.0148
10988W        W27122   6.860   6.340  14.183 -0.3100 -0.0691 -0.4567
10989W        W27123   7.818   4.472   3.404  0.0149  0.0119 -0.0428
10990W        W27124   1.638  14.452   4.831  0.2391 -0.0855 -0.0619
10991W        W27125   1.339   8.487   2.539 -0.0629 -0.1298 -0.0310
10992W        W27126   8.262   9.980   3.653 -0.2121  0.1009 -0.2493
10993W        W27127  15.263  11.271  11.395  0.0695 -0.0969  0.0933
10994W        W27128  11.581  16.623   0.584 -0.1897  0.0761 -0.0175
10995W        W27129   9.916   5.685   3.631 -0.0025  0.1670 -0.0662
10996W        W27130  12.887   7.799  10.872 -0.2470 -0.1334  0.0614
10997W        W27131  10.909   1.552   3.961  0.0308 -0.4159 -0.0336
10998W        W27132   4.862  14.681  10.563  0.1311 -0.6832 -0.0643
10999W        W27133   2.839  15.894  12.580 -0.2003 -0.0190  0.0069
11000W        W27134  16.683   7.998   4.241  0.1475 -0.1031 -0.1554
11001W        W27135   6.259  16.922   0.717  0.1766  0.1331 -0.2383
11002W        W27136  16.677   3.796  12.445  0.0440 -0.1348 -0.2271
11003W        W27137  15.484   6.809  11.671 -0.2198  0.0259 -0.2877
11004W        W27138  14.981   2.775   5.878  0.1452  0.2775  0.3254
11005W        W27139   1.372   1.945  13.278 -0.2852  0.0651  0.0083
11006W        W27140  15.602   1.157   1.904  0.2126  0.0163 -0.1164
11007W        W27141  10.092   7.682   3.473 -0.1474  0.0198  0.1759
11008W        W27142  16.718  16.020   2.527 -0.0780  0.1013 -0.2702
11009W        W27143  16.668   9.686   2.460 -0.0278  0.0993  0.0141
11010W        W27144  16.586   2.230   0.709 -0.4862  0.3286  0.1398
11011W        W27145   4.948   0.382   3.430  0.2603  0.0891  0.1543
11012W        W27146   7.314   9.330   3.505 -0.1697 -0.1179 -0.3100
11013W        W27147   3.983  14.604   5.225 -0.3643 -0.1415 -0.2318
11014W        W27148  18.262   2.630  10.722 -0.0894  0.2798  0.1778
11015W        W27149  14.179  12.257  15.251 -0.1515 -0.2299 -0.4272
11016W        W27150   6.498  12.057   0.397  0.2144  0.0064 -0.1474
11017W        W27151   1.078  16.449  14.303 -0.0204  0.0702  0.1179
11018W        W27152   4.836  16.899  15.390 -0.1640 -0.1833  0.3610
11019W        W27153   0.962   5.966  14.805  0.1391 -0.1402 -0.1619
11020W        W27154  15.430   3.052   1.823 -0.2576  0.2017  0.1413
11021W        W27155   3.177   9.064   0.512 -0.1478  0.0522 -0.0035
11022W        W27156  15.581   9.577   3.895 -0.0691  0.1952  0.0067
11023W        W27157   5.310  10.434  15.435 -0.3032  0.3280  0.1540
11024W        W27158  13.116  15.046  14.159 -0.2848 -0.0320  0.0046
11025W        W27159  16.940   3.987  14.256 -0.1713  0.0009 -0.3005
11026W        W27160  14.006   2.347   0.546 -0.1774 -0.1160 -0.1867
11027W        W27161   5.610   7.634   1.988  0.0047  0.2086 -0.0565
11028W        W27162  16.052   0.205   3.062  0.1221 -0.3549  0.0546
11029W        W27163   1.226   5.649   0.742 -0.2112  0.1789 -0.2859
11030W        W27164  12.940  12.899   2.401 -0.1431 -0.1571  0.1478
11031W        W27165  11.687   1.140   4.151  0.3954  0.2186 -0.1213
11032W        W27166   2.783  18.142   4.597 -0.1523  0.0516  0.0724
11033W        W27167   5.156  14.458   0.071 -0.1514  0.0361  0.0870
11034W        W27168  17.974  16.793   3.712 -0.2145 -0.1135  0.0661
11035W        W27169   0.231  17.443  11.642 -0.0905 -0.1260 -0.0464
11036W        W27170   8.761   7.903  14.919 -0.3623 -0.3570  0.1995
11037W        W27171   8.998  10.975   3.907  0.2282 -0.0898 -0.0905
11038W        W27172   2.346  16.660   1.859 -0.0733 -0.0522 -0.1839
11039W        W27173   1.016  17.323  12.723  0.2085  0.0432  0.1859
11040W        W27174  10.607   4.231   0.579  0.0717  0.0382 -0.0557
11041W        W27175   0.113   9.738  12.198 -0.2206  0.0177  0.0017
11042W        W27176  13.697  16.842  14.769  0.0803  0.1130 -0.0055
11043W        W27177  10.817   0.956  12.019 -0.0933  0.3525 -0.0135
11044W        W27178   5.557   3.029   3.441  0.0174 -0.2084  0.1209
11045W        W27179  16.065  18.179   0.778 -0.0386  0.3979  0.0237
11046W        W27180  17.445  15.367  12.289 -0.0048 -0.2642 -0.3012
11047W        W27181  17.985   4.779  11.014 -0.1839  0.1096 -0.3841
11048W        W27182   6.159   1.518   0.433  0.1229 -0.0166 -0.0536
11049W        W27183  13.096  18.006   1.242 -0.4081 -0.0068 -0.0059
11050W        W27184  12.154  14.440   4.492  0.2276  0.1220  0.2376
11051W        W27185  15.744  18.316  15.433 -0.0828 -0.1117 -0.0031
11052W        W27186   1.940  17.174  12.193 -0.4657  0.0004  0.0796
11053W        W27187   5.972   8.595  15.363  0.0882  0.0290 -0.1214
11054W        W27188  10.825   3.127   2.219  0.1644 -0.2236 -0.1743
11055W        W27189   4.792   1.127   4.793 -0.0635 -0.0364 -0.1435
11056W        W27190   6.131   9.210  11.560 -0.1647 -0.2368  0.0631
11057W        W27191  11.617  17.226  14.025  0.3155 -0.0341 -0.1202
11058W        W27192   1.678  12.478  14.761  0.1047  0.0187 -0.2206
11059W        W27193   9.685   7.225  15.512 -0.0279  0.4345 -0.0784
11060W        W27194   9.866   6.810   5.323  0.0260  0.0948 -0.1178
11061W        W27195  10.070   3.050   3.640 -0.1163 -0.2889 -0.1168
11062W        W27196   5.077   8.447  15.046 -0.0525  0.2654  0.3306
11063W        W27197  11.205   1.505   0.011  0.1261 -0.0758  0.3969
11064W        W27198  15.472   5.267  13.217 -0.1356  0.0257 -0.3774
11065W        W27199  12.635   0.335   0.241 -0.0178 -0.1484  0.0700
11066W        W27200  10.180  12.950  11.869  0.1537  0.1347  0.2361
11067W        W27201  10.565  11.938   0.493  0.0289  0.1300  0.1945
11068W        W27202   2.707   6.838   3.208  0.1555 -0.0630  0.2114
11069W        W27203   0.011   9.695   5.272  0.1586 -0.2139  0.0456
11070W        W27204  10.533   7.048  15.648 -0.1030 -0.2715 -0.0244
11071W        W27205   4.236  15.889  11.769 -0.0538 -0.0537  0.2618
11072W        W27206   1.123   7.807   0.759 -0.0088 -0.2563 -0.0810
11073W        W27207   1.279   4.401  12.307  0.1536 -0.2160 -0.3671
11074W        W27208   5.952  12.562   5.996  0.2155 -0.3123 -0.0337
11075W        W27209  12.266   8.754   1.435  0.4363  0.0195 -0.1100
11076W        W27210  17.153  15.936  11.558 -0.1893 -0.2542  0.1484
11077W        W27211  10.615  11.861   0.977  0.0701 -0.1201 -0.0631
11078W        W27212   2.474  12.730  10.865 -0.0238  0.2218  0.1336
11079W        W27213   6.340  12.410  15.179  0.0427  0.2434  0.0362
11080W        W27214  13.071  16.539  12.395  0.1512 -0.0640  0.0404
11081W        W27215   2.538  14.917  14.139  0.1322  0.0468 -0.2298
11082W        W27216  17.908   9.321   3.198 -0.0708 -0.1538  0.1645
11083W        W27217   5.428   3.173   2.985 -0.2898 -0.1633  0.2004
11084W        W27218  14.530   8.654  12.687 -0.1705  0.1404  0.1514
11085W        W27219  12.746  17.132  13.038  0.0053 -0.0297 -0.0714
11086W        W27220  10.962  14.132  15.749  0.1806 -0.1325  0.2712
11087W        W27221   6.745   5.009   0.824  0.2491  0.0400 -0.2371
11088W        W27222   3.238   8.857   4.012  0.0736  0.1293  0.0179
11089W        W27223   1.442   3.593   2.669  0.2411  0.1943 -0.2333
11090W        W27224   4.743   9.141  11.357 -0.0672  0.4615  0.1231
11091W        W27225   2.800  16.935   5.335 -0.2022  0.0556 -0.1119
11092W        W27226  10.280   9.580   3.995 -0.1875 -0.0991  0.0658
11093W        W27227   3.894   0.007  12.606  0.1823 -0.0379  0.1303
11094W        W27228  13.415   6.597  14.228 -0.0998  0.2321 -0.1511
11095W        W27229   4.927   0.298   4.189 -0.4048 -0.0961 -0.1732
11096W        W27230  14.539  10.266   4.789 -0.0614 -0.0369 -0.0372
11097W        W27231   4.897   8.298   0.960 -0.0361  0.1198 -0.3759
11098W        W27232   7.467  10.121  12.999  0.1244 -0.4256  0.0587
11099W        W27233   0.683   8.743   0.102 -0.0430  0.0262  0.0440
11100W        W27234  16.774   1.736   0.802  0.1819 -0.0340 -0.0325
11101W        W27235   5.631  16.784   4.372 -0.1904  0.0340 -0.0479
11102W        W27236   0.893  10.664  12.513 -0.1524 -0.0140 -0.0512
11103W        W27237  15.667   9.133   1.690 -0.1017 -0.2033 -0.5222
11104W        W27238  18.195  14.496  15.489  0.1504 -0.1666  0.2591
11105W        W27239  17.478   7.825   1.189  0.2358 -0.1175  0.1462
11106W        W27240   8.829   4.442  14.937 -0.0228 -0.1067 -0.2431
11107W        W27241   5.623   1.410   2.229  0.3732  0.3045  0.0793
11108W        W27242  16.964   1.025   1.962  0.2023 -0.2306  0.1397
11109W        W27243   1.941   9.456  14.529 -0.2423 -0.1395  0.1558
11110W        W27244  12.123  13.288  12.751  0.0489 -0.2809 -0.0088
11111W        W27245  14.690  14.884   2.540 -0.0791  0.1023  0.2456
11112W        W27246   0.888   4.069  15.641 -0.2466  0.1219  0.1165
11113W        W27247  14.300   3.454  11.886 -0.0947  0.3090 -0.0193
11114W        W27248  14.499   6.013  11.622 -0.2525 -0.1568  0.2104
11115W        W27249   4.618   8.789  10.932 -0.0989  0.3485  0.2028
11116W        W27250   9.729   0.639   1.806  0.1319  0.0225  0.1265
11117W        W27251   7.000  17.029  15.102  0.1183  0.1934  0.0584
11118W        W27252  11.861   1.346  14.334  0.1811  0.0538 -0.1609
11119W        W27253   6.288  15.793   4.697  0.0772 -0.0798  0.2234
11120W        W27254   2.447  13.000   0.723 -0.2490  0.1687  0.0849
11121W        W27255  17.538  15.751  13.246  0.1612 -0.3496 -0.2009
11122W        W27256  11.052   1.706   2.065  0.3231 -0.1721 -0.0077
11123W        W27257   9.481   2.232  10.794 -0.1992 -0.0544 -0.0301
11124W        W27258  14.749   0.759   0.473 -0.0554  0.0900 -0.0422
11125W        W27259   3.858  12.750  12.600  0.0002 -0.0766 -0.2212
11126W        W27260  16.921   7.996   3.744 -0.0418 -0.1865  0.0203
11127W        W27261   6.659   8.069  12.601  0.2308  0.2040  0.2889
11128W        W27262   5.750  17.187  14.374 -0.0375 -0.0733  0.0255
11129W        W27263   1.555  17.951   4.786  0.2842 -0.0390  0.1694
11130W        W27264  17.053  17.438  12.092  0.0818 -0.0251  0.0490
11131W        W27265  10.150   6.549  14.080 -0.1995  0.1121 -0.0808
11132W        W27266   4.615  13.917   9.831 -0.0263 -0.1559  0.1433
11133W        W27267  16.993  13.981  12.751 -0.2268  0.3978 -0.1250
11134W        W27268   0.475  13.268  10.987  0.2264 -0.1611 -0.0437
11135W        W27269  17.703  14.962  13.228 -0.0375  0.1718 -0.0855
11136W        W27270   5.889   5.061   4.382 -0.0429  0.1702  0.0809
11137W        W27271  17.112   4.767   1.647  0.0471 -0.0755  0.2753
11138W        W27272   7.264  18.144   2.754 -0.2403 -0.0612  0.1231
11139W        W27273  16.641   4.740   3.161 -0.0133  0.2065  0.0542
11140W        W27274  10.931   1.222   5.250  0.0782 -0.0134 -0.1799
11141W        W27275   7.316   9.001  15.114 -0.0121  0.1918 -0.0220
11142W        W27276   3.303   7.137   3.747 -0.0127 -0.1488 -0.0574
11143W        W27277   4.214  16.305   1.722 -0.2278 -0.1239  0.0304
11144W        W27278   1.858  16.992   3.789  0.0095 -0.2689  0.2126
11145W        W27279   9.453  16.641  13.625 -0.0810 -0.3511 -0.1489
11146W        W27280   9.589   5.192  11.468  0.1853 -0.3134  0.1364
11147W        W27281   2.282   7.063   3.180 -0.0506 -0.1514 -0.0635
11148W        W27282  11.100  11.363  12.739 -0.4763  0.2264 -0.1608
11149W        W27283   1.463   1.063   6.062 -0.0520 -0.0109 -0.1194
11150W        W27284   0.947  16.440  12.044 -0.2199  0.1601 -0.0419
11151W        W27285  11.294  15.492   4.676 -0.0498 -0.1576  0.3400
11152W        W27286  17.729  15.154   5.516 -0.1532 -0.1417  0.0507
11153W        W27287  10.033   4.661   4.077 -0.0707 -0.2464 -0.1429
11154W        W27288   1.337  15.684  14.767  0.0986 -0.2010  0.2200
11155W        W27289  17.144   8.007  12.495  0.0801  0.1216  0.4723
11156W        W27290   6.305  13.220  14.378 -0.1638 -0.3307 -0.0609
11157W        W27291   7.578   6.956  12.678  0.0142  0.0619 -0.1967
11158W        W27292   4.495  15.520  15.124 -0.3615 -0.0198 -0.2940
11159W        W27293   7.062   9.242   3.031  0.0657 -0.0253 -0.2519
11160W        W27294   6.325   9.648  11.695  0.1119 -0.1939 -0.1675
11161W        W27295  13.363  11.227   5.394 -0.2008 -0.0695 -0.0972
11162W        W27296   2.908  15.825   2.870 -0.2417  0.1184  0.2908
11163W        W27297  16.260  12.608   4.330 -0.1747 -0.1962 -0.1279
11164W        W27298   1.711  15.449   0.335  0.1159  0.1474 -0.2007
11165W        W27299   2.538  12.429  13.819 -0.3170 -0.2378  0.0161
11166W        W27300   0.275   9.280  10.897 -0.0040 -0.1001  0.1714
11167W        W27301   0.522  10.845  11.590 -0.1177  0.0864 -0.1589
11168W        W27302   1.948   1.865  15.827  0.0832  0.0827  0.1131
11169W        W27303  11.460   1.073  14.594  0.1843 -0.0149  0.0496
11170W        W27304   3.985  17.947  15.525 -0.0703  0.0683  0.0929
11171W        W27305   8.151  18.136  15.724 -0.2362 -0.0635 -0.0034
11172W        W27306   8.551  10.552  13.071  0.1851 -0.1757  0.2757
11173W        W27307   0.559   7.417  14.738  0.2827 -0.2864 -0.0379
11174W        W27308   7.328  18.367  15.910 -0.0880  0.1388  0.0108
11175W        W27309   7.200   6.899  12.372 -0.4189  0.3975  0.1605
11176W        W27310  14.533   8.419   1.197  0.0126 -0.0624  0.0139
11177W        W27311  13.323  10.769  12.309  0.4173  0.0415 -0.0628
11178W        W27312   0.323   1.840   3.114 -0.3036 -0.1267  0.3055
11179W        W27313  16.798  14.655   3.794  0.1455  0.2017 -0.1181
11180W        W27314   1.866  14.946  13.705  0.1049  0.2342 -0.0388
11181W        W27315   7.758  10.543   4.224  0.0816  0.0264  0.2842
11182W        W27316   8.332  14.529   0.918  0.2186  0.3019  0.2471
11183W        W27317  15.938  13.478  10.472 -0.1065 -0.0636  0.4734
11184W        W27318  14.390   3.594  15.342  0.0108 -0.1994 -0.2299
11185W        W27319   0.149   0.195  13.281 -0.1173 -0.1235  0.2960
11186W        W27320  14.097  12.491   0.953 -0.2177 -0.1186  0.3364
11187W        W27321   6.857  12.330   2.283  0.1403  0.1271  0.1718
11188W        W27322   3.340  15.884   3.884  0.0443 -0.1617 -0.0050
11189W        W27323  12.771  16.354   4.867 -0.0800 -0.2196 -0.0322
11190W        W27324  11.401  17.134  12.550  0.0485  0.0388  0.2282
11191W        W27325   0.768  12.628   1.203  0.2636 -0.0492 -0.2227
11192W        W27326   7.239   3.741   5.413 -0.1037  0.1745  0.1076
11193W        W27327   2.125  16.118   4.124  0.0400 -0.0249  0.3107
11194W        W27328  11.674  15.344   1.882 -0.0695  0.0424 -0.0968
11195W        W27329  14.141   5.502   0.601  0.2116 -0.2095  0.4929
11196W        W27330  15.005  17.867   5.386  0.2335  0.0348 -0.1820
11197W        W27331   8.651   4.939   3.395  0.1115  0.1162 -0.2390
11198W        W27332   2.247   7.196  10.666 -0.1178 -0.2387  0.1179
11199W        W27333  10.808   0.513   1.352  0.2164  0.1137 -0.2595
11200W        W27334  13.000   8.945   2.684  0.0373  0.0340  0.1947
11201W        W27335  15.165   7.828   5.159 -0.2065  0.6186  0.1838
11202W        W27336   8.536  12.934   3.611  0.1478 -0.0497 -0.1166
11203W        W27337   1.740  11.943  11.617  0.0806 -0.4417  0.0673
11204W        W27338  13.005   3.982  14.301 -0.2520  0.2075  0.0161
11205W        W27339   2.459  12.218   1.930  0.3612  0.1518  0.0378
11206W        W27340   7.745  17.773  14.290 -0.2056  0.0125  0.1031
11207W        W27341   8.146  14.677   5.808  0.0261 -0.2065  0.0915
11208W        W27342  17.162   4.770   3.195  0.2874 -0.1279 -0.2371
11209W        W27343   1.066  16.498   2.388  0.1452  0.0458  0.2960
11210W        W27344   8.504  15.435   2.516  0.0547  0.5843 -0.1024
11211W        W27345  11.168  10.420  14.475 -0.6216 -0.1567  0.0725
11212W        W27346   9.772   7.683  14.685  0.1693 -0.0725 -0.0499
11213W        W27347   7.246   4.507  13.563 -0.0818 -0.1772 -0.2064
11214W        W27348  13.113   4.384   5.099 -0.4041 -0.0180  0.1742
11215W        W27349   3.632   9.795  14.981  0.1369  0.0921  0.2763
11216W        W27350  14.910  15.560  13.229 -0.0411  0.3413  0.0792
11217W        W27351  16.528   9.787  14.369  0.0900  0.0030 -0.3460
11218W        W27352   7.694   6.082   3.864  0.0242  0.1047  0.1905
11219W        W27353   7.353   8.163   1.133 -0.0436  0.1044 -0.2809
11220W        W27354   9.586  12.520  11.264 -0.0111 -0.0297 -0.2801
11221W        W27355   6.054  10.527   3.563 -0.2635 -0.0423  0.1108
11222W        W27356   9.577   9.200  13.587  0.0263 -0.1435 -0.0215
11223W        W27357  16.514  18.221  11.963 -0.1579  0.0480 -0.1612
11224W        W27358   6.224   5.106   3.239 -0.2469 -0.3949 -0.1022
11225W        W27359   0.119   0.867   2.831 -0.0266  0.0329 -0.1682
11226W        W27360   0.792   9.195  14.616 -0.0075  0.0775  0.0365
11227W        W27361   7.750   9.515  12.553 -0.0325  0.1289 -0.0243
11228W        W27362   5.884   7.993  13.661  0.0180  0.3211  0.3173
11229W        W27363  14.390   2.386  14.486 -0.2368  0.0992  0.1429
11230W        W27364  13.096   7.990   2.409  0.0657  0.0790 -0.0857
11231W        W27365   3.043  17.210   1.850 -0.0128  0.0219 -0.1747
11232W        W27366  15.364   4.673   4.733  0.2165  0.2255 -0.0345
11233W        W27367   1.778   5.929  10.359 -0.1224  0.1166 -0.0805
11234W        W27368   0.999  17.279   3.615  0.2390 -0.1142  0.1003
11235W        W27369  12.591  15.386  14.064 -0.0026  0.1494 -0.0580
11236W        W27370  16.882  15.029   1.515  0.0212 -0.0796  0.0482
11237W        W27371  13.488   9.817  14.673  0.3332  0.0677 -0.2339
11238W        W27372   7.358  11.317  13.513 -0.2141  0.4890  0.1140
11239W        W27373  10.656  15.823  13.354  0.3133 -0.2176  0.2844
11240W        W27374   8.938  15.319   0.264  0.3058 -0.2857 -0.2885
11241W        W27375  11.910  16.602   2.645 -0.1502  0.0064  0.1552
11242W        W27376  14.756   2.637  13.446  0.3199 -0.1157  0.1899
11243W        W27377   3.070   8.038   1.597 -0.1151 -0.3335 -0.1345
11244W        W27378  15.632  15.030   1.703 -0.0945  0.2275 -0.1872
11245W        W27379  14.115  10.110  12.994  0.0445  0.0310 -0.0761
11246W        W27380   5.665  11.170   0.608 -0.0078 -0.0320 -0.2911
11247W        W27381   2.944   9.799  11.680 -0.0068 -0.0478 -0.2243
11248W        W27382   8.917  12.921  12.877 -0.0803 -0.2453  0.2644
11249W        W27383   2.000   9.493  10.701  0.1687 -0.2631  0.1796
11250W        W27384   1.346   2.816  12.329  0.0163 -0.0515  0.0134
11251W        W27385   7.571  12.193   1.598 -0.1595 -0.1641 -0.1306
11252W        W27386  17.840  16.156  15.756 -0.2755  0.1678 -0.3178
11253W        W27387   0.738   0.217  11.514 -0.1082 -0.1232  0.3575
11254W        W27388  14.123  10.874  11.012 -0.2022  0.1076  0.0578
11255W        W27389   7.335   3.986   9.928 -0.3556  0.1092 -0.0980
11256W        W27390   1.994   0.026  12.566 -0.0747  0.0214 -0.2516
11257W        W27391   7.950   2.742   0.138  0.2765 -0.2597  0.3629
11258W        W27392  16.081   6.147   4.661 -0.1238 -0.4058 -0.2308
11259W        W27393   4.933  17.571  10.679  0.0628  0.0003 -0.0922
11260W        W27394  11.965   4.504   1.089  0.1776 -0.1009  0.1649
11261W        W27395   8.179  18.241   5.655  0.2440  0.1428 -0.0274
11262W        W27396   2.725   1.733  12.989 -0.0510 -0.3555  0.2800
11263W        W27397   4.488  13.460  11.983 -0.0766  0.0241  0.1376
11264W        W27398   8.483   6.810  11.525  0.4633  0.2614  0.2539
11265W        W27399   6.940  15.527  15.749  0.2107 -0.0391 -0.1938
11266W        W27400  13.857   5.325  15.093  0.2034 -0.0398  0.0765
11267W        W27401   3.394   2.802  12.583 -0.0726 -0.1000 -0.3150
11268W        W27402  16.691  12.662  13.974 -0.0958 -0.0170  0.0315
11269W        W27403  14.857  12.074   2.216 -0.1879  0.1139 -0.0079
11270W        W27404   1.699   6.454   5.192  0.0987  0.0077  0.2591
11271W        W27405  10.559  15.458   4.789 -0.0303  0.0278 -0.0121
11272W        W27406   5.467   3.717   1.521  0.0435  0.2534  0.1107
11273W        W27407   1.640  14.142   1.134  0.1169  0.0551  0.1438
11274W        W27408  17.443   2.196  14.488 -0.3224 -0.0775 -0.2585
11275W        W27409  13.114  10.380  13.259  0.0168  0.0482  0.1391
11276W        W27410   8.624  12.408  12.060 -0.0745  0.0635 -0.1204
11277W        W27411  12.566   3.052   1.434  0.0675 -0.1548 -0.2692
11278W        W27412  12.393   9.585  12.789  0.1241 -0.1049 -0.0058
11279W        W27413  12.908  15.292   1.804  0.1632  0.1670  0.1811
11280W        W27414   5.777   9.901   4.691  0.2442 -0.1447 -0.0836
11281W        W27415  16.802  13.089   1.116  0.0114  0.0162 -0.2302
11282W        W27416   7.098   0.324  13.856 -0.0767 -0.1147  0.1304
11283W        W27417  16.357   5.422   2.518  0.1114 -0.1877  0.2418
11284W        W27418   3.935  10.457  15.515 -0.2004  0.1815  0.0011
11285W        W27419   6.549   2.121   1.026 -0.0619 -0.1218 -0.0778
11286W        W27420   7.747  10.244   1.332 -0.0758  0.3477 -0.1596
11287W        W27421  17.933   3.157   4.591  0.2743  0.0188  0.1046
11288W        W27422   2.674  13.184  11.281 -0.1438 -0.0696  0.2236
11289W        W27423  10.417   4.088  14.831  0.3486 -0.0706  0.1748
11290W        W27424   1.621   6.736  13.758 -0.0622 -0.1657  0.3036
11291W        W27425   1.222   1.954   3.340 -0.0066  0.1913  0.2692
11292W        W27426  10.679   7.303   4.062 -0.0580  0.1462 -0.3535
11293W        W27427   4.328   3.372  14.679  0.1276 -0.0462  0.3262
11294W        W27428   8.649   3.674  10.059 -0.0172  0.1818 -0.2337
11295W        W27429  11.670  13.980  14.115 -0.0225  0.0170 -0.3834
11296W        W27430   5.539   0.977   2.729 -0.0363 -0.0115 -0.0367
11297W        W27431  14.871  15.947  15.664  0.1002  0.1145 -0.0258
11298W        W27432   2.277  13.392   2.460 -0.1461 -0.0811 -0.1110
11299W        W27433  16.279   2.149  15.516 -0.0370  0.1846  0.0801
11300W        W27434  13.488  16.058   0.737  0.1313 -0.1098  0.0473
11301W        W27435   4.461   8.231   5.236  0.0628  0.0849 -0.1717
11302W        W27436  16.376  15.938   0.662 -0.1694 -0.0748 -0.2476
11303W        W27437   9.135  12.592  13.723  0.3395  0.0523  0.2022
11304W        W27438   4.596  13.217  12.752  0.1590 -0.0410 -0.1379
11305W        W27439  18.252  13.570   4.064 -0.1573  0.3969  0.0763
11306W        W27440  16.291  11.265   1.027  0.0276  0.0439 -0.2252
11307W        W27441  10.599  12.700   1.100 -0.1434 -0.0678 -0.0189
11308W        W27442   5.597  15.121   2.094 -0.0431  0.2411  0.1353
11309W        W27443   8.894   4.383   4.350  0.0581 -0.3618 -0.1183
11310W        W27444  17.475  13.288  10.367  0.1850 -0.1888 -0.2623
11311W        W27445   7.162  11.732  14.768  0.0005 -0.2009 -0.0367
11312W        W27446  18.107   8.658  14.481 -0.4713  0.0885  0.1750
11313W        W27447  13.186  10.988  13.240  0.0196 -0.1772 -0.1637
11314W        W27448   3.345  13.911  12.820 -0.1035  0.1767 -0.0552
11315W        W27449  12.485  14.794   3.353 -0.0431 -0.3960  0.0519
11316W        W27450  18.289  16.341   2.909  0.1471  0.0092  0.1739
11317W        W27451   3.831   1.844   2.769  0.4696 -0.0658  0.0735
11318W        W27452   2.729  14.724   0.026 -0.0861 -0.2243 -0.0274
11319W        W27453   1.754  16.008  11.830  0.1351  0.5095  0.1505
11320W        W27454  18.098   7.700  12.838 -0.1315  0.0704 -0.2666
11321W        W27455  15.562   6.485   4.128  0.2754 -0.1379 -0.2919
11322W        W27456  11.714   3.007   3.068 -0.1452 -0.1908  0.0036
11323W        W27457  17.402  13.818  13.180 -0.0495 -0.1465 -0.2143
11324W        W27458  14.302  16.259  13.935 -0.0004 -0.4365  0.3089
11325W        W27459  11.234  17.099   4.456  0.1544  0.1735 -0.0387
11326W        W27460   7.212   7.162   0.285 -0.0714  0.3074  0.0221
11327W        W27461   1.165   5.895   3.439 -0.0394 -0.4516 -0.2538
11328W        W27462  16.306   8.345  11.948  0.1550  0.0036 -0.1454
11329W        W27463  10.329  17.539  13.004  0.1774 -0.4269 -0.1658
11330W        W27464  10.379  13.311  14.370  0.2082 -0.2685 -0.0347
11331W        W27465   2.026   5.007   1.844 -0.1906  0.1231 -0.0273
11332W        W27466   6.799   0.796  10.305 -0.0070 -0.2987 -0.1461
11333W        W27467  12.579   6.012   5.213  0.0319 -0.0522  0.1673
11334W        W27468   9.969   9.838  11.906  0.2114 -0.1129  0.0800
11335W        W27469  10.162  18.259   3.692 -0.2096  0.1091  0.0896
11336W        W27470   5.955  15.524  11.565  0.1171  0.0702 -0.2146
11337W        W27471   0.440  13.995  13.159  0.1466 -0.1912 -0.1043
11338W        W27472  14.233  12.629  14.160  0.0935  0.2756 -0.1802
11339W        W27473  13.297  15.004   0.328 -0.1514 -0.1020  0.1084
11340W        W27474   1.505  11.241   2.186 -0.3250  0.1303  0.0498
11341W        W27475   7.936  15.910  12.789 -0.2493  0.0898 -0.1326
11342W        W27476   6.174   6.706  13.860  0.1543  0.0237 -0.3590
11343W        W27477  16.967   9.343  11.287  0.3870  0.0922 -0.3793
11344W        W27478  13.599  13.711  13.197 -0.2591 -0.2459  0.1622
11345W        W27479   6.801   7.801   1.683 -0.1405 -0.1128  0.1002
11346W        W27480   4.423   9.495   5.779 -0.1424  0.1244  0.0955
11347W        W27481   9.528  13.440  15.641  0.0662 -0.0571 -0.1470
11348W        W27482  14.027  10.761  14.390 -0.0107  0.3158  0.3900
11349W        W27483  10.175  11.644   0.706 -0.1693  0.1714 -0.2283
11350W        W27484   0.021   7.442   1.115 -0.0314  0.2132  0.1461
11351W        W27485  13.745   9.593  11.554 -0.0338 -0.0233 -0.0942
11352W        W27486  11.547   5.459   2.249 -0.1554  0.0016  0.1300
11353W        W27487   6.583   6.171   0.007 -0.1769 -0.1270  0.0820
11354W        W27488   7.816  16.735  11.556  0.0043  0.1292  0.3690
11355W        W27489   2.539  16.465   3.803 -0.1936  0.0314 -0.0583
11356W        W27490  16.015  15.683  13.659 -0.0125  0.1783 -0.2284
11357W        W27491   8.311   3.694  11.167  0.4547  0.6758 -0.0601
11358W        W27492  12.600  13.574  11.410  0.2476 -0.0265 -0.1842
11359W        W27493   8.180  13.771  11.778 -0.0467  0.0696  0.1804
11360W        W27494  11.767   0.809   5.224 -0.1701  0.1602  0.3298
11361W        W27495   8.481  10.198   0.574 -0.2520  0.4492  0.1020
11362W        W27496   0.391  16.755   0.096  0.0550 -0.1244 -0.1263
11363W        W27497  15.468   5.447   2.506 -0.2658 -0.0411 -0.0887
11364W        W27498   9.730   9.470   1.785 -0.2256 -0.0038  0.0594
11365W        W27499   6.493   7.069   1.149  0.1111 -0.1238  0.2663
11366W        W27500  15.862   7.157   3.750 -0.2442 -0.1005 -0.0821
11367W        W27501   7.614   4.941  11.272 -0.0384  0.0426  0.2949
11368W        W27502  12.411   4.843  10.774 -0.0547 -0.2761 -0.0458
11369W        W27503  11.700  11.011   1.572  0.2448  0.1328 -0.0582
11370W        W27504   9.594  10.291   6.268  0.0782 -0.0787  0.1350
11371W        W27505  12.533   6.522   1.071 -0.1118  0.1174 -0.1102
11372W        W27506  13.719   9.759  12.300  0.0271 -0.1811 -0.2673
11373W        W27507   1.218   3.646   0.944 -0.0434 -0.4425  0.0323
11374W        W27508  12.327  16.801  12.843 -0.1844 -0.2559 -0.0725
11375W        W27509  11.955  16.684  15.445 -0.0181 -0.0169 -0.3168
11376W        W27510   5.141   4.527   1.351 -0.1871  0.0171 -0.1551
11377W        W27511   1.368   1.796   0.584 -0.2536 -0.0854  0.3306
11378W        W27512   9.861  14.427   4.342 -0.1501 -0.0822 -0.0419
11379W        W27513  10.487   5.552  14.301  0.0950  0.2396  0.0145
11380W        W27514   7.931   5.301  13.959  0.3643  0.1330 -0.1474
11381W        W27515  11.592   6.615  12.792  0.4533  0.2312  0.1814
11382W        W27516   5.418  16.390   0.120  0.2193  0.1129 -0.2223
11383W        W27517   7.974   6.291   0.839  0.1434 -0.0021  0.0494
11384W        W27518   3.849   6.002  15.797 -0.0091  0.0190 -0.2899
11385W        W27519  16.228  14.127   1.743 -0.1601 -0.2364 -0.0542
11386W        W27520   1.268   5.103   2.713  0.2507 -0.0536 -0.2889
11387W        W27521  10.513  15.136  13.144 -0.1104  0.2262 -0.1723
11388W        W27522   0.474   0.565   5.264 -0.2088 -0.0696 -0.1556
11389W        W27523  12.691  16.390   3.335 -0.0924 -0.1315  0.2439
11390W        W27524   3.731  13.171  14.924  0.0192 -0.0294  0.0740
11391W        W27525  11.386   6.696   2.858 -0.0152  0.0436 -0.4273
11392W        W27526   6.180  11.995  15.858  0.0673  0.2122 -0.1141
11393W        W27527   2.963   8.406  14.156 -0.2076  0.3148  0.0115
11394W        W27528  16.769  18.096  12.370  0.2077  0.0747 -0.0651
11395W        W27529   3.671   9.120   4.143 -0.0919 -0.0157  0.2241
11396W        W27530   3.109   7.985   2.076 -0.0743 -0.2129 -0.1998
11397W        W27531   0.829  17.968  15.434 -0.2384 -0.0252  0.0591
11398W        W27532   3.686   0.718   2.755  0.0449 -0.2380  0.1114
11399W        W27533  10.159  14.911   4.256 -0.1075  0.1741  0.0452
11400W        W27534   1.897  17.501   0.848 -0.3456  0.0600  0.1324
11401W        W27535   1.255   7.815  15.343 -0.0040  0.3149  0.0007
11402W        W27536  12.495   5.317  13.478 -0.1557  0.3757  0.0501
11403W        W27537  10.190  11.705   4.169  0.2399  0.0893  0.2811
11404W        W27538  13.890   4.344   3.985 -0.0438 -0.2339 -0.0720
11405W        W27539  12.658   5.070   4.464  0.0947  0.1844  0.1956
11406W        W27540  12.266  17.073   1.231 -0.0286  0.2864 -0.3835
11407W        W27541   7.757  13.486  12.626  0.1000  0.1189 -0.3410
11408W        W27542   3.573   7.492  13.560 -0.0447  0.2466 -0.4041
11409W        W27543   3.771  14.051   5.044 -0.1754  0.1617 -0.1217
11410W        W27544  16.009   2.679  13.087  0.3851 -0.1633 -0.1781
11411W        W27545   2.269   3.854  13.589 -0.1650 -0.2098  0.1544
11412W        W27546  16.871  13.173  11.896  0.0075  0.0996  0.2036
11413W        W27547  10.758  11.964   5.626 -0.1087 -0.1371  0.3260
11414W        W27548   4.219   1.691  12.265  0.1898 -0.2832 -0.2330
11415W        W27549   3.600   2.854   0.975 -0.1315  0.0931 -0.1378
11416W        W27550  12.316   6.595  13.255  0.0333 -0.2028 -0.1007
11417W        W27551  17.639  11.698   4.662 -0.1967 -0.0652  0.0291
11418W        W27552  12.674   6.007   1.338  0.1191  0.0996 -0.0241
11419W        W27553  15.323  16.138  11.553 -0.1311 -0.0470  0.2185
11420W        W27554  18.013   0.173  12.515  0.1051 -0.1467 -0.0291
11421W        W27555   7.595  17.670  13.775 -0.1958 -0.0257 -0.0117
11422W        W27556  18.334   3.572  13.171  0.3003  0.6163 -0.0811
11423W        W27557   6.112   7.375  15.584  0.0653 -0.0035  0.1115
11424W        W27558   0.053  16.642   5.111 -0.0226  0.2016 -0.0168
11425W        W27559   1.838   1.372   0.699 -0.1455  0.2131  0.4845
11426W        W27560  11.985  13.959   1.172 -0.0806  0.0322  0.3228
11427W        W27561   8.716  12.764   0.246 -0.1124  0.0829 -0.0323
11428W        W27562   1.205   6.573  13.112 -0.2254 -0.3751  0.1303
11429W        W27563   3.314   0.556   1.838  0.1606 -0.1021  0.2938
11430W        W27564   1.324   6.391  14.129  0.2058  0.1574 -0.1003
11431W        W27565   4.592   4.562   4.481 -0.2863  0.1272 -0.2441
11432W        W27566  13.842   4.261   0.770 -0.1828 -0.2828  0.0219
11433W        W27567   6.774   4.349   4.937 -0.0556 -0.0512  0.3342
11434W        W27568   4.454  17.669  14.157 -0.1605 -0.2253  0.1011
11435W        W27569  16.235   4.833  13.632  0.2572 -0.2209  0.1313
11436W        W27570   5.402   9.419   3.489  0.0848 -0.0331 -0.2399
11437W        W27571   8.489   5.873  11.738  0.2468  0.0334 -0.3369
11438W        W27572   4.079   9.651   4.030  0.1350  0.0855  0.0663
11439W        W27573   1.419  12.422  14.018 -0.0351 -0.0428 -0.3099
11440W        W27574  13.338   0.743  14.829  0.0228 -0.0290  0.3722
11441W        W27575   1.733  14.251   2.822 -0.2073 -0.0287 -0.0672
11442W        W27576   4.683  10.899   2.416 -0.2231 -0.0621  0.5315
11443W        W27577   1.165  10.472   1.821  0.1885  0.1118 -0.0787
11444W        W27578   1.447  16.689   4.292  0.0204 -0.0401  0.0775
11445W        W27579  13.202  11.272  14.731 -0.3776 -0.1746 -0.2042
11446W        W27580  11.978  14.375  15.901 -0.3171 -0.1808 -0.2194
11447W        W27581   1.894   2.944  12.380  0.4099 -0.1486 -0.1034
11448W        W27582  10.261  13.142   3.309 -0.2759 -0.1354  0.2448
11449W        W27583   3.595  18.088   1.297 -0.1678 -0.1338 -0.0264
11450W        W27584  14.073   2.722  15.092 -0.0589 -0.1081 -0.2309
11451W        W27585  10.396  14.432   4.211 -0.0533  0.1771 -0.0557
11452W        W27586  17.358   5.875  12.490  0.2132  0.3161 -0.0718
11453W        W27587   8.733  12.475   2.107 -0.0291  0.3399 -0.4351
11454W        W27588  12.806  14.431   4.316  0.0568  0.1609  0.1000
11455W        W27589  10.462  16.165   1.312 -0.1706 -0.2067  0.0542
11456W        W27590  18.007  13.784   1.993 -0.0872  0.0339 -0.0951
11457W        W27591  12.545   9.580   0.133 -0.1363 -0.0315  0.0960
11458W        W27592   3.381   1.922   3.458 -0.0963  0.0362  0.1016
11459W        W27593   0.254  17.897  12.685  0.1676 -0.0102  0.0345
11460W        W27594  13.653   7.512  14.057  0.0301  0.3761  0.2796
11461W        W27595  18.469  13.863   3.040  0.0557  0.1407 -0.3356
11462W        W27596   3.903   2.857   4.585  0.2400  0.2707  0.1949
11463W        W27597   0.896   2.272   1.188  0.1937 -0.0360 -0.3044
11464W        W27598   2.244   7.878  13.097  0.2070  0.0924  0.2963
11465W        W27599  10.762   5.005  13.708  0.0385 -0.3036 -0.3113
11466W        W27600   1.126   8.926  10.789 -0.2247 -0.1461 -0.0776
11467W        W27601   0.470  12.332  15.157 -0.0072  0.2150 -0.1719
11468W        W27602   1.909   2.749  14.222 -0.3278 -0.2110  0.0929
11469W        W27603   5.608   9.791  11.138 -0.0264  0.1311  0.1170
11470W        W27604  15.034  15.178  14.240 -0.0638  0.1196  0.0854
11471W        W27605  10.886  15.492  14.654 -0.2823 -0.2722 -0.0035
11472W        W27606   2.739  12.607   2.000  0.3605 -0.3574 -0.3209
11473W        W27607   5.712   8.888  11.469 -0.3087 -0.2070  0.0430
11474W        W27608   1.484   5.108  14.113  0.0483  0.1587 -0.2086
11475W        W27609   2.388   9.996   5.383  0.0584  0.2898 -0.1013
11476W        W27610  13.473   3.117  12.153 -0.1001  0.0319  0.2888
11477W        W27611   8.500   0.038   2.754 -0.0461  0.0180  0.0892
11478W        W27612   3.919  18.464  11.310  0.2546  0.2533 -0.0220
11479W        W27613  17.533  17.395   0.829 -0.0195 -0.0385 -0.0508
11480W        W27614   2.958  12.941  15.247 -0.0598  0.1830 -0.1472
11481W        W27615  11.434   0.543  14.757 -0.1639 -0.0352  0.1734
11482W        W27616  14.557  12.510   3.561 -0.0351  0.0472  0.0718
11483W        W27617   1.657   2.114   1.492  0.1698  0.0209 -0.0645
11484W        W27618   4.044   0.884   5.409 -0.0393 -0.0501 -0.1770
11485W        W27619  16.502  16.877   0.799  0.0614 -0.1274 -0.0393
11486W        W27620   2.979  12.480  10.622 -0.3265  0.0852 -0.3181
11487W        W27621   3.865   9.381  15.643 -0.1130 -0.1906  0.0775
11488W        W27622   7.189   2.049  14.684 -0.1384  0.1381  0.2317
11489W        W27623   3.340   3.276  10.465 -0.0495 -0.0161  0.0340
11490W        W27624   6.782  15.992  14.735  0.1549 -0.0216 -0.0762
11491W        W27625  15.944  15.543  14.261  0.0333  0.2293 -0.0653
11492W        W27626   6.538   4.788  11.122  0.1861  0.1980 -0.0442
11493W        W27627   0.774  13.285   2.186 -0.2580  0.1773 -0.4035
11494W        W27628   4.159  13.721   3.360 -0.1827  0.0064 -0.1953
11495W        W27629   2.984   1.275  14.019 -0.0728  0.3192  0.1459
11496W        W27630   8.267  18.406  15.290  0.0658 -0.3442  0.0408
11497W        W27631  13.676   0.864  15.551  0.0725  0.0087  0.1145
11498W        W27632   8.536   6.114   0.707  0.2342  0.0677 -0.0107
11499W        W27633  12.040  15.354  14.718  0.1993  0.2423 -0.6025
11500W        W27634   8.270  11.631   5.245 -0.0371  0.2458  0.0264
11501W        W27635  13.548   0.172   0.963  0.0096  0.2048  0.1602
11502W        W27636  11.161  10.273   5.147  0.2569  0.0521  0.2913
11503W        W27637  11.431   7.360   3.085  0.1502  0.0966 -0.2371
11504W        W27638   8.039  10.795   2.851 -0.0642 -0.3093 -0.2212
11505W        W27639   6.325  17.229  13.675  0.2381 -0.1622 -0.2025
11506W        W27640   1.053   4.494  15.337  0.2530 -0.0760 -0.2675
11507W        W27641  15.989  16.620  15.275 -0.1560 -0.1994  0.2144
11508W        W27642   4.081  15.805   4.721 -0.0416 -0.1619 -0.2363
11509W        W27643  10.259  17.698   3.098 -0.1703 -0.1608 -0.0656
11510W        W27644  17.203   0.580   0.624 -0.0741 -0.1087  0.3259
11511W        W27645  18.409   7.159   3.895  0.1646  0.1335 -0.1696
11512W        W27646  12.326  15.610   4.595 -0.0690  0.0861 -0.2775
11513W        W27647   5.335  14.582  12.449  0.0944  0.2426  0.2886
11514W        W27648   8.709   4.461  13.318 -0.1596  0.1349 -0.0353
11515W        W27649  10.919   0.351   3.876 -0.1057 -0.2300 -0.1136
11516W        W27650  12.919   1.284   0.039 -0.0794  0.0177 -0.1231
11517W        W27651  13.544   1.961   2.308  0.0655 -0.1857 -0.1275
11518W        W27652   2.626  14.506  10.032  0.0709  0.5542 -0.0865
11519W        W27653  14.269  12.992   2.341  0.0070 -0.2569  0.0855
11520W        W27654   5.841  12.474  14.402 -0.1416 -0.0698  0.0680
11521W        W27655   8.590   1.576   1.476  0.1283 -0.0455  0.3514
11522W        W27656  12.047   5.567  13.397 -0.4702 -0.2024  0.1446
11523W        W27657  17.463   3.378   0.183  0.2055 -0.1486 -0.1036
11524W        W27658   7.845  16.577  15.445  0.2066 -0.1364  0.2322
11525W        W27659  14.074  12.653   2.009 -0.0430 -0.0767  0.0196
11526W        W27660  14.575   0.535  14.349 -0.0892 -0.1666 -0.2481
11527W        W27661   4.002  11.893   0.170 -0.1235  0.2149  0.0665
11528W        W27662   9.127   0.472   5.350 -0.0058  0.0453 -0.1178
11529W        W27663   4.619  17.806   5.923  0.1556  0.0396 -0.2606
11530W        W27664   4.063   9.677  14.042  0.1705  0.1551 -0.4039
11531W        W27665   6.054   6.704   3.977  0.3836 -0.1815 -0.1769
11532W        W27666  12.999   5.544   0.616  0.1316  0.1463  0.0215
11533W        W27667  17.750  17.187  11.757 -0.4874 -0.0261 -0.0868
11534W        W27668  18.374  16.919   2.921  0.3068 -0.0171 -0.3287
11535W        W27669  15.205   3.942   4.090  0.0269 -0.0168  0.2978
11536W        W27670   7.609  16.536   2.131  0.0821 -0.0007  0.6040
11537W        W27671  17.262  14.723   3.798 -0.0202  0.1257 -0.2816
11538W        W27672  13.160  11.000  11.237  0.4846  0.2756 -0.0966
11539W        W27673   7.302  12.694  14.818  0.0216 -0.6027  0.2993
11540W        W27674  13.237   1.150  11.291  0.2454 -0.1961 -0.1982
11541W        W27675  12.561  12.543   5.925 -0.2881  0.0219  0.0189
11542W        W27676  14.417   7.623   0.767 -0.1288 -0.2947 -0.0397
11543W        W27677   6.788   1.004  11.881  0.1922  0.0777  0.1355
11544W        W27678   2.503   4.611  11.114  0.2073 -0.0385 -0.1707
11545W        W27679   5.217  11.213   0.362 -0.0805  0.4771 -0.2185
11546W        W27680   6.007  14.063  10.254 -0.1219  0.0683  0.0407
11547W        W27681   8.101   0.178  12.129 -0.1692 -0.0075 -0.0239
11548W        W27682   8.075   4.116   1.309 -0.3548 -0.2978 -0.3598
11549W        W27683  12.410  14.618   5.039 -0.1567 -0.3914  0.1107
11550W        W27684   6.592   9.608  15.384 -0.1468  0.0383 -0.3639
11551W        W27685  16.129   9.648  15.585 -0.1031  0.0876 -0.2436
11552W        W27686   6.133   9.822   6.002 -0.3833 -0.0788 -0.0379
11553W        W27687   6.268   1.428  15.754 -0.0059  0.0735 -0.3455
11554W        W27688  18.397  17.816  13.118  0.1343  0.3103 -0.4023
11555W        W27689   0.488  14.489  14.404  0.0026  0.2463 -0.1049
11556W        W27690  14.931   9.379  12.312 -0.0800 -0.1144  0.1205
11557W        W27691  13.540   0.608   4.182 -0.0141  0.0976  0.0776
11558W        W27692  15.729  16.820   4.613  0.2271  0.0493  0.1656
11559W        W27693   6.433   8.404   4.971  0.1036  0.2758 -0.0397
11560W        W27694  14.484   6.742  12.398  0.1910  0.0280 -0.3333
11561W        W27695  13.512   2.177  11.727 -0.1685 -0.2235  0.0368
11562W        W27696   2.544   8.054  15.719  0.1853  0.1578  0.1818
11563W        W27697   6.900  12.222  13.563 -0.0468 -0.3147 -0.0949
11564W        W27698  13.531  18.442  10.920 -0.0998  0.1150  0.0821
11565W        W27699  12.041  15.289  14.135  0.1438 -0.2461  0.0843
11566W        W27700  17.782   1.209  13.213 -0.1296  0.2226 -0.0443
11567W        W27701   3.177   2.555   2.572  0.2186 -0.1622 -0.0947
11568W        W27702   7.197   3.042   0.157  0.1157  0.0115 -0.0328
11569W        W27703   5.038   6.972  15.220  0.0705  0.1712  0.1462
11570W        W27704  16.800  12.165  12.866  0.3691  0.1437  0.1761
11571W        W27705   1.702   9.112  11.365 -0.0413 -0.1976 -0.3031
11572W        W27706   0.910   1.861  14.064  0.0837  0.3223 -0.1111
11573W        W27707  12.904   3.678   0.097  0.0028  0.0134  0.2388
11574W        W27708  11.208  14.516   5.498 -0.0541 -0.0638 -0.2776
11575W        W27709   7.409   5.424  14.246 -0.0854 -0.2023  0.0310
11576W        W27710  16.506   3.585   2.980 -0.2405 -0.0368  0.2742
11577W        W27711  15.095  14.552  14.578 -0.0135 -0.3599  0.0767
11578W        W27712  15.109   1.387  10.393  0.2211 -0.2939  0.2618
11579W        W27713  11.791  12.945   0.840 -0.0989 -0.2317  0.2164
11580W        W27714  17.273  13.537  15.552 -0.1287  0.1703  0.3199
11581W        W27715  15.345   5.386   4.679 -0.1084 -0.0915 -0.0349
11582W        W27716   8.210   8.681  12.803 -0.0668 -0.1887 -0.1485
11583W        W27717   8.868  13.483   5.926  0.0849 -0.1410 -0.1582
11584W        W27718  10.719   2.866  15.630  0.0749 -0.3051  0.1582
11585W        W27719   8.767  10.102  11.811 -0.1129 -0.2471 -0.1346
11586W        W27720   9.091  15.551   4.614 -0.0462  0.0092  0.1756
11587W        W27721   5.609   8.796  13.381  0.1509 -0.1075  0.0432
11588W        W27722   4.048   5.168   1.695  0.0419 -0.1009 -0.3286
11589W        W27723   5.399  18.037  15.179  0.0695  0.0111 -0.0192
11590W        W27724  11.605   2.147   0.387  0.0997 -0.1926  0.1039
11591W        W27725  11.720   2.982   1.033 -0.5169 -0.1296  0.1082
11592W        W27726   6.052   8.886  11.135  0.1303  0.3625  0.2269
11593W        W27727   0.291  13.295   4.829  0.1566 -0.0393  0.1423
11594W        W27728   7.491   2.596  12.476 -0.0057  0.0377 -0.0268
11595W        W27729  10.363   5.879   5.058  0.0243 -0.0089  0.0485
11596W        W27730   5.724  14.934   4.109  0.0423 -0.2682 -0.0212
11597W        W27731  17.912   4.131  15.805 -0.1003  0.0677 -0.0720
11598W        W27732  13.496  14.601   3.415 -0.3249  0.0076  0.2719
11599W        W27733   6.373   2.100   2.187  0.0343  0.2491  0.4458
11600W        W27734   8.572  14.887  11.034 -0.1978  0.3703 -0.2271
11601W        W27735   5.736  13.861   2.760  0.1796  0.4965  0.1741
11602W        W27736   2.718   9.508  14.820 -0.0758 -0.1941 -0.0144
11603W        W27737  15.015   4.984  12.996  0.1014 -0.1440  0.2687
11604W        W27738  18.265   0.823   4.773  0.3465 -0.1563  0.1886
11605W        W27739   0.009   7.532  13.141  0.0594  0.0308  0.0998
11606W        W27740   2.060  13.337  14.768  0.0567 -0.1557 -0.0964
11607W        W27741  13.291   9.368  12.649  0.1269  0.0486  0.1262
11608W        W27742  15.669   4.940  10.136  0.3188  0.2547 -0.0829
11609W        W27743   9.096   0.881  15.301  0.0131 -0.0381 -0.0714
11610W        W27744   5.157   2.421   3.989 -0.0771  0.1496  0.0479
11611W        W27745  16.350   3.142   2.685 -0.0078 -0.1329 -0.2726
11612W        W27746  13.852  17.452  15.531  0.1872 -0.1867  0.1336
11613W        W27747   2.023  11.844   1.179  0.0091 -0.2296 -0.1630
11614W        W27748   3.311   6.312   4.482  0.1571 -0.3157 -0.1862
11615W        W27749   1.148   4.803  11.228  0.0126  0.0501 -0.0878
11616W        W27750   2.737  17.545   4.530  0.2706 -0.1801 -0.0032
11617W        W27751  11.589  14.696   5.052 -0.0199 -0.2372 -0.3222
11618W        W27752   9.022   9.241  12.954 -0.0786 -0.2608  0.2996
11619W        W27753   7.799  11.808   0.400  0.0470  0.0962  0.2518
11620W        W27754  15.470   7.782  11.827  0.1144 -0.0543  0.4290
11621W        W27755   6.733   0.502  11.778 -0.3385  0.1369 -0.0303
11622W        W27756   7.613   2.065  12.227 -0.1983 -0.3503 -0.2265
11623W        W27757   3.079  16.786   4.821 -0.0928 -0.3821 -0.1190
11624W        W27758   6.883  17.631  12.498 -0.0117  0.0661  0.0328
11625W        W27759   7.937  15.876   1.348  0.3257 -0.0069  0.1601
11626W        W27760   8.037   8.605   4.848  0.0217 -0.1588 -0.1973
11627W        W27761  12.444  13.748  12.123 -0.0561 -0.1773 -0.2208
11628W        W27762   2.478   1.495  14.967 -0.1841  0.1855  0.0908
11629W        W27763  12.252   3.564  12.652  0.0625 -0.0311  0.4032
11630W        W27764   3.227   4.210   2.702 -0.2471  0.3576  0.0425
11631W        W27765  18.054   8.678   5.217 -0.2479  0.2829  0.2568
11632W        W27766   9.821   1.834  12.540  0.0025  0.1325  0.0685
11633W        W27767  12.336   6.732   0.527 -0.0380  0.1705  0.0835
11634W        W27768   8.180  14.854   0.597  0.1982  0.0380  0.3684
11635W        W27769   6.582   0.480   2.147 -0.2202  0.0988 -0.4188
11636W        W27770   6.815  11.913  13.090  0.2064  0.2062  0.0233
11637W        W27771   1.224   4.900   2.221  0.0934 -0.1402 -0.0200
11638W        W27772  14.327  12.548  10.288  0.4505 -0.2483  0.0058
11639W        W27773   2.755   0.537   3.105  0.0268  0.0006 -0.0062
11640W        W27774   5.755   6.624  14.570  0.2595 -0.0082  0.1344
11641W        W27775  10.912  14.464  14.863  0.1669 -0.2413 -0.1959
11642W        W27776   2.963  10.320  14.926  0.0304  0.1606 -0.1924
11643W        W27777  13.144  12.016   3.925  0.0544  0.3142 -0.0539
11644W        W27778   8.673   8.804   4.005 -0.0942  0.2806 -0.3138
11645W        W27779   7.774   6.287  11.342  0.0315  0.0065  0.2191
11646W        W27780  15.137  17.789  15.022 -0.2380 -0.3956  0.1075
11647W        W27781   0.353   7.942   2.317  0.0965 -0.0215 -0.2193
11648W        W27782  14.938   2.416   3.286 -0.1164  0.0837  0.1754
11649W        W27783  15.339  15.987   3.077 -0.1067  0.1518 -0.1093
11650W        W27784  13.371   3.622  13.060  0.0007  0.0062  0.2123
11651W        W27785   0.594   7.609  11.140  0.1562 -0.1688  0.0644
11652W        W27786   9.859   4.863   0.720 -0.1881  0.0455 -0.1841
11653W        W27787   3.364  14.967  13.905  0.0630 -0.1900  0.1259
11654W        W27788  10.356   2.271  13.799 -0.1696  0.2528  0.2385
11655W        W27789   2.339   0.747  13.782 -0.0531 -0.0651 -0.3274
11656W        W27790   3.410  14.168   3.000 -0.2040 -0.1735 -0.0877
11657W        W27791   9.927   7.459  13.566  0.2119  0.2444 -0.0256
11658W        W27792  15.677  16.885   1.996 -0.0375  0.0281 -0.0152
11659W        W27793   1.569   1.722   2.981 -0.0046 -0.1656 -0.2054
11660W        W27794   8.224   1.533   0.472  0.0334 -0.3608 -0.1424
11661W        W27795   4.554   7.784   0.284 -0.3660 -0.0463 -0.2204
11662W        W27796   0.758   3.262  11.809  0.1778 -0.0689  0.0546
11663W        W27797  14.756   6.883  11.168 -0.2150 -0.0771  0.3166
11664W        W27798  10.748   3.186   0.602  0.0771  0.3489 -0.1390
11665W        W27799  12.204   8.516  11.589  0.0682 -0.1634 -0.1943
11666W        W27800  17.444  11.911  10.323 -0.0682 -0.5239  0.1949
11667W        W27801   7.823   0.200   5.292  0.0881 -0.0365  0.0010
11668W        W27802  11.588  12.103   3.654 -0.1495 -0.2209 -0.1044
11669W        W27803   3.041   9.344   3.333 -0.0132  0.0386  0.2037
11670W        W27804   6.099   7.454  12.152 -0.0966 -0.0533 -0.1437
11671W        W27805  10.560  18.023   3.345  0.0043  0.0255  0.2039
11672W        W27806   1.144  11.226   1.540  0.3006 -0.2170 -0.0916
11673W        W27807  18.189   2.982  15.357  0.0442  0.3627 -0.3498
11674W        W27808  11.610   4.064  12.653 -0.0624 -0.0559 -0.3779
11675W        W27809   8.658  15.885  10.037 -0.2144  0.0289  0.0167
11676W        W27810   7.892  18.161   4.964 -0.1224 -0.0000  0.1293
11677W        W27811   7.330  14.406   5.764 -0.0383 -0.3355  0.1701
11678W        W27812   4.285   7.805  13.925  0.1537 -0.1580  0.0726
11679W        W27813  12.480  13.600  15.471  0.1355 -0.0778 -0.0879
11680W        W27814   9.573   1.038   2.827 -0.0928  0.0850  0.1106
11681W        W27815   2.756  15.052   1.410  0.2654 -0.0171  0.0987
11682W        W27816  14.274   4.468  12.528 -0.0238  0.0417 -0.1539
11683W        W27817   0.207  16.642   0.590 -0.2268  0.1335  0.0024
11684W        W27818   6.564  10.458   3.551 -0.2087  0.2318  0.0032
11685W        W27819   2.012  12.928   5.063 -0.2072 -0.0765  0.2665
11686W        W27820   1.679  13.433   0.019  0.0180 -0.0512  0.0341
11687W        W27821   5.774  15.915  14.717  0.2615 -0.2966  0.0791
11688W        W27822   4.206   4.861   4.462 -0.2805 -0.3261  0.0422
11689W        W27823  11.902  17.119  15.733  0.2471 -0.1130 -0.0846
11690W        W27824   1.394   8.385  14.051 -0.0848 -0.0708  0.1079
11691W        W27825   6.421   1.551   2.752 -0.1277  0.1061 -0.0992
11692W        W27826   7.281   1.599  12.682 -0.0789 -0.0725 -0.2279
11693W        W27827  13.729   6.614  12.713 -0.2807  0.1842  0.1007
11694W        W27828  13.618   7.367   5.186  0.0343  0.1287 -0.2167
11695W        W27829  11.457  18.355  12.323  0.0667 -0.4880  0.1404
11696W        W27830  10.373   6.775  12.667 -0.0698  0.0373  0.1066
11697W        W27831  17.578   9.998  15.475  0.2800  0.0524  0.3308
11698W        W27832   6.097  15.466   0.226  0.0054  0.1795  0.1430
11699W        W27833   2.243  14.438  14.025  0.1276  0.0006  0.0419
11700W        W27834   2.511  17.076   4.406  0.1534  0.1354 -0.0480
11701W        W27835   0.735   4.078  11.375 -0.0471  0.1614 -0.0206
11702W        W27836  13.920  12.584  12.292 -0.2526  0.1021  0.1664
11703W        W27837  17.796   0.898   5.283  0.0473 -0.0540 -0.0091
11704W        W27838  15.119   0.262  15.442 -0.1305 -0.2378  0.0476
11705W        W27839   0.977  16.927  12.437 -0.1286 -0.0162  0.1329
11706W        W27840   9.558  15.318  11.965  0.3668 -0.1414 -0.0211
11707W        W27841  13.553   6.326   3.206  0.2405 -0.3371  0.0563
11708W        W27842  17.192  15.521  15.340 -0.0364 -0.2509  0.0857
11709W        W27843   5.797   5.809   2.152  0.1799 -0.0090 -0.0384
11710W        W27844  10.584   1.817  13.752  0.0620 -0.1376 -0.1090
11711W        W27845  11.122   0.288  11.412 -0.0795 -0.1995 -0.0182
11712W        W27846   7.364   1.183   1.752 -0.1821  0.1064 -0.0022
11713W        W27847  15.647   7.323  11.597 -0.1863  0.2976 -0.1654
11714W        W27848   9.438   8.280  11.633 -0.0128  0.0231  0.2322
11715W        W27849   5.480  10.838  15.187  0.0575  0.1075 -0.1195
11716W        W27850   1.617  13.878  12.976  0.1671  0.1697 -0.1122
11717W        W27851  13.024   6.743  13.940  0.1496 -0.2434 -0.0124
11718W        W27852   5.804   7.436  13.432  0.1712  0.0336  0.3871
11719W        W27853   0.626   3.548   4.417  0.0004  0.1496 -0.0757
11720W        W27854  17.657  17.950   2.543  0.0982 -0.2438  0.1218
11721W        W27855  13.112   0.341  12.866 -0.1156 -0.1497  0.1618
11722W        W27856   3.791  17.824  13.403 -0.0991  0.2007 -0.2686
11723W        W27857   2.509   9.965   3.981  0.0905  0.1143 -0.1911
11724W        W27858  10.537  11.145  15.769  0.1058 -0.0594 -0.2048
11725W        W27859  12.210  12.375   0.091  0.0196  0.1393  0.0988
11726W        W27860  17.467   9.482   1.592  0.1578  0.2141 -0.0194
11727W        W27861  11.214  15.799  13.528  0.0843  0.1620 -0.1086
11728W        W27862  11.275   2.902   2.529  0.2910  0.1031  0.3733
11729W        W27863   9.751   5.622  15.122 -0.2335  0.1037  0.0469
11730W        W27864  17.805  14.391   2.763  0.0730  0.0794 -0.1945
11731W        W27865  14.271  11.013   3.589 -0.2881  0.0442 -0.1090
11732W        W27866   9.294   5.486  11.990 -0.1815  0.1133 -0.4747
11733W        W27867  14.835   5.537   4.569 -0.2205 -0.1079  0.0319
11734W        W27868  13.839   3.818   1.547 -0.1128  0.2120 -0.1215
11735W        W27869  11.120  12.286  12.555 -0.0559 -0.0837  0.0987
11736W        W27870  17.444   8.091  15.705  0.2901 -0.0177  0.0206
11737W        W27871   8.956  13.032  12.261 -0.0363  0.1199 -0.2642
11738W        W27872  11.189   2.713   4.579  0.2464  0.1132 -0.0258
11739W        W27873   1.271   2.405  11.149 -0.2805  0.1176 -0.1964
11740W        W27874   8.053  16.150   4.393 -0.0448  0.0135  0.2666
11741W        W27875   5.542   2.121  14.592 -0.0620 -0.2552 -0.0842
11742W        W27876   7.896  10.253   0.376  0.0777  0.2213  0.4188
11743W        W27877  17.569  16.954  15.504  0.2699  0.1832  0.1215
11744W        W27878   2.285   0.308   4.332  0.1008  0.0804 -0.0047
11745W        W27879  15.307  11.715   0.797  0.0608  0.2940  0.0373
11746W        W27880   5.774  11.989   6.019  0.0028 -0.1327 -0.1324
11747W        W27881  17.314  12.532  11.560 -0.0463  0.0426  0.0008
11748W        W27882   9.938  17.665   1.852  0.0172  0.2907 -0.0483
11749W        W27883   0.610  16.645   4.282 -0.0068  0.1704 -0.0543
11750W        W27884   7.472  17.445   1.896  0.2440  0.0979 -0.0771
11751W        W27885   3.094   3.832   0.611 -0.1015 -0.3576 -0.0231
11752W        W27886   7.188  15.859  11.146  0.1964 -0.1459  0.1187
11753W        W27887   6.848   2.851   3.833 -0.3896 -0.1608 -0.0881
11754W        W27888   2.993   5.846   1.145 -0.1754  0.0675  0.0029
11755W        W27889  18.395  11.590   0.298  0.2970 -0.2529 -0.2587
11756W        W27890   7.671   4.079  11.348  0.3032 -0.1347  0.3440
11757W        W27891  10.435  15.465  10.500  0.3728 -0.2205 -0.1127
11758W        W27892   4.610   7.419   0.642 -0.0034 -0.1307  0.0160
11759W        W27893  17.048   4.115   4.624 -0.3259  0.3063  0.1369
11760W        W27894  13.523  16.728  12.538  0.3597  0.3314 -0.4741
11761W        W27895  14.576   3.989  11.035 -0.2327 -0.0907 -0.0421
11762W        W27896  17.719   5.429   1.657 -0.0395 -0.0689  0.4980
11763W        W27897  14.921  17.115   4.447 -0.2059 -0.0775  0.0914
11764W        W27898  17.621   0.319  14.032  0.1493 -0.0877 -0.0411
11765W        W27899   6.531  12.975   4.274  0.0608 -0.0361  0.1415
11766W        W27900  16.748   0.670  12.120 -0.1050  0.0702 -0.1109
11767W        W27901   1.701  18.429  15.781  0.3102 -0.1560 -0.1580
11768W        W27902   8.451   7.629  13.106 -0.1606 -0.0726  0.1586
11769W        W27903   3.006   5.508  14.600  0.3428 -0.2896  0.1493
11770W        W27904  17.827   4.883  15.258 -0.1978 -0.2160  0.2740
11771W        W27905   1.500   9.661   5.113 -0.1050 -0.0986 -0.0821
11772W        W27906   4.883   9.235   4.185 -0.1649  0.2142  0.2636
11773W        W27907  11.122  15.617   3.724  0.0940 -0.0306  0.0401
11774W        W27908   0.648  12.113  12.055 -0.0293 -0.0689  0.2011
11775W        W27909   3.106   5.551   0.451  0.0161 -0.2598 -0.1566
11776W        W27910  13.750  17.713   0.889 -0.1389 -0.0787  0.1874
11777W        W27911   3.593  13.982  13.767  0.2181  0.1478  0.0121
11778W        W27912  18.418   6.131  15.822 -0.3403 -0.0681  0.0749
11779W        W27913  17.899  12.839   3.834  0.0551 -0.2756  0.1827
11780W        W27914   1.242   8.388  12.176  0.1466  0.1660  0.2064
11781W        W27915  11.145  13.452   0.236  0.3722 -0.2265 -0.1812
11782W        W27916  15.505   2.838   0.087 -0.3007 -0.0351 -0.2383
11783W        W27917   2.579  11.935  10.780  0.0363 -0.1595  0.2663
11784W        W27918   5.547  16.593   1.123  0.1853  0.1642  0.2169
11785W        W27919   6.357  11.535  11.831 -0.1549  0.3162  0.0686
11786W        W27920   7.331  13.234  12.908  0.2120  0.1059  0.1779
11787W        W27921   6.027   0.101  11.373  0.1440 -0.1266 -0.0182
11788W        W27922   2.435   6.300  14.725  0.3782  0.0299  0.0447
11789W        W27923   9.155   0.694   0.570 -0.0292 -0.0848  0.0729
11790W        W27924  13.769   1.893  15.313  0.4485 -0.3112  0.0703
11791W        W27925   1.702   6.764  14.572 -0.4955  0.0723 -0.0906
11792W        W27926   6.711   4.788   1.748  0.2013 -0.0525  0.1085
11793W        W27927   6.911   9.110   2.285  0.1959  0.4753  0.0250
11794W        W27928   1.074   0.848  12.207  0.0987  0.2747  0.4192
11795W        W27929   8.694   4.754  14.578  0.1423  0.0688  0.3954
11796W        W27930  16.527  11.765   1.534  0.0234  0.3543 -0.2241
11797W        W27931  10.355  13.671  15.221  0.0372  0.1780  0.1346
11798W        W27932   8.717  12.540   3.962 -0.2866 -0.4790 -0.1604
11799W        W27933   0.045   1.383  11.464  0.0015  0.1132  0.0373
11800W        W27934  15.730   8.407   2.783  0.1466  0.2881  0.3631
11801W        W27935  10.195   4.506   2.212  0.1868  0.1121 -0.1053
11802W        W27936  10.110  16.450   5.484 -0.1511  0.0157 -0.2875
11803W        W27937  14.538   1.509  10.233  0.2583  0.1341  0.0804
11804W        W27938   0.769  17.175   1.740  0.0926  0.3981 -0.1240
11805W        W27939   9.534   7.096   1.922 -0.1457 -0.0457 -0.0295
11806W        W27940  15.436   2.411  15.557  0.2150  0.0997 -0.0040
11807W        W27941   6.621   0.139  13.705  0.0242  0.0224  0.0814
11808W        W27942  14.968   6.252  11.665  0.2201 -0.1004  0.1079
11809W        W27943   8.246  10.118   1.962  0.2104  0.0641 -0.1829
11810W        W27944  12.811  14.801   1.398 -0.0507 -0.0128  0.1326
11811W        W27945   8.718   6.906   2.462  0.1648  0.0679 -0.1480
11812W        W27946  12.167   2.573  15.522 -0.0807  0.0145 -0.0747
11813W        W27947  14.221   6.022  12.055  0.2640  0.0545  0.0769
11814W        W27948  13.846   8.810   4.652  0.1724 -0.0375 -0.2875
11815W        W27949  10.023  17.808   4.255  0.5956  0.2215  0.2794
11816W        W27950   1.085  12.520  12.056  0.0448 -0.0242  0.1632
11817W        W27951  15.782  15.508  15.643 -0.1193 -0.3811  0.0256
11818W        W27952   5.531  16.391   2.534  0.2034 -0.0067 -0.1590
11819W        W27953  10.050  12.406  13.486  0.2473 -0.0461 -0.1161
11820W        W27954  16.556  17.663  13.929  0.0021  0.1418  0.2238
11821W        W27955   3.575   2.172   5.263 -0.0900 -0.3129  0.1523
11822W        W27956  11.292  18.458  14.748 -0.0605  0.2958  0.3559
11823W        W27957   7.090  17.924   4.243  0.1107 -0.1146 -0.1515
11824W        W27958   6.225   1.173  11.127  0.1990 -0.0445 -0.1261
11825W        W27959   9.093   5.133  12.423  0.3158  0.1205 -0.2035
11826W        W27960   1.336   9.398  12.864  0.2279  0.0482  0.0427
11827W        W27961  10.876  16.301  13.314 -0.0285 -0.0741  0.0384
11828W        W27962  10.411  10.156   1.491 -0.0440 -0.0183  0.2432
11829W        W27963   4.217   3.799   2.985  0.2188 -0.0102  0.0763
11830W        W27964   5.956  13.191   5.728  0.0190  0.0144  0.1466
11831W        W27965   8.479   1.437  11.330  0.0079  0.0857 -0.1326
11832W        W27966   8.662   7.291  12.816  0.1256 -0.2078 -0.1169
11833W        W27967   7.287   6.168   4.357 -0.0692  0.1256  0.0197
11834W        W27968   8.537   2.405  13.169 -0.0253 -0.1184  0.1040
11835W        W27969   0.693   1.373   4.478 -0.1157  0.3883 -0.2175
11836W        W27970  18.377  16.676   0.189 -0.0503  0.1788  0.2561
11837W        W27971   7.823  16.582   2.615  0.1206 -0.0997 -0.0995
11838W        W27972   6.742  12.234  12.578  0.1750 -0.0763  0.2194
11839W        W27973  16.481   5.212   4.313 -0.1899  0.2257  0.1720
11840W        W27974  17.405  12.457   3.187 -0.1288 -0.0473  0.0988
11841W        W27975   6.776   2.109  15.640 -0.0947  0.0383  0.1805
11842W        W27976  13.986  10.599   1.835  0.2990 -0.0548  0.1006
11843W        W27977  12.614   1.336  15.029  0.1972  0.1470  0.1344
11844W        W27978   3.725  10.155  14.212 -0.4128  0.0342  0.0046
11845W        W27979   7.248  18.362  15.421  0.0375 -0.2509 -0.0213
11846W        W27980   9.254   5.595   0.834  0.0375 -0.0507 -0.0975
11847W        W27981  15.419  16.516  13.359 -0.2201 -0.0550  0.2908
11848W        W27982  10.878   9.779   2.680 -0.3248  0.0140  0.1196
11849W        W27983   4.220   8.689   5.382 -0.0255 -0.3425  0.1609
11850W        W27984   1.373   9.198   5.413 -0.1215  0.1952  0.1531
11851W        W27985   7.393   4.920  12.232  0.2125 -0.0490  0.3424
11852W        W27986   1.535   8.596  15.384 -0.0560  0.0254 -0.1614
11853W        W27987   2.302   7.778   1.087 -0.0247  0.1239  0.0056
11854W        W27988   4.293   4.733   1.456 -0.1261 -0.1553  0.3993
11855W        W27989  18.014   7.282  15.219  0.0446  0.1467  0.1519
11856W        W27990   4.171  11.006   2.631 -0.2360 -0.0086 -0.5657
11857W        W27991  18.412   2.248  15.439  0.0414  0.5644  0.0809
11858W        W27992   4.810   5.153   0.003  0.2361 -0.0122  0.2723
11859W        W27993  17.666   6.176   4.706  0.1394  0.1123  0.1383
11860W        W27994  13.889   0.947   2.857 -0.1304  0.3473  0.2839
11861W        W27995   5.823   2.921   2.717 -0.1308  0.0371 -0.0817
11862W        W27996   3.327   2.896   3.552 -0.0106 -0.0767  0.0480
11863W        W27997  11.597  16.694   3.614  0.0960  0.0240 -0.0968
11864W        W27998  12.662  11.108   3.519 -0.1600  0.1161  0.0238
11865W        W27999   1.769  10.676   0.508  0.1728  0.1392  0.1740
11866W        W28000  17.092   1.645  12.940  0.0426  0.1205 -0.1539
11867W        W28001  15.081  17.884   0.117 -0.0751 -0.2320 -0.2297
11868W        W28002  12.120   4.213  12.688 -0.0728  0.3059  0.3087
11869W        W28003  13.128  10.588   2.383  0.0111  0.1153  0.0281
11870W        W28004  15.284   0.153  10.994 -0.0796  0.0088 -0.2417
11871W        W28005   4.588   7.814  13.538 -0.0263 -0.1762 -0.0164
11872W        W28006   1.154   3.047   0.116  0.0664 -0.4397  0.1181
11873W        W28007  16.053   1.031   4.187  0.2702  0.0215  0.2547
11874W        W28008   1.661   1.018  15.447 -0.1178  0.1751  0.0929
11875W        W28009  15.058   5.468  13.939 -0.1701 -0.2142 -0.1758
11876W        W28010  17.881   0.855   1.347 -0.0326  0.1106  0.0991
11877W        W28011   4.408   9.420  10.078  0.0120  0.0190 -0.0164
11878W        W28012  16.152   3.853   3.658 -0.3576  0.0026 -0.1992
11879W        W28013  17.929   9.008  15.318 -0.0789  0.2478  0.0490
11880W        W28014  18.375  15.471  14.404 -0.1113  0.2007  0.0012
11881W        W28015  10.760   4.039   3.609 -0.2152 -0.2904  0.0134
11882W        W28016  17.862   9.382   0.245  0.0079 -0.1774 -0.0582
11883W        W28017   7.295  16.284   4.963  0.1155  0.0913  0.1036
11884W        W28018   0.854   8.795   2.550  0.0789  0.1468 -0.1508
11885W        W28019   7.887  16.008   2.830  0.1050 -0.0928  0.0739
11886W        W28020  10.775  13.801   1.360 -0.0010 -0.1417 -0.3635
11887W        W28021   6.371   7.288  14.765 -0.1350 -0.2538  0.0692
11888W        W28022  17.143   5.647   2.942 -0.0092 -0.0548 -0.0983
11889W        W28023   6.936   3.111  14.202 -0.0019  0.2714 -0.0047
11890W        W28024   1.580   7.763  15.738 -0.2329  0.0479  0.1999
11891W        W28025  11.314   3.647   2.863 -0.0998  0.0979 -0.2538
11892W        W28026   9.920  12.041  13.183 -0.0736  0.2390 -0.1083
11893W        W28027  12.932  13.781  14.577  0.0450 -0.1378 -0.0723
11894W        W28028  15.135   1.837   5.481  0.1921 -0.2575  0.2097
11895W        W28029   9.815  14.224   2.196  0.0955 -0.2018  0.0981
11896W        W28030  16.721  12.546  10.460  0.2227 -0.0989 -0.1771
11897W        W28031   3.468   8.394  13.487  0.0983  0.1605  0.1724
11898W        W28032  12.719   4.283   1.324 -0.1951 -0.3385  0.0396
11899W        W28033  15.360   9.159  12.486 -0.0545 -0.2141 -0.1743
11900W        W28034   8.991  15.344  14.601 -0.1557  0.2133 -0.4324
11901W        W28035   7.199  11.429  14.278 -0.0854  0.2426 -0.2692
11902W        W28036  10.159   5.205   2.121  0.2287 -0.0425  0.1840
11903W        W28037  12.113   5.797  12.931  0.1871  0.4512 -0.1186
11904W        W28038   4.001   0.272   1.109  0.1491  0.2494  0.0981
11905W        W28039   4.498   7.470   3.559  0.2813  0.2150  0.1690
11906W        W28040   7.771  17.424  14.700 -0.2182 -0.4392  0.2306
11907W        W28041   6.410   3.309  11.493  0.0508  0.2266 -0.1753
11908W        W28042   5.828   3.478  13.135 -0.0415 -0.2615  0.1875
11909W        W28043   9.185   1.978  14.508  0.1374 -0.1905  0.0120
11910W        W28044  15.840   2.999  11.625 -0.2845 -0.2042  0.1915
11911W        W28045   3.586   9.430   5.359  0.0940  0.1433 -0.2539
11912W        W28046   1.857   9.217  13.652 -0.0021 -0.0829 -0.1653
11913W        W28047  16.844   3.402   3.341 -0.0609  0.1768 -0.0939
11914W        W28048  12.236  16.181  15.339  0.1914 -0.4422 -0.0241
11915W        W28049  17.959  13.032  11.069 -0.2808  0.0603  0.0033
11916W        W28050   0.232  17.262   1.688 -0.1428  0.1066 -0.0114
11917W        W28051  18.403  18.143   4.866  0.0288  0.3130 -0.4177
11918W        W28052  15.599   4.692   2.212 -0.0023  0.3225  0.0361
11919W        W28053   0.996   9.222   3.655 -0.4983 -0.0465 -0.1562
11920W        W28054  13.293   8.422   3.985 -0.1339  0.1272 -0.1567
11921W        W28055   1.888   8.114   1.829 -0.1758  0.1438  0.0194
11922W        W28056  11.720   6.450   2.244 -0.2529 -0.4281  0.1077
11923W        W28057  12.812   5.792   3.536  0.2675  0.1463  0.2636
11924W        W28058  15.410   0.836   5.524 -0.0426  0.3084  0.2577
11925W        W28059  13.485  11.414   4.556  0.0734 -0.0985  0.0722
11926W        W28060  11.391  16.603  11.741 -0.0232  0.1322  0.0930
11927W        W28061  17.504  17.950  11.103 -0.0461  0.0440  0.0800
11928W        W28062   7.931   5.909   3.136 -0.0583 -0.1818  0.1453
11929W        W28063   2.823  12.852  14.053 -0.0558  0.0137 -0.2514
11930W        W28064  18.225  18.203   2.650 -0.0915 -0.3081  0.2337
11931W        W28065   6.361  16.315   0.827 -0.0966  0.0790  0.1783
11932W        W28066   5.858  11.417   4.874  0.1571 -0.3072 -0.0918
11933W        W28067  17.319   3.356   3.188 -0.1736  0.2308 -0.1262
11934W        W28068   4.240   5.393   2.118  0.0651  0.1943  0.0121
11935W        W28069   1.617  10.859  11.574  0.1014 -0.1862  0.0954
11936W        W28070   3.522   2.531   0.349  0.1812  0.0798  0.1961
11937W        W28071   2.307   4.109   2.972 -0.1452 -0.1085  0.4304
11938W        W28072   8.347  14.752  13.155  0.0210  0.4192 -0.2953
11939W        W28073   1.993   2.820  15.478 -0.1211 -0.3485  0.3036
11940W        W28074   9.629  11.270  13.002  0.1936  0.1150  0.1265
11941W        W28075   9.758   9.644  13.256  0.2710  0.0395 -0.3950
11942W        W28076  13.956   9.333  13.054 -0.4261  0.0167  0.0403
11943W        W28077   5.027  18.428   2.122  0.3106  0.1211 -0.1752
11944W        W28078   6.779   6.972   2.084 -0.0890  0.0767 -0.3324
11945W        W28079   6.952   9.650   1.173  0.1736  0.2223 -0.0981
11946W        W28080  11.988   1.991   2.939  0.2109 -0.1917 -0.1261
11947W        W28081   8.944   5.852   2.188  0.1156 -0.3152  0.0979
11948W        W28082   6.113   9.505  15.298  0.1054 -0.0011 -0.0627
11949W        W28083   0.176   6.843   3.518  0.0535  0.1065  0.1849
11950W        W28084   1.456   0.047  11.143 -0.3215 -0.0988 -0.0750
11951W        W28085   7.323   5.041   5.245 -0.0591 -0.0169 -0.2033
11952W        W28086  13.220  13.202   1.119  0.2922 -0.0383  0.1740
11953W        W28087  11.985  14.976   5.246  0.0379 -0.2179 -0.2613
11954W        W28088  15.040   8.940   0.480 -0.0181  0.1164 -0.0045
11955W        W28089   6.172   6.290   9.685 -0.0396  0.1434  0.2337
11956W        W28090   5.097   8.885  12.705 -0.0029  0.2484 -0.1017
11957W        W28091   0.088   8.440   4.085 -0.0415 -0.1046  0.0801
11958W        W28092   7.575   2.316   0.967 -0.0435 -0.1620 -0.0857
11959W        W28093  17.376  13.375  13.979 -0.0025 -0.0175  0.0802
11960W        W28094  14.207  16.635   5.197  0.2440 -0.2274  0.3288
11961W        W28095  16.235   2.941  15.512 -0.0038  0.0443  0.0649
11962W        W28096   7.864   4.031  12.833 -0.0476 -0.1365  0.0091
11963W        W28097   3.512   3.022  13.570  0.2048  0.1311 -0.0382
11964W        W28098   7.704   9.320   4.473 -0.0028  0.0878 -0.0955
11965W        W28099   2.299  15.800   2.431  0.1359  0.3263 -0.2431
11966W        W28100   3.670  12.656  11.327  0.1571 -0.3564  0.2488
11967W        W28101   3.772   4.315   2.688 -0.2525 -0.2443  0.0818
11968W        W28102   5.803  18.169   2.402 -0.1438 -0.0233 -0.2700
11969W        W28103   7.137  12.359  14.126 -0.2856  0.1973 -0.0705
11970W        W28104   7.865   7.022   3.095 -0.1104 -0.3208 -0.0395
11971W        W28105   8.013  10.133   0.840  0.3165  0.0376  0.2588
11972W        W28106  10.251  14.676  15.728  0.0415 -0.1063  0.0944
11973W        W28107   1.206  10.011   0.729 -0.2019 -0.1010  0.2821
11974W        W28108  10.531  14.472  11.945  0.2469  0.0757 -0.3517
11975W        W28109   5.381  16.105   1.158 -0.3528 -0.1425 -0.0064
11976W        W28110  12.241   9.375  12.334 -0.1257 -0.3034  0.0411
11977W        W28111  12.939   3.651  11.117 -0.1597  0.0378 -0.0340
11978W        W28112   9.692   1.101   2.010 -0.0543 -0.0178  0.1482
11979W        W28113  13.983   6.757   2.329 -0.1123 -0.2238 -0.0891
11980W        W28114   1.793   0.607   4.311  0.0539 -0.1541 -0.1444
11981W        W28115  18.003  12.177  15.137 -0.1313  0.1603  0.1242
11982W        W28116  15.740  14.411  14.130  0.4489 -0.2938  0.1292
11983W        W28117  14.005   6.832   1.170  0.0966  0.2711 -0.0348
11984W        W28118   7.786   3.859  15.785 -0.0414 -0.0338  0.2096
11985W        W28119  16.887   2.852  12.406 -0.1621 -0.2377  0.2988
11986W        W28120  13.151   0.360   3.883 -0.1113  0.0138 -0.1711
11987W        W28121  10.352   9.537   0.834 -0.1149 -0.0173  0.3144
11988W        W28122   4.759  15.551   1.453  0.0802  0.0825  0.3141
11989W        W28123  13.503  15.920   4.233 -0.1328 -0.0125 -0.0597
11990W        W28124  12.047   8.424  12.055 -0.2021 -0.1399 -0.1121
11991W        W28125   6.691  15.679   1.029 -0.2660  0.1816 -0.4975
11992W        W28126   4.662   4.723  13.163 -0.2009 -0.0363 -0.0995
11993W        W28127   8.087  16.163  15.271 -0.0679  0.1734  0.0737
11994W        W28128  13.693   6.498  11.876  0.0018 -0.0181 -0.2031
11995W        W28129   4.218   7.041   0.899 -0.0215 -0.2297 -0.2332
11996W        W28130   0.773   9.480   4.909  0.1728  0.3351 -0.3537
11997W        W28131   4.050   6.279   4.248  0.0318  0.1799 -0.0775
11998W        W28132   9.927  13.575  15.431  0.1367  0.0508 -0.1682
11999W        W28133   5.299   3.157   0.158  0.1913  0.0756  0.2443
12000W        W28134  12.691   1.716  13.850  0.0629  0.0414 -0.0495
12001W        W28135   1.129  12.706   2.831  0.2771 -0.2841  0.2553
12002W        W28136  15.115   0.046   1.685  0.2566  0.2659 -0.0650
12003W        W28137   3.236   3.294  15.579  0.0464 -0.0732  0.1602
12004W        W28138  11.042   8.478  14.895 -0.2284 -0.1886  0.1652
12005W        W28139  14.555  12.323   1.853  0.0997 -0.1522  0.3779
12006W        W28140  16.932  16.160  13.639  0.2527  0.0964  0.1181
12007W        W28141   4.784   8.666   5.425  0.1547 -0.2361 -0.0238
12008W        W28142   5.210   0.259   0.363 -0.0824  0.2840  0.1328
12009W        W28143   5.916  10.029   1.773  0.0644 -0.3092  0.1077
12010W        W28144  14.701   6.328  13.674  0.0856 -0.1113 -0.0612
12011W        W28145  16.886   1.650   5.379  0.0653 -0.1142 -0.4469
12012W        W28146   5.573   2.123   3.747  0.3828 -0.0481 -0.0943
12013W        W28147   6.396   3.354  11.997 -0.0583  0.0785  0.1707
12014W        W28148  12.817  12.871  11.805  0.1603  0.1673 -0.1422
12015W        W28149  11.137   4.050   1.087  0.0571 -0.0267  0.1043
12016W        W28150   4.827   1.259   4.304  0.0696 -0.2244  0.0215
12017W        W28151  12.523   3.014  14.179 -0.0076 -0.1494 -0.0666
12018W        W28152   1.489   0.684  14.699  0.1293 -0.0271  0.3007
12019W        W28153   0.168   9.003   4.519 -0.0377 -0.0745  0.0875
12020W        W28154   0.540   8.114   1.400  0.0768 -0.0012 -0.1966
12021W        W28155   7.248   3.430  10.981 -0.0071 -0.1842  0.0681
12022W        W28156  12.569   4.538  13.272 -0.0977  0.3712 -0.0431
12023W        W28157  13.135   9.661  12.226  0.2930  0.2595  0.2570
12024W        W28158   9.763   0.957   4.295 -0.1879  0.0130  0.0520
12025W        W28159  15.075  12.450   5.105 -0.2297 -0.2060  0.0594
12026W        W28160  12.947   2.823  15.560 -0.2372 -0.0041 -0.1488
12027W        W28161   7.902   4.910  14.283  0.0539  0.1038  0.2618
12028W        W28162  12.557  17.499   3.242 -0.1472  0.3130  0.0085
12029W        W28163   4.815   5.620   0.759  0.2208  0.1515  0.0925
12030W        W28164  13.005  17.876  12.459 -0.1428 -0.1345 -0.1922
12031W        W28165   2.060   3.107  14.618 -0.2344  0.3536 -0.1275
12032W        W28166   7.806   7.295  12.306  0.0174 -0.0513  0.0211
12033W        W28167  10.585  15.318  11.041 -0.1254  0.0908  0.0203
12034W        W28168  12.496   1.115   2.640 -0.2525 -0.1212 -0.4139
12035W        W28169  15.995   3.704  12.201 -0.1103  0.0603 -0.0334
12036W        W28170  16.899   1.064   1.488  0.1146 -0.2022 -0.0158
12037W        W28171   6.612  15.318   1.829 -0.2330 -0.1679  0.3690
12038W        W28172  13.214  11.836  12.562 -0.0544  0.0199  0.0537
12039W        W28173  13.206  13.359   2.484 -0.0163 -0.0080  0.0706
12040W        W28174  18.046  16.360  14.183  0.0191  0.0680  0.3541
12041W        W28175  15.522   1.161   3.314  0.1176  0.1881  0.0355
12042W        W28176   9.372   1.454  13.181  0.0197 -0.0021 -0.2535
12043W        W28177   2.183  12.548  12.438  0.1319  0.0058  0.1097
12044W        W28178   7.400  11.969  15.506 -0.0458 -0.3814 -0.2656
12045W        W28179  17.780   6.850  15.480 -0.2357 -0.0348  0.0153
12046W        W28180   8.961  15.501   1.950 -0.2333  0.0493  0.1803
12047W        W28181   7.362   5.473  12.805  0.2667  0.3731  0.2312
12048W        W28182   2.593   7.856   3.353  0.3572 -0.0746 -0.2020
12049W        W28183  10.732   6.797   0.636 -0.3706  0.0886 -0.0522
12050W        W28184  11.024  18.035  12.216  0.0293  0.3901  0.0629
12051W        W28185   2.037  12.141   4.265  0.1168 -0.1579 -0.1912
12052W        W28186  15.287   8.117   2.808  0.1410  0.2015 -0.0635
12053W        W28187  17.250  15.594  13.654 -0.0162 -0.0876 -0.0723
12054W        W28188   2.882   8.971  11.957  0.2029  0.4039  0.0516
12055W        W28189   5.402  17.276   1.544 -0.0719 -0.2767 -0.0139
12056W        W28190   9.479   8.871  15.627 -0.0640  0.1258  0.1155
12057W        W28191  14.571  14.841  11.436 -0.3638  0.3965  0.0808
12058W        W28192  14.668   2.424  15.486  0.1378  0.2667  0.0416
12059W        W28193   7.181   5.924  13.446  0.1709  0.0895 -0.0182
12060W        W28194   1.973  11.389  15.372  0.2352  0.0122  0.0117
12061W        W28195  16.765   9.380   0.331  0.0280 -0.0801 -0.3405
12062W        W28196   2.638   2.256  14.772  0.0051 -0.0604 -0.2858
12063W        W28197  12.832  14.753   0.454  0.2179 -0.1312 -0.4816
12064W        W28198  10.365   3.222  13.866  0.3798  0.2271  0.0248
12065W        W28199  15.807  10.391  12.834  0.3982  0.0482 -0.1632
12066W        W28200   8.269  11.863  14.907  0.2476  0.1198 -0.0783
12067W        W28201  12.965   5.498   4.033 -0.1686  0.2102  0.2283
12068W        W28202   8.745  12.796  10.937 -0.1297  0.0036 -0.1233
12069W        W28203  14.496   3.269  14.911 -0.0270  0.1498  0.0331
12070W        W28204   6.166   0.496  11.642  0.1316 -0.0116  0.0229
12071W        W28205   9.562   3.944  15.337  0.1106 -0.2494 -0.1561
12072W        W28206   9.857   8.778  11.024 -0.0721  0.3856 -0.0108
12073W        W28207   3.406  14.026   4.671  0.1398 -0.3835 -0.4308
12074W        W28208  15.867  13.305   4.818 -0.0168 -0.1167 -0.2556
12075W        W28209   6.330  16.657   3.900 -0.0317 -0.0402  0.0184
12076W        W28210   1.424  13.875   4.574 -0.2522  0.0275  0.2410
12077W        W28211   5.641  17.989   1.452 -0.1483  0.1634  0.0533
12078W        W28212   1.999   2.530   0.134  0.0446  0.0572  0.2463
12079W        W28213   4.466   3.880   1.453  0.0561  0.0437  0.1212
12080W        W28214   5.630   1.365   0.990  0.2812  0.0496  0.1734
12081W        W28215   9.046   2.318   1.056 -0.1991  0.0259  0.3707
12082W        W28216   9.770  11.934   4.426 -0.2616 -0.0007 -0.1455
12083W        W28217   5.593  13.802  11.560 -0.1534  0.1641 -0.1486
12084W        W28218   6.989   1.114   2.868 -0.1718 -0.0356 -0.2670
12085W        W28219   6.635   7.026  14.418 -0.2326  0.1215 -0.3882
12086W        W28220  18.185   3.070   1.368 -0.1091 -0.1049  0.0409
12087W        W28221  12.172  15.346   5.582  0.3154 -0.1605 -0.0965
12088W        W28222  16.855   4.568  15.329 -0.1927  0.0220 -0.3319
12089W        W28223   0.038  15.730  13.826 -0.2619  0.1214 -0.3351
12090W        W28224  13.138   5.899  12.186  0.1611 -0.0510 -0.0208
12091W        W28225  11.416  14.662   1.621 -0.0841 -0.3404 -0.1299
12092W        W28226  14.800  11.035  12.513 -0.1044 -0.1678  0.2752
12093W        W28227   6.202  14.681   3.677 -0.1898  0.1475 -0.0049
12094W        W28228   7.146   1.840   5.146 -0.0349  0.0100 -0.0640
12095W        W28229   9.930   2.050   4.911 -0.0424 -0.0648  0.2775
12096W        W28230  18.464   5.265   2.825 -0.0969  0.0796  0.2776
12097W        W28231   9.907  11.465   1.430 -0.0860 -0.0339  0.0366
12098W        W28232   0.424  10.916  15.625  0.0331  0.1873  0.2159
12099W        W28233  12.602   8.047   2.306 -0.1955  0.0781 -0.0110
12100W        W28234  15.532   5.606   4.238  0.2726  0.1356  0.2145
12101W        W28235  17.664   8.993  14.755  0.3018 -0.2299 -0.0075
12102W        W28236   1.106  16.133   4.956 -0.0775  0.2874 -0.0293
12103W        W28237  12.814   8.440   0.521  0.1538 -0.0380 -0.2288
12104W        W28238   1.674  18.412   0.762  0.0206  0.0047 -0.0959
12105W        W28239  13.238  14.519   0.267 -0.0945 -0.1694 -0.2489
12106W        W28240  18.428   4.985  13.342 -0.3226 -0.0824  0.1688
12107W        W28241   2.121  18.141  11.146  0.1301 -0.2386 -0.0665
12108W        W28242  12.318   1.505   3.669  0.1327  0.0242 -0.0236
12109W        W28243  17.132   1.591  14.290 -0.0230  0.1070  0.1400
12110W        W28244   4.506  13.681   4.303  0.1460  0.4548  0.4782
12111W        W28245  12.913   3.117   1.964 -0.0958  0.1210  0.2203
12112W        W28246   6.367   5.277   1.014 -0.2895 -0.1253  0.2322
12113W        W28247   4.727   4.833  11.144  0.3238 -0.0965  0.1770
12114W        W28248   7.368   9.878   3.618  0.0536 -0.0696 -0.0694
12115W        W28249   4.140   0.615   4.500  0.1636  0.0107  0.0274
12116W        W28250   9.993  11.624  15.327 -0.0413  0.1508  0.0049
12117W        W28251   3.319   6.898   4.787  0.1271  0.2852 -0.4888
12118W        W28252   3.055   8.137  15.689 -0.3460 -0.2471  0.3132
12119W        W28253   5.229  15.091  13.099  0.2241 -0.0308  0.0791
12120W        W28254  17.062  16.644  11.265 -0.0159 -0.0994 -0.0933
12121W        W28255   9.413   0.218  12.830  0.2379  0.1686 -0.1348
12122W        W28256  13.785   8.773  13.719 -0.1145  0.1085 -0.1791
12123W        W28257   9.491   2.904  11.246  0.1049 -0.0586  0.0368
12124W        W28258  11.700   2.060  10.612 -0.0608  0.2028 -0.1529
12125W        W28259   2.951  10.838  14.160 -0.2009 -0.0207 -0.2095
12126W        W28260   8.170   9.154   1.906  0.0823  0.1445  0.1465
12127W        W28261  17.851  17.442  13.791  0.2384 -0.1520 -0.0832
12128W        W28262   2.909  17.464  14.336  0.3407  0.0838 -0.0181
12129W        W28263  15.217  16.694  11.549 -0.1514  0.0819 -0.1065
12130W        W28264  17.215   7.351   2.261 -0.0793  0.0213  0.0193
12131W        W28265  13.497  12.444  12.717  0.1957 -0.1983 -0.0279
12132W        W28266   3.934   1.509   0.839  0.1984  0.0563 -0.0001
12133W        W28267  15.271  13.353   3.704  0.0042 -0.2340  0.4585
12134W        W28268   2.598   7.894  14.822 -0.0891  0.0035  0.0895
12135W        W28269   7.748   4.052   2.627  0.0241 -0.0359 -0.0916
12136W        W28270  16.204  11.343   1.783 -0.1220 -0.0152  0.2333
12137W        W28271  13.191  16.415  12.864 -0.0058 -0.0365 -0.0626
12138W        W28272   5.266  17.916  13.671 -0.0469  0.0309 -0.0455
12139W        W28273   2.964  16.239   4.691  0.0621 -0.0865  0.4164
12140W        W28274   5.817   6.781  15.095 -0.4860 -0.3440  0.2766
12141W        W28275  18.146   4.418   2.105  0.3001  0.1457 -0.1005
12142W        W28276  13.511  17.729  15.370 -0.1387  0.4056 -0.1114
12143W        W28277   1.072  14.948  12.504 -0.2954  0.4326 -0.2769
12144W        W28278   5.468  18.122   1.896  0.0061 -0.0730 -0.1960
12145W        W28279  16.166  12.775   1.959  0.1032 -0.2928  0.1285
12146W        W28280  15.056  18.242  13.138  0.1253 -0.3785  0.2614
12147W        W28281   2.058   8.274   0.094 -0.1000  0.2929  0.1112
12148W        W28282  15.914  16.382  12.187 -0.1152  0.0098 -0.2089
12149W        W28283  11.012   6.666  13.967  0.0935  0.4279 -0.0999
12150W        W28284  15.990  14.960  15.679 -0.0526  0.1420 -0.0491
12151W        W28285  15.080   9.986   1.134 -0.0692  0.3793  0.0991
12152W        W28286   9.932   3.992   4.224  0.1092 -0.4423  0.2183
12153W        W28287   5.518  12.645   4.744 -0.1798  0.1724  0.1761
12154W        W28288   9.136   3.561   4.253 -0.0411  0.1389  0.0965
12155W        W28289  10.238   2.272   5.532 -0.1903  0.0834  0.0397
12156W        W28290   2.242  13.647  12.965 -0.0607 -0.0019  0.1697
12157W        W28291   5.771   2.165   2.326  0.0514 -0.2153 -0.1293
12158W        W28292  17.587   2.756   4.746 -0.0557  0.0401  0.0469
12159W        W28293  13.683   4.744  11.854  0.0131 -0.1344 -0.1895
12160W        W28294   5.628   5.460   0.362 -0.0736 -0.0527  0.0988
12161W        W28295   9.840   4.552  13.680  0.1688 -0.0078 -0.0692
12162W        W28296   3.325  18.032   2.112  0.2061 -0.1855  0.1820
12163W        W28297  11.833   5.307   4.325  0.2480 -0.0506  0.1058
12164W        W28298   2.433   0.169   0.234  0.0110 -0.3452 -0.2003
12165W        W28299   9.051  13.366   5.396  0.4591  0.2771 -0.0733
12166W        W28300  15.033   0.138   2.212 -0.1505  0.3415  0.0447
12167W        W28301   2.953  11.697   1.214 -0.3005 -0.0335  0.1666
12168W        W28302   3.394  13.356  15.894 -0.0460 -0.0255  0.1038
12169W        W28303   5.161  13.012   0.754  0.2816 -0.0400 -0.0855
12170W        W28304  15.402  12.109  13.918 -0.2849  0.1088  0.1806
12171W        W28305  16.959   8.871  12.576 -0.2388 -0.0098 -0.1814
12172W        W28306   3.595   5.331   1.875  0.7296  0.0292 -0.0558
12173W        W28307  16.222  11.304  14.267 -0.0215 -0.1210  0.3258
12174W        W28308   3.187  12.760  13.345 -0.2896 -0.0056 -0.0982
12175W        W28309   2.401  14.074  15.252 -0.1467  0.1741 -0.1457
12176W        W28310   5.938   4.531   1.184  0.1536 -0.1558 -0.1633
12177W        W28311   3.996   5.812   3.394 -0.2080  0.1769 -0.2344
12178W        W28312   6.202  17.376   1.895  0.1250  0.0332 -0.2355
12179W        W28313   4.379   2.975   2.081 -0.2142 -0.2953  0.0089
12180W        W28314  15.482  14.024   4.287 -0.2687 -0.1754 -0.0592
12181W        W28315   7.185   0.354   4.826  0.0421 -0.0714  0.0200
12182W        W28316   6.751  12.632   1.418 -0.1167  0.0961  0.1582
12183W        W28317   8.771   6.347   3.369  0.0801  0.1573  0.2006
12184W        W28318  15.536   5.698  14.055 -0.2559 -0.0613 -0.1096
12185W        W28319   8.453  10.933  13.627  0.0494  0.0394 -0.1752
12186W        W28320  18.463  10.168  15.232 -0.1602  0.1285  0.2932
12187W        W28321  10.519   4.877   2.148  0.0038  0.2194 -0.1668
12188W        W28322  10.939   4.437   0.907 -0.4913  0.1055 -0.0830
12189W        W28323   4.563  13.194   0.166  0.2110 -0.0303 -0.2854
12190W        W28324   3.797  15.771   4.197  0.1498  0.1915 -0.0594
12191W        W28325   2.504  12.447  12.853  0.1304 -0.1797 -0.1163
12192W        W28326   9.129  16.727  11.359  0.1539 -0.1159  0.0376
12193W        W28327  13.224   8.979   1.493 -0.4540  0.0396  0.0612
12194W        W28328  15.776   0.973  15.692  0.0408  0.3977 -0.1440
12195W        W28329  17.877   3.853  11.398 -0.1215  0.1161 -0.2551
12196W        W28330   1.105  11.285   3.926 -0.0579  0.0770  0.0151
12197W        W28331   6.158   3.667  11.192 -0.2788  0.4159  0.3576
12198W        W28332   1.359   7.681   2.074  0.1258 -0.0894  0.0831
12199W        W28333  16.595   8.890  12.931  0.0889 -0.1833 -0.0331
12200W        W28334   1.700  12.232  12.509  0.2499 -0.0252  0.4648
12201W        W28335  11.151   2.241   4.911  0.2375  0.0321 -0.2612
12202W        W28336  16.749  11.920  12.428  0.0313 -0.0970  0.0878
12203W        W28337   3.183   9.581  12.558  0.3042  0.3083 -0.0741
12204W        W28338   3.575  11.840  12.083  0.0345 -0.3415 -0.1730
12205W        W28339  12.282   5.251  14.755 -0.1078  0.1111  0.0924
12206W        W28340  14.435   9.866   1.590  0.1012 -0.2795  0.0877
12207W        W28341  13.153   6.258  13.834  0.4924 -0.2979 -0.2895
12208W        W28342  10.969   1.126  14.713  0.1125 -0.0458  0.0778
12209W        W28343   8.399   7.046   4.833  0.1656  0.0799 -0.2113
12210W        W28344   5.249   4.147  15.145  0.2953 -0.4645 -0.0090
12211W        W28345   7.127   8.143   1.606  0.0802 -0.1860  0.0983
12212W        W28346  13.520   8.618  15.469  0.0993 -0.1462  0.0844
12213W        W28347   9.218  13.906  15.809 -0.1410  0.1205 -0.1444
12214W        W28348   9.929  10.959   4.049  0.1714  0.0276 -0.0097
12215W        W28349   7.072   4.049   1.666  0.0562  0.1541 -0.1161
12216W        W28350   1.194   6.359  13.613  0.1608 -0.1148  0.0954
12217W        W28351  16.727  17.438  11.108  0.0054 -0.2068 -0.0993
12218W        W28352   6.833   0.352   3.838 -0.2018  0.1175  0.0946
12219W        W28353   2.168  17.152   3.350  0.0405 -0.1242  0.3136
12220W        W28354   5.944  14.543  13.853  0.0332 -0.1342 -0.1363
12221W        W28355  11.802  16.221  15.565  0.0851 -0.0346 -0.1885
12222W        W28356  16.202   1.278  11.247  0.4447  0.0284  0.1912
12223W        W28357  16.202   2.164  11.849 -0.1846  0.0647 -0.0500
12224W        W28358  15.401  14.547  11.873 -0.0084 -0.1400  0.1558
12225W        W28359  10.148   4.902   4.506 -0.1885 -0.2902 -0.1069
12226W        W28360   3.476  11.376  12.029  0.1626 -0.0521 -0.3007
12227W        W28361   4.049  13.687  13.652  0.0245  0.1588 -0.0091
12228W        W28362   0.017  16.375  14.995  0.2132 -0.1406  0.1999
12229W        W28363   9.435   3.299  14.736 -0.2338  0.1753  0.2939
12230W        W28364  15.550  11.382   1.448 -0.1518 -0.0316 -0.1791
12231W        W28365  12.771   3.307  11.581 -0.3004 -0.0558 -0.1155
12232W        W28366   1.727  17.455   2.056 -0.0517  0.1295 -0.0396
12233W        W28367   0.479  16.979  13.866 -0.0856  0.0759  0.0834
12234W        W28368  11.514   4.649   4.671 -0.0318  0.3238 -0.2101
12235W        W28369  16.804   3.272   2.377  0.1520 -0.3455  0.2366
12236W        W28370  11.827   2.573   5.225  0.2185  0.1240  0.0528
12237W        W28371   3.277   1.566  10.831  0.4538  0.1709 -0.0706
12238W        W28372  17.935   6.760   0.324  0.1468 -0.1165  0.1691
12239W        W28373  10.935   5.912   2.613 -0.1794 -0.1537  0.2077
12240W        W28374   1.798   9.821   3.120  0.0496  0.0138  0.1835
12241W        W28375   9.663  13.697   0.625 -0.3379  0.1587 -0.1763
12242W        W28376   0.299   7.059   5.648 -0.0315  0.4011  0.1725
12243W        W28377   2.026  18.100  15.348  0.1428 -0.0915 -0.0816
12244W        W28378  10.764  12.167   1.871 -0.2550  0.1880  0.1506
12245W        W28379  15.749  17.215   2.358 -0.1119  0.0101 -0.0859
12246W        W28380  13.952   6.484  11.127 -0.0329  0.0139 -0.0117
12247W        W28381   3.595   8.666  14.910  0.1216  0.0313 -0.0683
12248W        W28382  15.076   5.345  14.696  0.1424  0.2020 -0.0322
12249W        W28383  17.887   7.996   2.027 -0.1363  0.0166 -0.2445
12250W        W28384  12.118  10.014  15.413  0.0851 -0.0188 -0.0152
12251W        W28385   2.554   6.453  11.551  0.0252  0.0864  0.2955
12252W        W28386   3.205   8.443   3.158 -0.0649  0.1718 -0.2142
12253W        W28387   8.843   5.769  14.733 -0.0364  0.1053 -0.0767
12254W        W28388   7.294   4.242  14.739 -0.3152  0.0641  0.0984
12255W        W28389  14.322   6.963   4.831 -0.0916  0.3220  0.0841
12256W        W28390   2.903   3.976   1.506 -0.1335  0.2053  0.1619
12257W        W28391  15.468  15.639  12.251 -0.0061 -0.0879 -0.1825
12258W        W28392   8.368   1.244   5.018  0.1502  0.0211  0.0513
12259W        W28393  10.973   3.634  13.373  0.3413  0.1839 -0.3336
12260W        W28394   9.061  15.486  12.052 -0.0519  0.2373 -0.1062
12261W        W28395  10.646   4.885  14.527  0.1041  0.3959 -0.3196
12262W        W28396   2.496  16.614   1.069 -0.0870 -0.0638 -0.1481
12263W        W28397  16.178   9.187  13.478  0.2650 -0.0824 -0.1202
12264W        W28398   2.010  10.508  14.236  0.3672 -0.0050  0.2540
12265W        W28399   3.459  10.279  15.219 -0.2720  0.0917  0.2548
12266W        W28400   8.523  13.963   0.022 -0.0067  0.1025  0.0222
12267W        W28401  14.180  11.982  14.791  0.0329  0.0548  0.0877
12268W        W28402  17.558  15.199   2.211  0.0102  0.1619  0.2153
12269W        W28403   7.933  13.648   2.662  0.0799  0.1136 -0.0196
12270W        W28404   1.397  17.699   4.398 -0.0713  0.0126  0.1056
12271W        W28405  16.176   4.873  12.457 -0.4630 -0.1037 -0.0944
12272W        W28406  16.483  17.674  15.274 -0.0328 -0.0740  0.0875
12273W        W28407   8.492  16.799   3.140 -0.0282 -0.0370 -0.2053
12274W        W28408   6.405   1.920   0.566 -0.1410 -0.0006 -0.3001
12275W        W28409   7.127   7.106  12.854 -0.1621  0.1092 -0.0368
12276W        W28410   5.511   4.808   1.181 -0.3326 -0.1068  0.0038
12277W        W28411  11.254   3.171   2.959 -0.1543  0.1721  0.0129
12278W        W28412  11.805   0.705   3.940 -0.0858 -0.0937 -0.0130
12279W        W28413   8.162   0.795  14.746  0.0117 -0.3147  0.3442
12280W        W28414   7.089   2.831  15.242  0.1065 -0.0379 -0.2880
12281W        W28415  14.836  12.889  11.014 -0.0040 -0.0995 -0.0935
12282W        W28416   1.758   4.053  11.439  0.0195 -0.0498 -0.2267
12283W        W28417  11.604   7.237   4.859 -0.0909 -0.1961 -0.0341
12284W        W28418  16.886   2.215  13.550  0.0911 -0.4310 -0.2476
12285W        W28419  18.406   9.149  15.319  0.3500 -0.2246  0.0199
12286W        W28420   7.575  13.998  12.424  0.0891 -0.0561  0.1573
12287W        W28421   1.272   1.048  12.975  0.1204 -0.1457  0.2416
12288W        W28422  10.055   2.967   1.672 -0.1264 -0.2540 -0.0004
12289W        W28423  15.442   6.550  15.436  0.0101  0.1850 -0.3565
12290W        W28424   6.926   6.953  10.645 -0.2199  0.0297 -0.1090
12291W        W28425  14.208  14.090  11.969 -0.1362  0.3375 -0.1230
12292W        W28426   1.218  15.099  13.047  0.3088  0.0179  0.0085
12293W        W28427   8.467   0.773   1.121  0.2364 -0.2826  0.0756
12294W        W28428  11.235  16.388  13.653  0.4055  0.0011 -0.0537
12295W        W28429  12.877   1.654   4.788 -0.4909  0.2011 -0.0814
12296W        W28430  12.608  14.502  10.979 -0.0854 -0.3719 -0.0247
12297W        W28431  11.409   8.207  14.157 -0.2702  0.3760 -0.0685
12298W        W28432  10.561   2.747  12.303 -0.0885 -0.1775  0.2043
12299W        W28433  11.165   3.940  15.070 -0.2708  0.4655  0.1130
12300W        W28434   8.167  11.070   3.395  0.0778  0.0892  0.0142
12301W        W28435   0.459   1.310   5.275 -0.2014  0.2341 -0.0663
12302W        W28436   2.611  14.260   0.165 -0.2330  0.0979 -0.0670
12303W        W28437  10.958  15.094   3.251  0.2269 -0.1241 -0.1433
12304W        W28438   0.174  15.970   1.272 -0.1848  0.2703 -0.3023
12305W        W28439  16.213  10.729   3.349  0.1728  0.3241 -0.0876
12306W        W28440   0.954  16.693  15.066  0.1213 -0.0235 -0.0876
12307W        W28441  16.907  16.466  12.250  0.5164 -0.1104  0.1925
12308W        W28442  12.636   7.631  15.373  0.2083 -0.0731  0.1368
12309W        W28443   7.775  18.325   2.625  0.0297  0.0699  0.0004
12310W        W28444   3.534   1.530   2.504 -0.1041 -0.0128 -0.1802
12311W        W28445  15.827  17.484  15.766  0.3341 -0.1099 -0.1996
12312W        W28446  17.655  13.424   0.986  0.0533 -0.1977  0.2656
12313W        W28447  17.032   9.780  11.936 -0.3548  0.0540 -0.0185
12314W        W28448   2.221   4.205  11.650  0.0156 -0.2239 -0.2716
12315W        W28449   4.331  16.131   0.016 -0.0052 -0.0197  0.1800
12316W        W28450   6.983  10.114  13.141  0.0600 -0.0443 -0.1335
12317W        W28451  12.649   7.479   3.217 -0.2934  0.0607  0.0609
12318W        W28452   8.753   2.298  14.188  0.1359 -0.0526 -0.2597
12319W        W28453   3.071  14.706   1.219  0.0013 -0.2468 -0.3555
12320W        W28454  17.842   3.449  13.162 -0.1753  0.0360  0.0607
12321W        W28455   6.431   1.575   2.154 -0.3320 -0.3051  0.0605
12322W        W28456   3.330   6.844   1.238 -0.2466 -0.0926 -0.3569
12323W        W28457   5.391  15.349  12.557  0.3445 -0.1132 -0.1761
12324W        W28458  13.330  13.914   1.767 -0.2816 -0.0360 -0.0554
12325W        W28459   7.471  12.656  13.873  0.0297  0.1443 -0.0241
12326W        W28460   9.962  14.152   0.554 -0.0899 -0.1199 -0.1180
12327W        W28461  10.084   7.548   0.426 -0.1694 -0.0401 -0.0261
12328W        W28462   2.721  17.235   3.592  0.2334 -0.0184 -0.1018
12329W        W28463  11.260   4.155   4.744 -0.1383  0.2916  0.0574
12330W        W28464  16.325   5.714   1.242  0.1141  0.1872 -0.1341
12331W        W28465   2.927   4.604  11.390 -0.0850  0.2001 -0.1419
12332W        W28466  11.500   9.702   2.892  0.1591  0.0967  0.0155
12333W        W28467  11.464   1.448  11.767 -0.1657 -0.2815 -0.2045
12334W        W28468  17.662  16.675  11.771 -0.1619  0.0753 -0.0689
12335W        W28469   1.363  14.308  10.657 -0.1270 -0.0347  0.0650
12336W        W28470  14.548  13.462   5.881  0.0714  0.0752  0.0950
12337W        W28471   6.948   7.704  15.341 -0.3208  0.1326  0.0680
12338W        W28472  15.641   0.845   2.913 -0.0694 -0.2238  0.1793
12339W        W28473  10.222  12.422  14.802 -0.0437  0.2247 -0.2753
12340W        W28474  15.429   4.882   3.400  0.2020  0.0673 -0.0473
12341W        W28475  11.338   3.058   2.071  0.1992 -0.1282  0.1636
12342W        W28476   8.240   1.124   0.766 -0.2327  0.0238 -0.5126
12343W        W28477  15.750   8.576   3.497 -0.1187 -0.0154 -0.0405
12344W        W28478   2.899   0.784  14.886  0.0934  0.1821  0.3846
12345W        W28479  17.598  18.317   4.705 -0.1114  0.1369 -0.1197
12346W        W28480   0.389  16.885   2.046 -0.0648 -0.0862 -0.1422
12347W        W28481  14.316  14.405  10.339  0.2921  0.2510  0.2913
12348W        W28482  14.744  16.477  11.135 -0.1608 -0.2067  0.1172
12349W        W28483  16.976  17.317  14.139 -0.0043  0.4011 -0.0854
12350W        W28484  10.337  14.464   6.393  0.1690  0.1173 -0.1827
12351W        W28485   6.736   3.027   5.033 -0.0789  0.1507  0.1538
12352W        W28486  13.336   8.483   1.336 -0.1265 -0.2805  0.0459
12353W        W28487   8.518  11.134   5.078 -0.0292 -0.2031  0.1239
12354W        W28488   6.130   1.219   0.857 -0.3534 -0.0877  0.0331
12355W        W28489   7.125   4.037  11.753  0.2946  0.0860 -0.2733
12356W        W28490  11.814   5.347   1.768  0.1212 -0.0130 -0.2233
12357W        W28491   7.449   2.694  15.697 -0.3344 -0.0149 -0.0103
12358W        W28492   2.036   1.907  13.670  0.1079 -0.2471  0.3301
12359W        W28493   1.661   4.027   4.994  0.1013  0.1273  0.2040
12360W        W28494   9.827  11.131   2.840  0.0483 -0.0638  0.1324
12361W        W28495   5.679  15.072  11.797  0.0444  0.2765  0.2544
12362W        W28496  12.781  15.833  11.390 -0.1033  0.3837 -0.2052
12363W        W28497   5.998  16.427  12.100 -0.0974  0.0159 -0.0092
12364W        W28498   9.022  13.666  13.710  0.1838  0.0455  0.1104
12365W        W28499   6.782  18.424   6.549 -0.3045  0.0928 -0.2065
12366W        W28500  13.144   4.143   5.557 -0.3958  0.0713  0.0016
12367W        W28501   3.310   1.789   4.377 -0.1354  0.3089  0.2459
12368W        W28502   4.221  15.951  13.333  0.3059  0.0799  0.1920
12369W        W28503  15.336  16.471   2.030  0.0886 -0.0952 -0.1923
12370W        W28504  11.455  13.548  15.786 -0.1241 -0.3257  0.0869
12371W        W28505  16.203  18.423  13.700  0.3396 -0.0686  0.0185
12372W        W28506  17.067   2.954   1.066 -0.1807  0.0853  0.1730
12373W        W28507   6.688   4.053   4.207 -0.0433  0.1028  0.0995
12374W        W28508   0.097  10.508  11.577  0.1761  0.0251  0.1802
12375W        W28509   2.184   5.472  14.124 -0.0100 -0.2983  0.0486
12376W        W28510   0.879   9.902  15.013  0.1962 -0.0412 -0.1449
12377W        W28511  16.193  15.425   3.595 -0.1785 -0.3269  0.0076
12378W        W28512   0.953  12.914  12.326  0.1092 -0.2463  0.0574
12379W        W28513  13.531  11.300   4.052 -0.1925  0.2177  0.1231
12380W        W28514  11.915   9.811   1.919  0.0060 -0.1363  0.0492
12381W        W28515  16.531  13.937  15.794  0.0060  0.0765  0.0554
12382W        W28516   6.141   3.079   1.513 -0.2208 -0.0415  0.0365
12383W        W28517   3.951   5.754   1.005  0.0886  0.3041 -0.0225
12384W        W28518   7.657   9.598  13.051 -0.0526 -0.2220  0.0196
12385W        W28519  13.107  15.948   4.980 -0.0783 -0.2043  0.0744
12386W        W28520  16.595  16.417  11.210 -0.2606 -0.0908  0.1239
12387W        W28521   9.853  16.843  14.084  0.1217 -0.1095 -0.2278
12388W        W28522  15.675   3.001  15.362  0.2697 -0.0166 -0.0135
12389W        W28523  11.899  14.357  11.722  0.3125  0.1441  0.1840
12390W        W28524   7.483   7.090   0.766  0.1075  0.2998  0.2040
12391W        W28525   9.772  18.087   3.372  0.1583  0.1029 -0.1839
12392W        W28526   8.399  17.727   3.954 -0.1169  0.0701  0.2801
12393W        W28527   6.564  15.151  13.060  0.0659 -0.1622 -0.0498
12394W        W28528   6.165  14.608   9.661 -0.2219  0.2826  0.1040
12395W        W28529   0.539   6.214  12.685  0.0240 -0.0311  0.2580
12396W        W28530  13.611  17.273   0.712  0.2882 -0.0600 -0.2002
12397W        W28531  11.601   8.879   1.895  0.0254  0.0942  0.0633
12398W        W28532  16.950   9.810  13.332 -0.2712  0.0002 -0.3758
12399W        W28533   4.635  14.465   2.682  0.1956 -0.2849 -0.0494
12400W        W28534  15.093   8.963   2.893 -0.0355  0.0083 -0.1204
12401W        W28535   0.704   5.860   4.069  0.5110 -0.0807  0.0850
12402W        W28536   2.225   9.384   0.517 -0.3696 -0.2216 -0.1820
12403W        W28537  14.993  16.764   1.288  0.0174 -0.1876  0.0126
12404W        W28538  16.225  11.771  11.564 -0.3240  0.0826  0.3910
12405W        W28539  17.682   5.993   2.343 -0.0957 -0.0275  0.1716
12406W        W28540   3.134   9.817  15.101 -0.1592  0.1055 -0.2003
12407W        W28541  15.757   1.448  15.304  0.2077  0.0485 -0.1543
12408W        W28542   8.858  10.197   6.105 -0.1424 -0.1934  0.1757
12409W        W28543   1.450   3.204   3.450  0.2006  0.2041 -0.2372
12410W        W28544   4.238  17.492  15.578 -0.4238 -0.1832 -0.1716
12411W        W28545   1.217   4.492   3.477  0.1137 -0.0455  0.0576
12412W        W28546  16.835  11.134   4.780 -0.0024  0.0608 -0.0479
12413W        W28547   9.594  15.883  14.041  0.0246  0.1779 -0.3003
12414W        W28548   3.748   0.211  15.330  0.1344 -0.0614  0.0702
12415W        W28549   6.984  12.938  13.884  0.3249  0.0058 -0.3118
12416W        W28550   3.960   6.555  11.218 -0.1038 -0.2146  0.4716
12417W        W28551  14.996   5.430   2.717 -0.1522 -0.2891 -0.1012
12418W        W28552   2.653   6.915  13.592 -0.1175  0.1223  0.3352
12419W        W28553   3.353  12.421  14.298  0.0998  0.2035 -0.0042
12420W        W28554   3.499  12.328   1.378  0.0851  0.0751 -0.1237
12421W        W28555  12.809  10.032   3.581  0.0640 -0.0351  0.4969
12422W        W28556   1.794  12.648   4.143  0.0352 -0.1214 -0.0774
12423W        W28557  16.537  14.002  13.140  0.0194 -0.1786  0.0112
12424W        W28558   0.083  11.906  11.144  0.0998  0.4155 -0.3676
12425W        W28559  12.227  17.710   4.668  0.0476  0.1612 -0.2030
12426W        W28560   5.738  12.248   2.994  0.0562 -0.0666  0.0477
12427W        W28561   3.889  12.324  14.371  0.2501  0.3381  0.0706
12428W        W28562  10.706   9.131  13.831  0.1137  0.0798  0.0518
12429W        W28563   5.256   9.326   2.639 -0.2999 -0.0314 -0.2110
12430W        W28564   7.552  15.507   5.426  0.3759 -0.1371 -0.0764
12431W        W28565   5.842   4.367   0.320  0.2686  0.0196 -0.1252
12432W        W28566   6.717  12.259   1.811  0.1312 -0.1910  0.1354
12433W        W28567  13.356  13.936   2.668  0.1090  0.0834  0.2956
12434W        W28568   4.401   9.418  15.515 -0.3085 -0.0842  0.0009
12435W        W28569   0.049   7.447   0.070 -0.0836 -0.0880 -0.0477
12436W        W28570   4.887   3.332  13.016  0.0178 -0.1530 -0.0617
12437W        W28571  13.556  10.939   4.431 -0.0776 -0.1639  0.4092
12438W        W28572   1.543  11.100  13.805  0.1284  0.1924 -0.1046
12439W        W28573   0.640  11.292  15.108  0.1906  0.0851  0.2795
12440W        W28574   5.078   0.464  13.449  0.1409  0.2953 -0.2319
12441W        W28575   0.654  13.389  11.742  0.1258 -0.2239 -0.3901
12442W        W28576   7.967   1.121   1.789  0.0917  0.0293 -0.2408
12443W        W28577  12.163  11.196   5.001 -0.2299  0.1548 -0.4949
12444W        W28578   8.830  17.259  15.048 -0.0736 -0.1989  0.1053
12445W        W28579   9.559   7.773  12.273 -0.2148 -0.0870 -0.2158
12446W        W28580  17.235   7.885   4.220 -0.2521  0.1602  0.3468
12447W        W28581   3.317  17.378   2.995 -0.4479 -0.0878 -0.3182
12448W        W28582   5.133  10.583   3.220  0.0509 -0.1246 -0.1023
12449W        W28583  17.552  14.656  11.442 -0.2006 -0.1101 -0.3403
12450W        W28584   3.436  12.021  13.932 -0.2827 -0.1940 -0.3321
12451W        W28585   4.090   8.065  12.386  0.0002  0.2161 -0.0227
12452W        W28586   5.563  10.896   0.148  0.2240 -0.5212  0.1908
12453W        W28587   9.367   7.554  14.406  0.0964  0.0137  0.2111
12454W        W28588   2.072  15.434  12.983  0.0241  0.2427  0.1884
12455W        W28589   1.934   5.278  10.912 -0.0200  0.3135 -0.0949
12456W        W28590  10.893  18.270  12.628  0.1589 -0.2017  0.0535
12457W        W28591  10.544   7.409  14.215  0.2006  0.0401  0.1711
12458W        W28592   2.409  18.306  12.802 -0.0833  0.1697 -0.2411
12459W        W28593   6.811   0.834   3.591 -0.0754  0.0779  0.0126
12460W        W28594  14.951   3.995  14.685 -0.1265 -0.1615 -0.0294
12461W        W28595   4.717  17.133  11.977 -0.0629  0.3652 -0.0873
12462W        W28596  16.201   7.511   0.328  0.0869 -0.0053 -0.0279
12463W        W28597   0.695  14.685  12.489  0.1905  0.0754  0.1943
12464W        W28598   2.156   4.099  14.323 -0.0939 -0.0580  0.1719
12465W        W28599   8.394   7.989  12.771  0.0841  0.0180  0.1967
12466W        W28600   0.592  16.992  11.854 -0.1890  0.0523  0.1691
12467W        W28601   1.846   5.195   0.410 -0.3053 -0.3425  0.0633
12468W        W28602  11.504   6.013  14.135  0.3487  0.2651 -0.0010
12469W        W28603  10.301   5.844   3.336 -0.2552  0.0467  0.0754
12470W        W28604  17.519  16.509   4.522 -0.1383  0.2323  0.0890
12471W        W28605  18.092  13.382   5.944 -0.0956 -0.1843  0.0209
12472W        W28606  16.104   4.955   4.073  0.0530 -0.0235  0.3741
12473W        W28607  16.044   9.375  11.379 -0.1741 -0.0603 -0.1463
12474W        W28608  14.849   0.620  11.757 -0.0531  0.0821 -0.1147
12475W        W28609   7.419  12.657   2.554  0.2003  0.2400  0.1362
12476W        W28610   1.800   8.016  11.483 -0.1063 -0.2396  0.4258
12477W        W28611   6.420   2.410  12.471  0.1006 -0.1088 -0.2126
12478W        W28612   2.893   5.503   2.815  0.1407 -0.4088 -0.1094
12479W        W28613   4.571   7.941   3.733 -0.1904 -0.1681 -0.2792
12480W        W28614  17.604   3.726  13.536 -0.3733  0.2159 -0.1279
12481W        W28615   8.184   8.401  14.090  0.0556  0.0381  0.2359
12482W        W28616   8.190  11.555  11.277 -0.3025  0.0302  0.0715
12483W        W28617   0.702   8.001   3.873 -0.0706  0.0461 -0.0571
12484W        W28618  11.807  10.582   2.878  0.2073  0.0007  0.0883
12485W        W28619   6.562  14.662  13.124  0.0834  0.1922 -0.0438
12486W        W28620  17.428   1.546  13.337 -0.3350 -0.1466  0.2180
12487W        W28621   3.393  11.058  14.900  0.1529  0.0643  0.0908
12488W        W28622  16.662   3.074  13.982 -0.3766  0.1257 -0.2607
12489W        W28623  10.231  15.463  11.889 -0.2198 -0.2668  0.1253
12490W        W28624   9.594  17.036   3.947 -0.1221  0.1387  0.1500
12491W        W28625   2.895   2.784   3.395  0.0896  0.3527 -0.1562
12492W        W28626   5.030  16.071  12.028 -0.0802 -0.0730 -0.1188
12493W        W28627   3.845  16.016  13.034  0.2845 -0.2144 -0.1103
12494W        W28628   6.327   2.273  12.999 -0.2716  0.0584 -0.0604
12495W        W28629  14.186  14.679   5.274  0.0671 -0.0592 -0.0895
12496W        W28630   8.458  17.648  12.497  0.1179 -0.2735 -0.0078
12497W        W28631  15.848  12.188   4.728  0.0480  0.0730 -0.4792
12498W        W28632  10.049  17.930   0.096  0.1262  0.1581 -0.1643
12499W        W28633  16.162   9.483   2.307  0.0195 -0.0229 -0.1205
12500W        W28634  14.687   5.280  12.557  0.2954  0.0073 -0.0312
12501W        W28635  15.812  10.442  15.492 -0.1797  0.2211  0.0941
12502W        W28636  18.063   5.396  15.184 -0.1877 -0.5720 -0.0978
12503W        W28637  12.483  15.947   2.057  0.2806 -0.1430  0.0632
12504W        W28638  10.002   0.821  14.821 -0.0052  0.1331  0.0382
12505W        W28639   8.156   9.012   0.151  0.1472 -0.0255  0.0442
12506W        W28640   6.439  10.482  13.498  0.0775 -0.0811  0.2858
12507W        W28641  10.237   1.828   0.165  0.1872  0.2363 -0.0029
12508W        W28642  10.160  12.467   2.440 -0.1120 -0.2387 -0.0359
12509W        W28643  17.571  14.474   0.754  0.1371 -0.1285 -0.1186
12510W        W28644   3.806   0.680   3.580 -0.1862  0.0087  0.0274
12511W        W28645   6.052  16.592   1.629  0.0442 -0.0003  0.2426
12512W        W28646  12.101  16.480  14.968 -0.1099 -0.3370  0.0626
12513W        W28647   8.188   9.954   1.466 -0.0679  0.0385  0.0155
12514W        W28648   8.743  11.862  12.080  0.0652 -0.1514  0.1187
12515W        W28649  15.436   3.386   3.247 -0.3089 -0.1427  0.0598
12516W        W28650   4.987   6.418  13.735  0.2782  0.0237 -0.2133
12517W        W28651   5.612  11.244   2.474  0.0869  0.3230  0.0507
12518W        W28652   3.622   7.301   1.007  0.1384  0.1187  0.0476
12519W        W28653  16.991   7.996   1.542 -0.0775 -0.1110  0.1667
12520W        W28654  11.966  15.614   2.569 -0.0830  0.1521  0.0544
12521W        W28655  14.628  15.120  13.939  0.0566 -0.1880  0.0323
12522W        W28656  12.620   6.695  13.627  0.1224  0.1142 -0.3069
12523W        W28657  16.996  17.944  11.872  0.0153  0.0088 -0.0770
12524W        W28658  11.218   1.817  11.498 -0.1810 -0.0329  0.0602
12525W        W28659   9.504   3.935  11.944  0.0163  0.2310  0.1274
12526W        W28660   2.499   1.667  11.800  0.0534  0.1234  0.1665
12527W        W28661   0.275  15.947  15.379  0.0170 -0.1199 -0.1217
12528W        W28662  16.378  16.605  14.042  0.0071  0.2127 -0.0753
12529W        W28663  11.570  10.783  13.194  0.0019  0.1665  0.0513
12530W        W28664   4.827   5.898  14.637 -0.1051  0.0548 -0.0100
12531W        W28665   6.010   9.511   0.306 -0.0973  0.2225  0.2257
12532W        W28666   9.382   9.949  11.781  0.2781  0.0179 -0.1050
12533W        W28667   1.464   4.522   0.234 -0.3137 -0.2104 -0.1630
12534W        W28668  10.322   5.186   1.002  0.1056 -0.1879 -0.0260
12535W        W28669  10.407   6.662   2.786 -0.1313 -0.1802  0.1950
12536W        W28670  14.636  17.816  14.372 -0.0098  0.1860 -0.1490
12537W        W28671  16.292  13.197   4.589  0.0629 -0.2079  0.5197
12538W        W28672   1.656  17.751   0.373  0.1445 -0.0498  0.1520
12539W        W28673  17.740  16.768  10.086  0.0524  0.1374  0.0384
12540W        W28674   2.463   8.848   5.579 -0.3001  0.0301  0.4530
12541W        W28675  18.086   3.870   0.840 -0.0401 -0.1069 -0.1596
12542W        W28676   8.397  11.186   2.917 -0.0176  0.1865 -0.0648
12543W        W28677   8.337  17.316  12.140 -0.1458  0.0789 -0.0821
12544W        W28678  17.838   3.251  14.521 -0.1013  0.1403 -0.2214
12545W        W28679  10.508  11.284  13.804  0.2225 -0.0544 -0.0133
12546W        W28680   3.754   4.626   4.368 -0.0727 -0.1056 -0.0509
12547W        W28681  11.070   5.667   2.194 -0.1175  0.0280  0.1706
12548W        W28682   2.554   8.069   2.020  0.4958 -0.2392  0.1118
12549W        W28683   8.694   2.685   3.828  0.0620  0.2322 -0.1027
12550W        W28684   2.489   9.148  15.120 -0.2017 -0.0888  0.2347
12551W        W28685  11.538   3.452  12.849  0.0073  0.1517  0.2232
12552W        W28686   8.969  11.785   3.394  0.0165  0.4213 -0.0493
12553W        W28687   1.820   4.119  12.021  0.0632 -0.1959  0.3156
12554W        W28688   8.003   8.249  15.252  0.3590  0.0483  0.0799
12555W        W28689   1.205   8.631   5.202  0.0525 -0.1847 -0.1147
12556W        W28690   8.838   2.984  15.763 -0.0911  0.2793 -0.2130
12557W        W28691   8.250  16.080  13.800 -0.0323  0.1987 -0.0522
12558W        W28692   6.625  12.672  13.527 -0.0335 -0.1576  0.2740
12559W        W28693  13.059   5.889   5.955  0.0267  0.0499  0.1377
12560W        W28694   2.282   7.697  13.973  0.1585  0.0187  0.2095
12561W        W28695  11.275   1.997  13.348 -0.1606  0.2179  0.0281
12562W        W28696  11.287   6.127   3.629  0.2375  0.1558 -0.1250
12563W        W28697   9.656   5.357  14.257  0.0228 -0.1182 -0.0173
12564W        W28698   4.322   2.860  10.119 -0.1837  0.0797 -0.0197
12565W        W28699   6.172   5.492  12.401  0.0264 -0.0292 -0.0641
12566W        W28700   3.518  11.983  14.471  0.0441 -0.0884 -0.1683
12567W        W28701  15.788   9.680   1.856 -0.1833  0.1211  0.1105
12568W        W28702   7.230   4.064   4.030  0.0800 -0.0992  0.1081
12569W        W28703   0.489  14.263  12.202 -0.0991 -0.0715  0.2279
12570W        W28704   9.237  10.315   0.944  0.1138  0.2088  0.1794
12571W        W28705   9.522  13.857  11.121  0.0967  0.1022 -0.0490
12572W        W28706   4.549  14.347  15.178 -0.1507  0.2260 -0.3133
12573W        W28707   4.942  11.393  13.137 -0.0300  0.0767  0.0483
12574W        W28708   1.593   1.107  11.650  0.0320  0.0632 -0.1209
12575W        W28709  17.505  18.351   0.179  0.3457  0.1250  0.1178
12576W        W28710   9.938   7.694  12.689 -0.2366 -0.1485  0.0060
12577W        W28711   1.304   4.630  14.943 -0.0482 -0.2091  0.0054
12578W        W28712   8.757  18.227  15.135  0.3125  0.1465  0.3078
12579W        W28713   0.095   5.430   1.118  0.0611  0.4590  0.2590
12580W        W28714  10.649  15.436  11.603 -0.3772  0.0142  0.2734
12581W        W28715   3.586   1.881   0.595  0.2055  0.0021  0.1342
12582W        W28716  10.213   5.357  13.771 -0.3515 -0.3898  0.2319
12583W        W28717  10.386  16.003   5.574  0.2500  0.4052 -0.0508
12584W        W28718  17.156   9.553  12.815  0.0540  0.0834 -0.1217
12585W        W28719  11.299  12.266   2.107 -0.0538  0.3866 -0.1585
12586W        W28720  17.179  14.162   0.792  0.0902  0.1963  0.1087
12587W        W28721   4.337   2.274  11.714  0.3369 -0.2220  0.3705
12588W        W28722  17.970   3.902   2.864  0.0785 -0.1923  0.0679
12589W        W28723   9.615   9.731   2.505 -0.3498 -0.0567  0.0555
12590W        W28724  13.354  16.985   2.050 -0.0658  0.0472  0.2685
12591W        W28725   4.490  17.379   1.503 -0.1035 -0.0153  0.2048
12592W        W28726  12.634  16.820  11.377  0.0676 -0.0508 -0.1487
12593W        W28727   8.255   1.529   1.899 -0.2724  0.0843  0.1036
12594W        W28728  14.764   3.107  12.490  0.2528  0.3548 -0.1665
12595W        W28729   2.617  12.581   1.468 -0.2332  0.1532 -0.0932
12596W        W28730   7.099   7.512   5.372  0.0525 -0.5218 -0.1012
12597W        W28731   5.573   4.757  14.019  0.2748  0.0074  0.1677
12598W        W28732   9.204  12.484   4.006 -0.2868  0.2343 -0.1648
12599W        W28733  12.878   9.963  11.106 -0.1370 -0.0306 -0.0506
12600W        W28734  16.990   3.751   2.535  0.2127 -0.2043  0.0775
12601W        W28735  13.112   1.592  14.129  0.1853  0.1705 -0.0948
12602W        W28736  12.719  16.907  12.563 -0.2752  0.1787 -0.1531
12603W        W28737   9.727   1.883  14.909  0.2362 -0.0963  0.0111
12604W        W28738  15.352   1.218   2.836  0.3229 -0.4660 -0.0155
12605W        W28739  16.820  17.437  12.625  0.0264  0.2942  0.0716
12606W        W28740   0.847   0.701   4.556  0.2492 -0.0215 -0.4558
12607W        W28741  17.996  12.334  14.680 -0.0607  0.0822 -0.1190
12608W        W28742   5.283   0.004  11.739  0.0852  0.1314  0.0293
12609W        W28743   7.428  12.272   3.011 -0.0807  0.0732 -0.1892
12610W        W28744  18.034   7.435   3.397 -0.2591  0.1960  0.1632
12611W        W28745  11.876  13.163  15.717  0.1194  0.0925 -0.0905
12612W        W28746  18.172  15.940   3.283 -0.1217  0.2604 -0.0219
12613W        W28747  15.940  10.646   4.204 -0.0897 -0.1507 -0.0214
12614W        W28748   2.174  13.084   3.876 -0.1973 -0.3760 -0.1467
12615W        W28749   2.145  17.220   2.286  0.2508 -0.3121  0.0656
12616W        W28750  17.570   8.949   0.288 -0.3188 -0.1151  0.0762
12617W        W28751  16.154  16.782   4.119  0.0538  0.2974 -0.1342
12618W        W28752  14.649   9.296  14.331 -0.1514  0.2760 -0.1602
12619W        W28753  14.762  11.373   4.394 -0.1800  0.2743  0.0735
12620W        W28754  16.919  17.699   0.669  0.1701 -0.1329  0.0046
12621W        W28755  14.858   2.895  11.964  0.2124 -0.0460  0.0736
12622W        W28756  12.344  14.110  11.773  0.1104 -0.1444 -0.0725
12623W        W28757   2.585  11.425   4.088  0.1635  0.2735 -0.2051
12624W        W28758   2.961   0.494  13.046  0.0538 -0.1227 -0.1533
12625W        W28759   1.325  10.370   4.968  0.1235 -0.0349 -0.2659
12626W        W28760   0.497  11.821  15.359  0.0561  0.1834 -0.2389
12627W        W28761   4.077   2.168   1.586 -0.1856 -0.0955 -0.0257
12628W        W28762  11.553   1.848   1.452 -0.1400  0.0057 -0.2396
12629W        W28763   0.400   9.037  13.189  0.2014 -0.0356 -0.0753
12630W        W28764   6.706   4.996   2.166 -0.0746 -0.0397  0.1642
12631W        W28765  18.046   5.849  12.901 -0.1668  0.0352  0.1216
12632W        W28766   2.735   5.715  11.091  0.1223 -0.1165  0.1412
12633W        W28767  15.291   0.162   1.122  0.1104 -0.1575  0.0228
12634W        W28768  11.097  16.447   2.365  0.0565 -0.2150 -0.0625
12635W        W28769   2.918  13.069   2.063 -0.3262 -0.0708  0.1390
12636W        W28770  10.943  13.880   3.363  0.0375  0.2645  0.2680
12637W        W28771   1.786  12.015   2.477 -0.2801  0.3824  0.1512
12638W        W28772   6.855   4.010   5.260  0.1801  0.4352  0.2688
12639W        W28773  10.481  13.535   1.103  0.2120  0.1135  0.0943
12640W        W28774   7.456  11.862  14.355  0.2492 -0.0149 -0.0736
12641W        W28775   7.386   4.201  12.761  0.0338  0.0615  0.2261
12642W        W28776  14.425   5.402   1.989 -0.0506 -0.0713  0.4065
12643W        W28777  18.324   4.006  12.449 -0.2365  0.0023 -0.0088
12644W        W28778   4.349   1.894  12.716 -0.2062 -0.0881 -0.0325
12645W        W28779  11.468  10.198   4.737 -0.1891 -0.2499  0.0265
12646W        W28780  11.779   7.089   1.485 -0.2483  0.1659 -0.0397
12647W        W28781   1.899   6.736  15.422  0.0109 -0.2250  0.0630
12648W        W28782   1.625  10.340  12.674  0.1253  0.0980 -0.0308
12649W        W28783  13.820   0.047   5.043 -0.0580  0.0762 -0.1019
12650W        W28784   6.527  12.953  10.953  0.0556  0.1195  0.0299
12651W        W28785   5.236   1.189   5.055 -0.1615  0.0373 -0.2608
12652W        W28786  17.374   6.932   0.858 -0.2073  0.1526  0.1596
12653W        W28787  18.297   1.255   3.572 -0.0708  0.2283 -0.0444
12654W        W28788  17.906   3.032   0.939  0.2151 -0.0270 -0.3395
12655W        W28789   9.624   5.936  13.602 -0.1362  0.0256 -0.4171
12656W        W28790  10.332  10.535   5.002 -0.0685 -0.2754 -0.2988
12657W        W28791   9.089   7.413   1.309  0.0035 -0.0817  0.1661
12658W        W28792   4.749   0.993   2.063  0.4453 -0.0378  0.0847
12659W        W28793  10.654   0.328  11.835  0.0746 -0.1559 -0.0846
12660W        W28794  14.424  13.850   0.104  0.0045  0.2360  0.2444
12661W        W28795  11.984   5.202   2.194 -0.1855  0.0520  0.2119
12662W        W28796   2.183  11.925   5.297 -0.0343  0.0173  0.1816
12663W        W28797   1.108  11.470  11.444  0.0510 -0.2108  0.1064
12664W        W28798   5.029   5.512   2.460  0.2056  0.0010 -0.1102
12665W        W28799  10.332   9.865   5.525  0.3473  0.1024  0.1538
12666W        W28800   4.100  17.071  11.382  0.1673  0.4057  0.1548
12667W        W28801  14.049  14.242   2.762 -0.1154  0.0986 -0.2524
12668W        W28802   4.139  10.935   0.714  0.2412  0.0175  0.0508
12669W        W28803  16.395  11.587   3.694 -0.2985 -0.1859  0.1848
12670W        W28804   9.098   8.376   4.793  0.0671  0.2467 -0.1037
12671W        W28805   5.135   5.347   0.369  0.3847 -0.3497  0.2183
12672W        W28806   6.414   9.332   6.024 -0.0023  0.1604  0.0973
12673W        W28807   8.247   0.968  11.363  0.0935 -0.1032 -0.2437
12674W        W28808   3.574  11.629   3.600  0.0243  0.0657 -0.0185
12675W        W28809  18.292   9.694   2.238 -0.1952  0.0243 -0.1419
12676W        W28810  14.507   0.001  13.962 -0.0696  0.0707  0.1965
12677W        W28811   4.273   0.177  13.037  0.2912  0.0950  0.2098
12678W        W28812   9.395  11.728  11.986  0.2579  0.1101  0.0079
12679W        W28813   3.187  14.170   5.697  0.3977 -0.0653 -0.1529
12680W        W28814   7.453  15.652  15.327  0.2326  0.1980 -0.0811
12681W        W28815   4.219   2.069   2.552 -0.0598  0.0285 -0.1318
12682W        W28816   6.037   9.913   5.524  0.3007  0.0410 -0.0312
12683W        W28817  10.727   3.549  13.978 -0.0259 -0.2948  0.0520
12684W        W28818   2.892  14.277   0.965  0.1042 -0.1810  0.0730
12685W        W28819   8.835  12.360   5.586  0.2162  0.0405 -0.0517
12686W        W28820  13.717   1.699   1.765  0.2074  0.1066  0.1324
12687W        W28821  16.913  12.802   0.713 -0.1868 -0.1633  0.2671
12688W        W28822  14.875  13.504   5.047 -0.2218 -0.1007 -0.0658
12689W        W28823   4.207  12.191   1.113  0.0374  0.0457  0.0151
12690W        W28824  11.768  17.539   2.008  0.0136 -0.2219  0.1258
12691W        W28825  10.349   6.229  10.426 -0.0368 -0.0632  0.0994
12692W        W28826   5.530   8.458  11.126  0.2929 -0.0133 -0.3716
12693W        W28827   6.111   6.911   2.522  0.0465 -0.1674 -0.0060
12694W        W28828  12.711   0.324   2.143 -0.1663 -0.4462  0.2275
12695W        W28829   7.297   3.031  12.579 -0.1231 -0.0362  0.0068
12696W        W28830  17.125  15.358  15.885 -0.2088  0.0135  0.2163
12697W        W28831  10.327  14.239   5.069  0.0008 -0.0421 -0.2163
12698W        W28832  11.890   2.018  15.024 -0.2385  0.3209  0.0224
12699W        W28833   6.814  17.171  14.250  0.2704  0.0680  0.1598
12700W        W28834  15.735  18.272  12.793 -0.1194  0.1366 -0.0535
12701W        W28835  11.115  15.316  13.906  0.0786  0.2491 -0.0812
12702W        W28836  16.242   8.418  10.491  0.0864 -0.1770 -0.1158
12703W        W28837   4.259  15.161   3.127  0.0278 -0.0024 -0.2003
12704W        W28838  17.365   5.801  14.572 -0.1234 -0.1240 -0.1399
12705W        W28839   4.532   0.644   4.849 -0.0031 -0.1922 -0.0623
12706W        W28840   0.035   8.928   0.881 -0.0149 -0.0357  0.0428
12707W        W28841   3.599   0.535   4.319  0.0350 -0.2870 -0.0780
12708W        W28842   5.654   8.071   3.561  0.0791 -0.2260 -0.2949
12709W        W28843  10.205   4.150   1.207 -0.0697 -0.0518 -0.0463
12710W        W28844  17.248  17.847   4.006  0.0638  0.0358  0.1843
12711W        W28845  11.448   8.530   5.165  0.1775 -0.0073  0.0297
12712W        W28846  10.672   5.729   4.240  0.0101  0.3518 -0.1017
12713W        W28847  10.052   4.718  15.252 -0.3127  0.3205 -0.1393
12714W        W28848   6.081   8.760   3.913  0.0081  0.3226 -0.1442
12715W        W28849   7.331  18.032  11.390  0.0267  0.3148  0.2480
12716W        W28850  18.321   7.323   2.976  0.0442  0.1113 -0.0305
12717W        W28851  10.595  15.017  12.714 -0.1582  0.1142 -0.2962
12718W        W28852  18.405  14.038   2.113 -0.1897  0.0450 -0.0533
12719W        W28853  12.471  12.717   2.300 -0.0280 -0.1202 -0.1977
12720W        W28854   2.336   0.106   3.774  0.1877 -0.1118 -0.2102
12721W        W28855   1.366   5.966  15.753 -0.3522 -0.1081  0.2973
12722W        W28856   6.094  11.522  15.568  0.1722  0.2595 -0.1815
12723W        W28857  18.348  12.026   1.518  0.1834  0.3445  0.3679
12724W        W28858  14.282  16.965  10.410 -0.1965 -0.1725  0.0317
12725W        W28859  12.452   1.175  12.236  0.1620  0.2115 -0.0839
12726W        W28860  13.361  15.798  14.248 -0.1897 -0.1377 -0.0025
12727W        W28861  12.751   9.800  15.605 -0.3109  0.0514  0.1799
12728W        W28862  12.181   4.175  13.237 -0.1011 -0.0370  0.2413
12729W        W28863  17.455  15.031  10.999 -0.0134 -0.2057 -0.1100
12730W        W28864  14.199  15.265   1.590 -0.0081  0.4156 -0.0647
12731W        W28865   4.625   2.973   3.081 -0.0446  0.3744  0.0621
12732W        W28866  14.134   2.330  15.427 -0.0011 -0.0873 -0.0499
12733W        W28867  13.369  15.569   3.825 -0.1504  0.1308 -0.1344
12734W        W28868   6.590  16.313   5.729 -0.0638 -0.0257  0.0528
12735W        W28869   1.109  13.179  11.897  0.2239  0.0235 -0.1079
12736W        W28870  17.572  17.401   1.772 -0.2804  0.1836 -0.1322
12737W        W28871  13.709   8.355  12.133  0.3573 -0.1282  0.1130
12738W        W28872  13.936   9.819   0.626  0.1931 -0.1014 -0.2390
12739W        W28873   2.082   6.943  13.591  0.1350  0.4391  0.2895
12740W        W28874   1.623  11.172   1.656 -0.3654 -0.0189  0.3014
12741W        W28875  12.547   2.807  11.620  0.0556  0.0189  0.3557
12742W        W28876  14.187  17.180  13.544 -0.1266 -0.2630  0.0623
12743W        W28877   5.454  10.690   0.591 -0.0591 -0.1813  0.3521
12744W        W28878  16.199  15.274   4.054 -0.0857  0.0297 -0.0741
12745W        W28879  15.893  11.461  13.871 -0.0444  0.0974 -0.1983
12746W        W28880  12.983   9.097  12.935 -0.0271 -0.1491  0.1739
12747W        W28881   1.683  10.779  14.466  0.4349 -0.0606 -0.1522
12748W        W28882   3.364   9.313   2.249 -0.1087  0.1388 -0.1345
12749W        W28883   2.878  14.098   2.964 -0.2905 -0.2407  0.0824
12750W        W28884   2.233   5.517   0.381 -0.1154 -0.0187  0.2660
12751W        W28885   6.725   9.284  14.868 -0.0118 -0.1501  0.0454
12752W        W28886  11.867  16.151   0.183  0.0249 -0.2341  0.2309
12753W        W28887   5.613   0.573   1.874 -0.0767 -0.1398  0.0963
12754W        W28888   6.968   5.818  13.937 -0.0240 -0.0938  0.0429
12755W        W28889  13.482   0.793  13.680 -0.3030 -0.1033 -0.3142
12756W        W28890   1.851  13.025   3.132  0.2312 -0.0758 -0.2176
12757W        W28891  18.307   3.537   4.763  0.2509  0.1342 -0.1524
12758W        W28892   6.777  10.518  14.001 -0.0410  0.0760  0.0767
12759W        W28893   2.979  13.428   2.989  0.1969  0.0491  0.3180
12760W        W28894  17.706  12.763   4.310  0.0088 -0.1564 -0.0020
12761W        W28895  10.754   1.469  15.642  0.1446  0.1549 -0.2737
12762W        W28896   4.610  16.838  13.772 -0.1871 -0.0042 -0.0817
12763W        W28897  11.889   1.802  13.249 -0.0568 -0.2828  0.1194
12764W        W28898  16.273   2.055   2.552 -0.0360 -0.2316 -0.0554
12765W        W28899  10.731  13.925   0.850  0.1790 -0.1140  0.0857
12766W        W28900  16.007   5.012  15.017  0.2517  0.1747 -0.0520
12767W        W28901  17.140   2.944   2.294  0.2242  0.2586 -0.2595
12768W        W28902   9.852  10.720   4.647  0.1097  0.2529 -0.3295
12769W        W28903  18.088   9.480   4.206 -0.0023  0.0839  0.1834
12770W        W28904  11.302   8.655   3.782 -0.0870 -0.0801  0.0068
12771W        W28905   4.483  14.720   3.558  0.1019  0.0560  0.1067
12772W        W28906  11.030  11.215   3.234  0.2146 -0.0712  0.3072
12773W        W28907  17.052   5.815   3.893  0.1363 -0.0910 -0.1401
12774W        W28908  12.939  10.135   2.374  0.0250 -0.1482 -0.1865
12775W        W28909   6.787  12.448  13.077  0.2393  0.3314  0.0651
12776W        W28910   4.753   5.119   0.750  0.0122 -0.1646  0.0079
12777W        W28911   5.043   1.960  12.731  0.2435 -0.1135 -0.0700
12778W        W28912  14.890   9.606  13.639 -0.0226 -0.0350 -0.3135
12779W        W28913   1.136  13.181   4.383 -0.0146 -0.0813 -0.0157
12780W        W28914  12.977   1.403  13.499 -0.1597 -0.1489 -0.0183
12781W        W28915   6.973  16.129   4.152  0.0182 -0.0808  0.1675
12782W        W28916   7.449   7.723  14.210 -0.1303 -0.1603  0.0216
12783W        W28917  17.325  13.010  14.305  0.0807 -0.1463 -0.1094
12784W        W28918  12.710   3.420  15.586  0.0288  0.0673 -0.0347
12785W        W28919   2.024   5.345  14.773  0.1785 -0.3849 -0.0792
12786W        W28920  14.489  15.650   3.980  0.1259 -0.0013 -0.0001
12787W        W28921  15.131   1.391  11.269  0.1617  0.0250  0.2074
12788W        W28922   8.136  15.072  12.306  0.0148  0.2809 -0.1343
12789W        W28923   0.355   6.754  10.976 -0.0547  0.0590 -0.1189
12790W        W28924   1.198  12.117  14.764  0.2123 -0.0174 -0.3252
12791W        W28925  14.560  17.559   4.592  0.2205  0.2486  0.0883
12792W        W28926   8.373   3.643   3.372 -0.3113 -0.0498 -0.1573
12793W        W28927   0.795   5.678   0.989  0.2317 -0.2129  0.0134
12794W        W28928  11.997  16.363  14.089  0.0535  0.3359 -0.0918
12795W        W28929  12.211   6.101  10.889 -0.0944  0.1357 -0.0266
12796W        W28930  12.556  12.928  13.392 -0.2139 -0.1279 -0.0759
12797W        W28931  17.807  11.350  10.895 -0.1936  0.0640 -0.4091
12798W        W28932  11.440   1.138   2.867 -0.0560  0.1092  0.0725
12799W        W28933  13.479  11.815  11.648 -0.0579  0.1163 -0.1018
12800W        W28934   6.383   5.860  13.117 -0.1024 -0.1633  0.0747
12801W        W28935   6.059  14.557  11.697  0.2139 -0.0505  0.1163
12802W        W28936   8.643   3.590  12.180 -0.2767  0.0272  0.0571
12803W        W28937  17.861   9.654  13.283  0.2911  0.0156 -0.0078
12804W        W28938   9.037  16.418  13.510  0.0424 -0.1273  0.1064
12805W        W28939  10.831   0.393  15.502 -0.0670 -0.3934 -0.1051
12806W        W28940  13.538  12.196   4.135 -0.1143  0.0336  0.1641
12807W        W28941  16.454  13.542   2.924  0.1889 -0.1279  0.3673
12808W        W28942  15.320   3.374   2.367  0.0606 -0.1014  0.1433
12809W        W28943   6.901   7.224  12.470 -0.2287 -0.0791  0.0812
12810W        W28944   7.293   8.277  11.474  0.1641  0.0257  0.2944
12811W        W28945  13.370  12.923   2.691  0.1506 -0.1294  0.1326
12812W        W28946   3.327  13.017  14.276 -0.0879  0.3111 -0.0183
12813W        W28947  17.067   6.328  14.448 -0.0619 -0.0945 -0.1477
12814W        W28948   2.576  17.555   5.001  0.0031 -0.1917  0.2736
12815W        W28949  10.075  17.930  15.109  0.1379  0.1069 -0.1431
12816W        W28950   3.966   2.779  11.474 -0.1409 -0.1053 -0.0516
12817W        W28951   3.843   9.466   4.913  0.0547 -0.0081  0.2345
12818W        W28952   9.802   0.457  14.491 -0.0159  0.2406 -0.0404
12819W        W28953   0.292  17.340  11.078  0.2484  0.0283 -0.2242
12820W        W28954   0.113  14.317   5.063  0.1259  0.0279 -0.3798
12821W        W28955  11.129   4.875  13.367  0.0540 -0.3398  0.0070
12822W        W28956   3.579  12.098   0.573 -0.0641  0.1603  0.0732
12823W        W28957  14.762   6.847  14.147  0.0856 -0.3378 -0.1424
12824W        W28958   9.558   8.094   1.467  0.0891  0.2654 -0.3202
12825W        W28959   0.273  12.567   5.363 -0.0975  0.0402 -0.1742
12826W        W28960  16.863  10.353  13.662 -0.1085 -0.1966 -0.2068
12827W        W28961  17.619   6.356  15.413  0.0372 -0.1167  0.0719
12828W        W28962   3.893  11.289   0.405  0.3779 -0.0551  0.1151
12829W        W28963   2.931  10.708  11.838  0.1497  0.2396 -0.1667
12830W        W28964   1.317   5.502   0.272  0.0458 -0.1210  0.0706
12831W        W28965   1.270  10.670   2.284 -0.0090 -0.0722 -0.0671
12832W        W28966  17.614  17.019   1.478 -0.0256 -0.2958 -0.0840
12833W        W28967  12.010   3.234  13.052  0.1322 -0.1403 -0.0217
12834W        W28968   6.513  15.506  13.483  0.1222  0.0248  0.4815
12835W        W28969  14.702  10.257  14.647 -0.2620 -0.2188  0.4896
12836W        W28970   3.309   3.000  15.090  0.1195 -0.1230 -0.1670
12837W        W28971  16.473  17.077   0.179 -0.1020  0.3988  0.1301
12838W        W28972  13.203  11.020  11.831  0.0630  0.1573 -0.1503
12839W        W28973   2.019   3.965  10.805  0.2658  0.3217  0.0018
12840W        W28974   0.347  18.426  11.866  0.1725 -0.1700  0.2637
12841W        W28975   6.916  17.994  11.689 -0.2541 -0.0667  0.2788
12842W        W28976   8.454   2.252   3.721  0.0020 -0.0589 -0.2031
12843W        W28977  15.930   7.061  13.481 -0.1401 -0.0518  0.0552
12844W        W28978  13.989   5.226  11.736  0.2872  0.0592  0.2207
12845W        W28979   3.882  13.831  14.969 -0.0822 -0.0650 -0.0901
12846W        W28980   8.683   5.364  12.897 -0.0454 -0.0980  0.1643
12847W        W28981  15.598  13.354  13.375 -0.5086 -0.1623 -0.1513
12848W        W28982   7.274  11.112   3.136 -0.1547  0.1878  0.1522
12849W        W28983  13.402  10.144   3.819 -0.1661  0.4074  0.2421
12850W        W28984  18.355   1.740  15.433 -0.0343 -0.0151 -0.1604
12851W        W28985   0.355  13.575   4.100  0.1445 -0.0583 -0.1117
12852W        W28986  17.558   0.831   0.837 -0.0164  0.2154 -0.2535
12853W        W28987  13.160   0.995  14.451 -0.0555 -0.1880  0.1393
12854W        W28988  12.369   1.580  11.198 -0.0758 -0.0711 -0.1632
12855W        W28989   0.869   8.439   1.161 -0.2908 -0.1262 -0.2916
12856W        W28990  17.888  13.087  14.465  0.2178 -0.0017  0.2777
12857W        W28991   6.712   3.161  14.670 -0.1724 -0.1102 -0.1430
12858W        W28992   4.831  17.312   4.573 -0.1228 -0.0319 -0.0752
12859W        W28993   5.469   5.126   0.761  0.0648  0.2122  0.1090
12860W        W28994   0.854  15.479   4.224 -0.0325  0.3718 -0.2973
12861W        W28995  13.973   9.657  15.028 -0.0758 -0.1317  0.0384
12862W        W28996   1.012   9.375   0.882 -0.3258  0.0155  0.1592
12863W        W28997   8.431  12.690   4.509 -0.1217  0.1314  0.0211
12864W        W28998  15.046   4.988   0.683  0.0097  0.0340  0.1317
12865W        W28999  12.517   3.978  14.057  0.1953 -0.3323 -0.1531
12866W        W29000  17.223  11.131   1.470 -0.2980 -0.2313 -0.1850
12867W        W29001  17.913   7.575  12.288 -0.0972 -0.2770 -0.0428
12868W        W29002   3.197  18.060   6.003 -0.0296 -0.1513 -0.1591
12869W        W29003  17.847  16.938   4.565 -0.1953 -0.3337 -0.2003
12870W        W29004   3.063   5.040   2.879  0.0814 -0.1537 -0.1339
12871W        W29005   2.520   2.759  14.737 -0.1270 -0.2039 -0.1235
12872W        W29006   3.435   6.030   3.288 -0.3151  0.0018  0.1558
12873W        W29007   6.912   3.230  12.250 -0.2295 -0.0957 -0.1367
12874W        W29008   8.135  13.071   4.314  0.1551 -0.1945 -0.1752
12875W        W29009   1.884  10.462   1.272  0.0390 -0.1247 -0.0517
12876W        W29010  10.066  11.049   4.924  0.2620 -0.0513  0.0095
12877W        W29011   1.854   9.814   1.826  0.1544 -0.0608  0.2403
12878W        W29012   0.194   0.987   5.573  0.0342 -0.1212  0.0267
12879W        W29013   4.726   1.860  13.476 -0.1707 -0.1553  0.4274
12880W        W29014  17.224   4.272  15.038 -0.0640  0.1858 -0.0390
12881W        W29015  17.391   1.723  14.820  0.2030 -0.0006 -0.0121
12882W        W29016  14.362   5.888   2.215 -0.0929 -0.2636  0.1257
12883W        W29017   3.415   9.260   3.729  0.2184  0.1578  0.1477
12884W        W29018  11.470  12.414   4.481  0.0735 -0.0590 -0.1515
12885W        W29019   7.897  15.534   4.121 -0.0246  0.2265 -0.0238
12886W        W29020  15.895   7.153   1.702  0.0375  0.1045 -0.0534
12887W        W29021  16.459  15.456  11.448 -0.2014  0.4513  0.0502
12888W        W29022   0.640  18.293   4.424 -0.3966 -0.2730  0.4408
12889W        W29023   0.277  15.109  15.041  0.0172  0.0094 -0.2435
12890W        W29024  17.295   4.825   4.724 -0.1310 -0.0479  0.2368
12891W        W29025  11.765  15.824   4.745  0.1934  0.3720  0.0367
12892W        W29026  11.270   6.576   4.230 -0.0937 -0.1939  0.1632
12893W        W29027   6.913  16.186   0.802 -0.1759 -0.1987 -0.3452
12894W        W29028  15.110   5.365  15.247  0.1808  0.0008 -0.3204
12895W        W29029   2.800   4.792   2.397 -0.0152  0.0117  0.4317
12896W        W29030  17.592   9.792   5.283 -0.1020  0.0352 -0.0731
12897W        W29031  14.494   5.999  15.862  0.0450  0.3001 -0.0069
12898W        W29032   8.916   9.925   5.432  0.0147  0.1793 -0.0629
12899W        W29033  12.971   2.814  11.305 -0.3492  0.0915  0.3782
12900W        W29034  11.740   8.115   2.867 -0.3341 -0.3375  0.0505
12901W        W29035  17.475   3.444  12.192 -0.1706 -0.1074  0.0310
12902W        W29036   1.033   7.474   0.070  0.1132 -0.1826 -0.0693
12903W        W29037   1.744  15.937  11.109 -0.2529  0.0313  0.0091
12904W        W29038   4.114   5.646  12.281 -0.0280  0.1650 -0.0130
12905W        W29039  10.721  12.934  10.219 -0.1601  0.0638  0.1304
12906W        W29040   4.169   5.146  12.041 -0.0708 -0.1306 -0.2608
12907W        W29041   9.705  14.964   4.042  0.2197 -0.3011  0.1623
12908W        W29042  10.700  10.422  15.324 -0.0501 -0.0882 -0.2328
12909W        W29043   9.873  13.519   0.209 -0.1509 -0.0345  0.3219
12910W        W29044  18.419   5.010  12.803  0.4102  0.1286 -0.3781
12911W        W29045   6.490   7.972   5.250  0.1649  0.1505 -0.1046
12912W        W29046   8.736   0.322   3.250 -0.2266 -0.0160  0.1036
12913W        W29047   5.804   9.990  13.926 -0.0456  0.2480  0.3719
12914W        W29048  12.458  13.724   2.064 -0.4175 -0.0787 -0.0521
12915W        W29049  17.708  13.513  11.948 -0.1501 -0.0253  0.1768
12916W        W29050  13.616   4.088   4.354 -0.0357  0.0909 -0.0193
12917W        W29051   9.076   3.480   5.144 -0.2338 -0.3367  0.0364
12918W        W29052   5.452   6.634  13.851 -0.0281 -0.1711 -0.1918
12919W        W29053   2.113  13.026  11.645  0.1944 -0.3110 -0.1833
12920W        W29054   3.870   1.970  12.482  0.1100 -0.2074  0.1216
12921W        W29055  13.689  16.197  11.707  0.0289  0.3959 -0.0418
12922W        W29056  17.847  16.922  12.258  0.0647  0.1233  0.0166
12923W        W29057  17.509   0.617  11.850  0.0158  0.3490 -0.0512
12924W        W29058   4.047  10.936   5.745  0.2479  0.3551  0.0166
12925W        W29059  17.266   3.628   3.708  0.3438  0.0296  0.1300
12926W        W29060   6.474  12.979  13.933 -0.2119  0.1093  0.0445
12927W        W29061  15.006   9.552  14.158 -0.0596 -0.3671 -0.1728
12928W        W29062   6.191   4.409  14.960 -0.2548  0.1327  0.1168
12929W        W29063   1.293   9.051  11.677  0.0032 -0.1462  0.0001
12930W        W29064  18.440  12.919   2.963 -0.0747  0.0568  0.0601
12931W        W29065   4.582  10.146   4.208 -0.1389 -0.0781  0.0878
12932W        W29066   6.620  17.691   1.914  0.2899 -0.0831 -0.1672
12933W        W29067   0.268  18.095   2.688  0.0257  0.4237  0.0040
12934W        W29068   2.352  16.947  11.185 -0.0949  0.1889 -0.1516
12935W        W29069   3.570  15.115  13.120 -0.0935  0.0108  0.0222
12936W        W29070   7.479  17.920   2.282 -0.0794  0.1507 -0.1194
12937W        W29071   4.621   3.344   3.571  0.0610  0.0760 -0.4034
12938W        W29072   1.648  10.385  14.795 -0.2757 -0.0422  0.2507
12939W        W29073  15.876   1.926   3.414 -0.0327 -0.1633  0.0356
12940W        W29074   5.115  15.183   2.352 -0.0112 -0.1636 -0.0398
12941W        W29075   0.156   3.354   0.109  0.1389 -0.0363  0.1884
12942W        W29076   0.202  14.951  12.668  0.1527 -0.0277  0.0667
12943W        W29077   8.339  12.836   2.996  0.0414  0.0353 -0.2247
12944W        W29078  13.459   5.287   1.377  0.0946  0.0082 -0.0721
12945W        W29079   7.833   4.861  12.021  0.0891 -0.1971 -0.2795
12946W        W29080  16.277  10.443   2.076 -0.1088 -0.2621 -0.2546
12947W        W29081  13.812   9.924   3.945 -0.3090 -0.2849  0.0203
12948W        W29082   0.506   8.196   0.082 -0.0502  0.0459 -0.0646
12949W        W29083  14.670  12.643   4.235 -0.1253  0.1844  0.0541
12950W        W29084  15.486   6.407  12.462  0.2364  0.2006  0.3522
12951W        W29085   9.208  14.948   1.928 -0.0498  0.1974  0.0132
12952W        W29086  16.441   7.196  11.606  0.0369  0.1774  0.0558
12953W        W29087  18.287   6.297   2.841 -0.0165 -0.0088 -0.1452
12954W        W29088   9.116   5.864   2.699 -0.0769 -0.1155  0.0410
12955W        W29089   0.974  11.668  12.967 -0.2439  0.2299 -0.1796
12956W        W29090  12.310  11.914   2.904 -0.2218 -0.0374 -0.2179
12957W        W29091   3.822   7.580  11.222  0.0749 -0.2742 -0.1120
12958W        W29092   7.966   6.665  12.274  0.0215  0.1575 -0.4219
12959W        W29093  16.934   8.869   2.804  0.1426 -0.0031  0.1367
12960W        W29094   2.992   7.441  12.792  0.1713  0.1097  0.3613
12961W        W29095  12.445   4.487  14.147 -0.1698  0.0308 -0.1571
12962W        W29096   1.859   0.353   3.771 -0.0552  0.0143 -0.1861
12963W        W29097  11.565   0.962  15.142  0.1638 -0.1506  0.0411
12964W        W29098  10.815   6.327  14.615  0.5231  0.1810  0.3403
12965W        W29099  10.153   5.278  12.238  0.0551 -0.0555 -0.0425
12966W        W29100  17.632  10.886  10.889  0.1670 -0.1727  0.1943
12967W        W29101   0.979   6.586  14.965  0.0565  0.0293 -0.3204
12968W        W29102  16.886   3.291   2.872  0.0519  0.0423 -0.2165
12969W        W29103   0.384  12.263   4.954  0.1202 -0.0726 -0.1149
12970W        W29104  10.484  13.448   4.256 -0.1493  0.1508  0.4054
12971W        W29105   3.800   6.814  11.842 -0.3792  0.1643  0.3621
12972W        W29106   6.792   3.035  11.794 -0.1346  0.1179  0.1922
12973W        W29107   4.561  13.576  14.516  0.0174 -0.0683 -0.1938
12974W        W29108   1.756   7.413   1.927  0.1050  0.4079  0.3132
12975W        W29109   0.339   4.464   0.893 -0.0354  0.1517 -0.1657
12976W        W29110   8.158   8.771  15.354  0.2625 -0.1073  0.2724
12977W        W29111   5.526   7.637  15.860 -0.1433 -0.1979 -0.2285
12978W        W29112  15.808   0.753  12.112 -0.1978 -0.1960 -0.0632
12979W        W29113   1.773  15.312   3.111  0.1667  0.2198 -0.0287
12980W        W29114   3.868  13.007   0.877 -0.1438  0.0726 -0.1889
12981W        W29115   9.971   1.062  11.652  0.1970  0.0932  0.1259
12982W        W29116  14.810   7.711   2.579  0.0305  0.1698 -0.0300
12983W        W29117  13.931   0.825  11.401 -0.0317 -0.0470 -0.0052
12984W        W29118   1.304   3.011  10.520 -0.1528 -0.0917 -0.0293
12985W        W29119  14.093   1.352   0.939  0.1320  0.1584 -0.0676
12986W        W29120   8.869   1.600   3.359  0.1888 -0.1337  0.1082
12987W        W29121   8.274   7.102  11.209  0.1898 -0.0292  0.2238
12988W        W29122   4.526   3.493   2.738 -0.0811  0.0924  0.0636
12989W        W29123  15.118   3.829  14.244 -0.0965 -0.2523 -0.1016
12990W        W29124  13.288   1.120   3.513  0.0351  0.0106  0.0932
12991W        W29125   6.335  13.445  14.816 -0.2977  0.3154  0.1533
12992W        W29126  16.615   1.492   1.532  0.2152  0.1732 -0.3401
12993W        W29127   4.043   9.606  15.223  0.1984 -0.2011  0.2295
12994W        W29128   6.195   0.868   4.292 -0.3037 -0.2987  0.1945
12995W        W29129   9.283  13.794   0.937 -0.0643 -0.1252  0.0353
12996W        W29130   1.285   2.108   2.815  0.2003  0.2909  0.0521
12997W        W29131  10.256   9.197  11.153 -0.0978 -0.2112 -0.1967
12998W        W29132  13.649  16.349   2.206  0.0445  0.2047 -0.1620
12999W        W29133  10.145   7.242  12.761  0.0651 -0.2345 -0.0666
13000W        W29134   4.837   7.942   2.788 -0.0268  0.1027 -0.4341
13001W        W29135  17.023   4.956  15.074  0.0159 -0.0802  0.2356
13002W        W29136   2.530  15.302   0.974  0.0688  0.2974 -0.0198
13003W        W29137   6.822  13.662   4.928  0.1118  0.3719 -0.1052
13004W        W29138  18.004  14.402   4.308  0.2485  0.1746 -0.3274
13005W        W29139  11.312  16.537  14.705  0.1037  0.2955 -0.3078
13006W        W29140   9.937  17.947   4.790  0.0026 -0.0770  0.0762
13007W        W29141  17.756  17.974   1.070 -0.1429  0.2003  0.1075
13008W        W29142  14.408   6.021   3.220 -0.0626 -0.1117 -0.2512
13009W        W29143  11.317   9.026   3.340 -0.3843  0.0860 -0.1695
13010W        W29144   3.787   9.738   0.073  0.0411 -0.2657  0.3654
13011W        W29145  12.806   1.856   9.832 -0.0196 -0.1762 -0.1673
13012W        W29146   5.614   3.830  15.054 -0.1904  0.2216 -0.3856
13013W        W29147   7.318  12.509   4.092  0.0092  0.1195  0.1020
13014W        W29148   4.109  15.375  11.375 -0.2185 -0.1554  0.2514
13015W        W29149   6.214   2.404   1.670  0.0104 -0.1521 -0.1487
13016W        W29150   4.456   4.489   0.417 -0.0694  0.5434 -0.1908
13017W        W29151  16.323  12.494   1.571 -0.1382  0.0571 -0.0829
13018W        W29152   4.703   0.302   5.240  0.1592 -0.1768  0.3414
13019W        W29153  15.306  11.907   2.421  0.1134  0.0325  0.0712
13020W        W29154   5.587   0.816  11.765  0.4611  0.0839 -0.3059
13021W        W29155  17.212  12.387   5.365  0.0763  0.2338 -0.1227
13022W        W29156  12.268  17.690  11.048 -0.1258  0.0285  0.0493
13023W        W29157  11.851   8.633  12.702  0.0324 -0.1705 -0.1430
13024W        W29158  14.101   6.462  12.276  0.1862 -0.2022 -0.0418
13025W        W29159  17.264   9.222  15.052 -0.1178 -0.1669  0.2317
13026W        W29160  16.413  14.513   1.562 -0.2177  0.2476 -0.0434
13027W        W29161   8.636  11.401  14.856  0.2020 -0.0639  0.1416
13028W        W29162   5.787   7.064   2.187  0.0988 -0.0036 -0.1921
13029W        W29163  16.658  10.651  12.878 -0.0165 -0.0702  0.0713
13030W        W29164   1.649   7.229   1.389  0.1941 -0.0669 -0.2517
13031W        W29165   6.673   2.627   3.016 -0.1492  0.0925  0.1566
13032W        W29166  11.170  12.490   5.621 -0.2559  0.2907 -0.0411
13033W        W29167  12.750  16.357  14.435 -0.0746 -0.0566 -0.2524
13034W        W29168   2.656   8.514   1.200  0.0664  0.1965 -0.1250
13035W        W29169  13.811   3.095  12.486  0.1172  0.2221  0.1109
13036W        W29170   5.954   8.106  10.193 -0.2380  0.0461 -0.0424
13037W        W29171   3.976   1.065  12.800  0.2552 -0.0500 -0.1209
13038W        W29172  11.901   8.051  14.409 -0.2126  0.2717 -0.2895
13039W        W29173   0.333  13.235   2.419 -0.1680 -0.1204 -0.1183
13040W        W29174   7.834  17.028   2.332  0.1474  0.1855  0.0960
13041W        W29175   6.341  16.511  14.928  0.3987  0.1477  0.4708
13042W        W29176   1.935  14.938   3.419  0.0603 -0.2584 -0.1435
13043W        W29177  14.090   2.103   2.502 -0.3017 -0.1099  0.3484
13044W        W29178  14.038   0.117   0.499 -0.0985 -0.1354 -0.1070
13045W        W29179   2.132  14.460   4.613  0.0713  0.2208  0.0730
13046W        W29180   1.807   3.827   2.339  0.2187  0.0767  0.2057
13047W        W29181  17.206   6.290  11.120 -0.0407  0.1467 -0.2194
13048W        W29182   6.060   0.439   5.478  0.4138 -0.0117 -0.0179
13049W        W29183   6.509   5.599   3.289 -0.0248  0.0631  0.2907
13050W        W29184   0.194   3.082  14.030  0.0572 -0.1260 -0.1473
13051W        W29185   9.537   0.134   1.786  0.2380 -0.0624 -0.0176
13052W        W29186   1.416  18.340  13.002 -0.0488  0.2860  0.0407
13053W        W29187  11.323  13.032   1.194 -0.0481  0.1890 -0.0147
13054W        W29188   4.401   2.233  12.241 -0.0718 -0.2209  0.3786
13055W        W29189   5.031  15.246  11.944 -0.3257  0.1442 -0.1068
13056W        W29190  18.229   7.616  11.466  0.3508  0.1815 -0.1391
13057W        W29191  15.322   7.743  15.555  0.1790  0.0332 -0.1139
13058W        W29192  10.586  14.191   4.620 -0.1684 -0.2286 -0.0313
13059W        W29193  12.950   7.767  15.727  0.1343  0.1824 -0.2565
13060W        W29194  10.874  18.368   3.171  0.0202  0.2812  0.2315
13061W        W29195   9.352  14.574   4.145 -0.1073 -0.1829  0.0923
13062W        W29196  14.689   1.789   4.010 -0.1190  0.0959  0.0927
13063W        W29197   4.392  17.653   2.729  0.1196  0.1025  0.2068
13064W        W29198  14.482   9.919   4.469 -0.0818  0.2872 -0.0289
13065W        W29199  17.200  10.505  10.204 -0.0432  0.0182 -0.1063
13066W        W29200  13.870   2.766   1.606 -0.0025 -0.4506  0.1991
13067W        W29201   3.573   6.972   2.242  0.0193 -0.3444 -0.2354
13068W        W29202   0.201   2.041   5.450  0.2006  0.0164 -0.0483
13069W        W29203   7.226   9.139   1.287 -0.0108 -0.1461  0.2089
13070W        W29204  15.596  17.732   1.078  0.1118 -0.1572 -0.2785
13071W        W29205   2.706  17.542  15.670 -0.0435  0.2485 -0.0843
13072W        W29206  16.290  13.720  12.274 -0.0789 -0.0213  0.0942
13073W        W29207  18.058   4.135   4.192 -0.5259 -0.0452  0.2711
13074W        W29208   3.877  11.243  11.724 -0.0791  0.0077  0.0549
13075W        W29209  15.767  11.204   1.924 -0.0426  0.0296  0.1207
13076W        W29210   3.442  11.053  14.316 -0.2234 -0.0826 -0.3348
13077W        W29211   8.657   4.584   5.084  0.1373 -0.0109  0.0147
13078W        W29212  16.068   5.694   0.505  0.2682  0.1322  0.3208
13079W        W29213   4.008  17.807  14.571  0.1238  0.2198 -0.2834
13080W        W29214  13.406   8.779   2.375  0.1150 -0.1825  0.0294
13081W        W29215  15.590   6.072  14.495  0.0846 -0.0318  0.1769
13082W        W29216   0.360   8.446  11.301 -0.1538 -0.1463  0.2444
13083W        W29217  16.168   3.562   1.576  0.0339  0.2741 -0.0077
13084W        W29218   9.235   7.836  13.250  0.0111 -0.2115 -0.1300
13085W        W29219  15.894   7.171  12.866 -0.1339  0.0412  0.1899
13086W        W29220  16.820   5.738   1.327  0.0153 -0.1760 -0.0243
13087W        W29221  18.432  16.708  14.507  0.1056  0.1929  0.1347
13088W        W29222  18.339  11.392  10.746 -0.1783 -0.2019  0.1535
13089W        W29223   7.551   4.333  13.225 -0.1751 -0.0805  0.1080
13090W        W29224   6.627  12.892  14.800 -0.0682 -0.0558  0.0441
13091W        W29225   8.974   0.683  11.622  0.0731  0.2136  0.0986
13092W        W29226  12.149  18.238  10.910 -0.0066 -0.3492  0.0211
13093W        W29227   2.345   2.101   0.172 -0.0318 -0.1531  0.1676
13094W        W29228   4.815  15.343  12.924 -0.0278 -0.0520 -0.0048
13095W        W29229   6.285  17.243  14.259 -0.0952 -0.2137  0.1170
13096W        W29230   6.194   8.181  13.980  0.1088  0.1346 -0.4172
13097W        W29231  18.155  17.707   2.462  0.0158 -0.2420 -0.0578
13098W        W29232   8.177  18.056   2.773 -0.1964 -0.1679 -0.2382
13099W        W29233   0.824  15.277   2.958 -0.0409 -0.1411  0.1558
13100W        W29234  12.097   7.882  12.309 -0.4776  0.0098  0.3196
13101W        W29235   8.478  11.073  14.504  0.1328  0.0260  0.1480
13102W        W29236   1.227  13.042  13.817  0.1141 -0.0392 -0.2750
13103W        W29237   0.752   6.279  13.140 -0.1473  0.2677  0.2688
13104W        W29238   1.055  18.188  14.123 -0.1517 -0.0533  0.0788
13105W        W29239  15.871   1.490  15.775  0.0587  0.0864 -0.1273
13106W        W29240   1.898  14.860   0.360 -0.2054  0.0653 -0.3038
13107W        W29241   6.304   0.939   3.402 -0.0505  0.1748 -0.4369
13108W        W29242  18.284  16.037   0.253  0.0281  0.0702 -0.3578
13109W        W29243  11.777   1.686   3.586  0.1917  0.0481 -0.0412
13110W        W29244   9.674   5.777   0.634  0.0122  0.0010 -0.1906
13111W        W29245   3.080  16.690  11.780 -0.2875  0.0831  0.0294
13112W        W29246  15.884  16.087  11.658 -0.1016 -0.1450 -0.0508
13113W        W29247  16.444   1.637   5.078  0.1490  0.2308 -0.1436
13114W        W29248   3.532  10.685   3.731 -0.1228  0.0043  0.0101
13115W        W29249   1.517  14.262  15.297 -0.0001  0.2493  0.1580
13116W        W29250  18.224   2.045   2.659 -0.0586  0.0039  0.2240
13117W        W29251   4.766   7.714  11.025  0.3363  0.2062  0.1283
13118W        W29252   6.290   8.621   5.479  0.0269 -0.1973  0.0725
13119W        W29253   5.053  11.745  14.510 -0.0435  0.2050 -0.2015
13120W        W29254  13.237  18.271  12.717  0.0778 -0.2120 -0.0991
13121W        W29255   6.958   3.505   5.057  0.0895 -0.0296 -0.2659
13122W        W29256  14.210   7.837   4.941  0.0552 -0.4370  0.2142
13123W        W29257  10.928   4.907   2.504 -0.2468  0.1575  0.1046
13124W        W29258   1.766   1.261  13.021  0.0490 -0.1914 -0.0485
13125W        W29259   0.003   1.822   2.138 -0.0800  0.1114 -0.0477
13126W        W29260   3.888   1.083  11.350 -0.2160  0.4572  0.0595
13127W        W29261  11.712   2.825   4.430  0.1243 -0.2888 -0.0147
13128W        W29262  13.068  12.703   1.311  0.0613 -0.0810 -0.1408
13129W        W29263  12.741   4.678  14.504 -0.1999 -0.0859 -0.0642
13130W        W29264   4.311  12.709   1.687  0.1892 -0.0800  0.2227
13131W        W29265   4.381   4.619  14.623 -0.1829 -0.0366  0.2472
13132W        W29266  12.790   6.015   1.823 -0.1568  0.2152  0.1499
13133W        W29267  16.288   5.064   4.868 -0.3158  0.1601  0.3609
13134W        W29268  16.953   0.576   1.460  0.0130  0.0596  0.2320
13135W        W29269  15.499   1.233   0.774 -0.0298 -0.0984 -0.0056
13136W        W29270  15.956  10.336   2.585  0.1143  0.1202 -0.1355
13137W        W29271   7.052   6.333   0.068 -0.1500  0.2337  0.1896
13138W        W29272  11.283  17.054   5.533  0.1403  0.0048  0.0374
13139W        W29273   5.672   7.602   4.504  0.3361  0.0161 -0.0269
13140W        W29274  11.368  17.068  15.895 -0.2762  0.2555  0.0617
13141W        W29275  15.860  18.311   5.664 -0.1782 -0.1196 -0.2444
13142W        W29276   8.660  11.128   0.674  0.4026  0.2611  0.1661
13143W        W29277  13.513   7.345  12.150 -0.1571  0.0434 -0.2689
13144W        W29278  16.358  17.731  11.291  0.1579 -0.0956  0.0908
13145W        W29279  13.736   3.015  11.635 -0.1844 -0.0525  0.0960
13146W        W29280   0.115  18.452   1.101  0.0474 -0.3260  0.5386
13147W        W29281   9.120  16.416   0.160  0.2114 -0.0039 -0.1352
13148W        W29282  14.075   2.942   2.364 -0.3953 -0.3361 -0.0699
13149W        W29283   4.693  12.912   0.700  0.1823 -0.0624  0.1169
13150W        W29284   8.165   0.868  12.809 -0.3504  0.1014  0.3063
13151W        W29285   9.374  14.007   4.663  0.0439 -0.0109  0.0826
13152W        W29286  12.251  16.423   4.135 -0.1391  0.3114 -0.1368
13153W        W29287  17.886   6.800  13.974 -0.0319  0.2473 -0.0097
13154W        W29288  13.658   9.233   2.315 -0.0492  0.0439  0.0909
13155W        W29289   3.843  10.827   2.282 -0.0332  0.0733  0.0834
13156W        W29290   4.933   5.266   3.378  0.1609  0.0713 -0.0048
13157W        W29291   7.040  16.852   4.666 -0.2070  0.1529 -0.0656
13158W        W29292   7.326   4.373  12.003 -0.2017  0.0208  0.2394
13159W        W29293   5.526   1.578   3.858 -0.3677  0.0658 -0.1520
13160W        W29294   2.889   9.964   1.033 -0.1373  0.0460 -0.3617
13161W        W29295  10.763  13.801   0.178 -0.2046 -0.0561  0.0189
13162W        W29296   9.982   3.569   3.973 -0.0213 -0.0560  0.0481
13163W        W29297  14.486  10.021   5.251  0.1644 -0.0415  0.2823
13164W        W29298  14.191  16.068  11.535 -0.0119  0.0824 -0.0962
13165W        W29299   1.204  12.530  15.650 -0.1111  0.0139 -0.1281
13166W        W29300  15.657   0.533   1.158  0.3009 -0.1586  0.0429
13167W        W29301  13.702   5.762   1.422  0.2368 -0.1446 -0.0858
13168W        W29302   9.067   9.702  14.734 -0.3203 -0.1208  0.0160
13169W        W29303  14.745   6.557  12.772  0.0719  0.2415 -0.1546
13170W        W29304   5.994  12.187   1.295  0.0674 -0.0739  0.4369
13171W        W29305   7.243   3.433  14.538  0.1997  0.0537  0.2556
13172W        W29306   8.914   3.514   3.313 -0.0816 -0.0865  0.1236
13173W        W29307  14.712   1.357   3.807  0.0201 -0.0092  0.1835
13174W        W29308   3.255  17.653   4.205  0.2686 -0.0782  0.2064
13175W        W29309   4.877   6.280  11.645  0.0369 -0.0520  0.3343
13176W        W29310   2.168   8.716   1.277  0.1434 -0.0258 -0.1973
13177W        W29311   0.972  14.603  10.416  0.1535 -0.0100  0.0114
13178W        W29312  12.615   2.152  11.921 -0.0859  0.0310 -0.0615
13179W        W29313  12.180  10.451  13.324  0.1415  0.0438  0.2149
13180W        W29314   0.942   8.616  11.846  0.4590 -0.0058 -0.1248
13181W        W29315  17.118  13.707   3.547 -0.0226 -0.4294  0.3462
13182W        W29316  17.346  17.300  13.782  0.0034 -0.1529  0.1406
13183W        W29317  15.129   9.077   1.527 -0.2441 -0.0298 -0.1851
13184W        W29318  17.415  16.533   0.648  0.1941 -0.0167 -0.0039
13185W        W29319  13.498   7.719   3.293  0.1447  0.1009  0.0930
13186W        W29320  17.517  15.715  10.117  0.1679  0.0726 -0.1313
13187W        W29321   5.013   5.529  13.118 -0.0719 -0.2663 -0.5410
13188W        W29322  17.676   5.286  12.133  0.3791 -0.2517 -0.2283
13189W        W29323   6.790   8.009  13.675  0.1530  0.0302  0.1214
13190W        W29324   0.167  13.727   3.524 -0.0940  0.3235  0.4246
13191W        W29325  12.076   6.455  10.480 -0.1553  0.1934 -0.0432
13192W        W29326   9.902  11.404   3.775 -0.1933  0.1762 -0.1291
13193W        W29327  17.780   8.304   1.283  0.1882 -0.0276 -0.0909
13194W        W29328   3.523   6.683   3.066  0.0084 -0.2470 -0.1877
13195W        W29329   7.357  13.876   3.448  0.0412  0.0636 -0.1075
13196W        W29330  15.971  12.533   3.708  0.0137 -0.1390  0.1848
13197W        W29331   8.408   4.440   4.518  0.0465 -0.0805 -0.0394
13198W        W29332  17.103  11.857   0.293  0.2123 -0.1945  0.0683
13199W        W29333  13.882  10.893   3.911  0.4266  0.1620  0.1602
13200W        W29334   0.757   1.880   4.516 -0.1456 -0.2701 -0.1926
13201W        W29335   6.887   8.009  11.316  0.0117 -0.1061 -0.0302
13202W        W29336   3.097   5.894  15.142 -0.0856  0.2254  0.0043
13203W        W29337   4.915  17.934   1.280 -0.0663  0.1336  0.1024
13204W        W29338   4.240  17.214  15.141 -0.2419 -0.1662  0.3002
13205W        W29339   6.225   3.176  14.828 -0.4856 -0.1268  0.4810
13206W        W29340  13.907  16.308   0.535 -0.0566 -0.2136  0.2244
13207W        W29341   1.969   6.883   2.084  0.1364 -0.1910  0.0600
13208W        W29342   2.837   0.657   1.204  0.1354 -0.2251  0.3274
13209W        W29343  12.315  12.770  14.619  0.1771  0.5325 -0.1784
13210W        W29344  10.369  16.380   5.977 -0.4100 -0.0366  0.1048
13211W        W29345   4.565   5.762  14.226 -0.1141 -0.1981 -0.1697
13212W        W29346  17.792  15.838   2.967  0.2889  0.3639 -0.1337
13213W        W29347   0.697  17.146  13.113  0.0545 -0.0261  0.1382
13214W        W29348   8.259  13.975  11.196 -0.2515  0.1292  0.2418
13215W        W29349   6.596   2.932   5.611 -0.2648 -0.2401 -0.0239
13216W        W29350   3.196   3.666  12.375  0.5598 -0.3598 -0.1792
13217W        W29351  13.996   5.245  10.911 -0.0043  0.4193  0.1051
13218W        W29352  11.059  14.863   5.179  0.3107 -0.1267 -0.1099
13219W        W29353   6.254  10.343  11.300  0.0554 -0.1336 -0.1221
13220W        W29354   4.822   2.687  15.207  0.2728 -0.2578  0.2672
13221W        W29355   2.497  10.843   0.772  0.0055 -0.1595  0.0089
13222W        W29356   1.390   9.849  12.081 -0.1928  0.0850 -0.0702
13223W        W29357   7.072   0.560  12.573 -0.4059 -0.0034 -0.0669
13224W        W29358  14.519  12.121   4.443  0.3025 -0.0781 -0.0997
13225W        W29359  16.114  14.443   3.512  0.1464 -0.2800  0.0431
13226W        W29360  10.747   0.587  12.412 -0.0246 -0.0823 -0.2155
13227W        W29361  11.715  12.101   5.655  0.0214  0.0121 -0.2971
13228W        W29362   8.936   3.286  11.726 -0.2259 -0.3533  0.3703
13229W        W29363   9.718   3.762  14.912 -0.0880 -0.1444 -0.1433
13230W        W29364   4.739  14.327   1.145 -0.1978 -0.3674 -0.0369
13231W        W29365  11.921   6.355  14.715 -0.0915 -0.2716  0.2871
13232W        W29366   4.053  10.466   0.517  0.3047 -0.0644  0.0904
13233W        W29367   4.207  16.403  14.770  0.0245 -0.3312 -0.0310
13234W        W29368   1.643   5.261   3.465 -0.1604 -0.1911 -0.3597
13235W        W29369  12.012   8.883  15.023  0.3253  0.1492  0.0919
13236W        W29370   3.940   6.065   0.375  0.0208 -0.1925 -0.2859
13237W        W29371   2.796   7.109   0.480 -0.0986 -0.3430 -0.0457
13238W        W29372  10.210   8.105   3.617  0.1617 -0.0743  0.0570
13239W        W29373  12.012  16.245   1.998 -0.0178  0.1509  0.0736
13240W        W29374   6.118  15.471  14.843  0.1798 -0.0811  0.2628
13241W        W29375  14.384   1.824  14.527  0.0167 -0.2712  0.3534
13242W        W29376  10.518  17.499   5.167 -0.1692  0.0526 -0.2019
13243W        W29377   5.157  12.514   2.333 -0.2133 -0.0133  0.0563
13244W        W29378   1.986   8.607  10.197 -0.3581 -0.1321 -0.2132
13245W        W29379   5.121  11.004  11.924  0.1666 -0.2975  0.1121
13246W        W29380  16.119   1.662   2.830  0.0354  0.1604 -0.2346
13247W        W29381   6.737   1.106  12.756 -0.1090 -0.1974  0.0734
13248W        W29382   1.304   4.037   4.147  0.0143 -0.0983 -0.1133
13249W        W29383  12.067   8.290   3.437  0.4449  0.2704 -0.3535
13250W        W29384   5.993  18.105   5.462 -0.1325 -0.1932 -0.0786
13251W        W29385   3.021   6.278  11.544 -0.1070  0.2624 -0.0478
13252W        W29386   3.562  12.850   0.000 -0.2463  0.0156 -0.0307
13253W        W29387   2.062   1.035  12.529 -0.1148 -0.0031 -0.1039
13254W        W29388  18.105   6.440   4.729  0.1523 -0.1053  0.1833
13255W        W29389   2.947  16.262  11.108  0.1308  0.0451  0.1515
13256W        W29390   9.859  18.345  15.079  0.3043 -0.0594  0.0487
13257W        W29391   0.027   6.048   4.985  0.1767 -0.2913 -0.1688
13258W        W29392  12.898   0.175   3.491 -0.1922 -0.0930  0.4991
13259W        W29393   5.312   3.966  14.036 -0.0535 -0.0624 -0.1803
13260W        W29394   0.731  13.616   0.223 -0.1495 -0.1626 -0.1872
13261W        W29395  13.984  14.224  12.454 -0.2949 -0.0095  0.2222
13262W        W29396   4.247  13.937  13.266  0.0776  0.1147  0.2240
13263W        W29397   4.804   2.570  14.461 -0.0004  0.0464 -0.1052
13264W        W29398   5.398  17.020   2.040  0.1191  0.0824 -0.2457
13265W        W29399   6.413  11.145  14.473  0.0417  0.0142  0.1107
13266W        W29400  17.511   3.013  13.289 -0.0117 -0.0620 -0.0972
13267W        W29401  18.166  10.561  12.483  0.0225 -0.0619 -0.0318
13268W        W29402   5.915   0.178   1.044 -0.1435  0.0916 -0.2454
13269W        W29403  12.564   1.434   4.484  0.1167  0.1450 -0.2193
13270W        W29404   6.270   3.873   2.810  0.1064  0.2002 -0.0770
13271W        W29405   9.842   2.146  13.748  0.0524  0.1555 -0.0228
13272W        W29406   1.515   2.488  13.217 -0.3654  0.2445 -0.2196
13273W        W29407   5.591  10.867  12.259 -0.2130 -0.1451 -0.1070
13274W        W29408   1.002   6.727   5.044 -0.0382 -0.0069  0.0849
13275W        W29409   0.142  12.773  13.860  0.1492 -0.1986  0.1146
13276W        W29410   7.592  10.886  13.457  0.0399  0.3467  0.1517
13277W        W29411  17.441  16.356  11.497 -0.0911 -0.1200 -0.1221
13278W        W29412   1.798   8.828  13.247  0.1724 -0.2362  0.0339
13279W        W29413  10.857  17.500  10.923 -0.0448 -0.1779 -0.1417
13280W        W29414  16.519   6.720   5.385 -0.2123  0.0869 -0.3559
13281W        W29415  11.484   6.419  14.394 -0.1353 -0.1333  0.2120
13282W        W29416   7.902  10.608  15.352  0.1642 -0.1336 -0.0575
13283W        W29417   0.805  10.230  11.175  0.0472  0.4819 -0.2787
13284W        W29418   0.802   8.656  12.322  0.1620  0.1678  0.1115
13285W        W29419   7.169  17.350  13.769 -0.0943 -0.1031 -0.2686
13286W        W29420   5.354   6.346   2.602  0.0792 -0.1742  0.1451
13287W        W29421   4.838  15.202  13.736 -0.4626 -0.4228 -0.1501
13288W        W29422  13.896   2.790  12.111 -0.0027  0.0453  0.2060
13289W        W29423  17.161   7.172   1.791  0.1778 -0.2255  0.2768
13290W        W29424  12.987   0.400   4.779  0.1705 -0.2137 -0.0234
13291W        W29425   8.280   5.474  11.547 -0.0655  0.1641  0.0014
13292W        W29426  17.644  10.235   2.165 -0.1580 -0.1096 -0.0615
13293W        W29427   0.338   4.168   1.302 -0.0984 -0.0060  0.0830
13294W        W29428   2.852   9.767   3.141 -0.0462 -0.0637  0.0646
13295W        W29429   6.297   8.444  12.382  0.0620  0.0224 -0.0209
13296W        W29430   7.953   4.506  11.498 -0.0063 -0.5293  0.1245
13297W        W29431   4.028   2.666   1.766  0.1184 -0.1981 -0.1992
13298W        W29432  14.222  13.345   2.747 -0.1794  0.1626 -0.2268
13299W        W29433   4.171  14.027  12.557 -0.0081 -0.2810 -0.0190
13300W        W29434   8.150   3.067   2.645  0.3007  0.1981  0.0506
13301W        W29435  13.587   7.454   2.806  0.1122 -0.1276 -0.2378
13302W        W29436   6.132  15.692   3.745 -0.0964  0.1192  0.1290
13303W        W29437  14.040   8.620  14.773 -0.1548 -0.0772 -0.0386
13304W        W29438  16.385  13.083  13.887 -0.3558 -0.3239 -0.0293
13305W        W29439  11.912  17.617   3.640  0.0215 -0.1694  0.2550
13306W        W29440  17.017  12.739  13.027  0.1684  0.0433 -0.1070
13307W        W29441   5.270   1.279   3.137  0.1243  0.1238  0.0554
13308W        W29442   0.305  13.337  12.574 -0.1853  0.0195 -0.1682
13309W        W29443   9.735   2.991  14.312 -0.1094  0.0116 -0.0904
13310W        W29444   9.554   2.776  12.552 -0.1535  0.2271 -0.1673
13311W        W29445  16.359  10.679   2.531  0.2256  0.1141 -0.0698
13312W        W29446   8.267  15.538  15.655 -0.1586 -0.0588 -0.2103
13313W        W29447   6.760  12.830   5.681 -0.0147 -0.0677  0.1218
13314W        W29448   4.274   7.181   1.777  0.1732  0.0040  0.0250
13315W        W29449   7.039  14.762   0.852 -0.1778  0.0880  0.1909
13316W        W29450  15.918   9.352   0.921  0.1876  0.3361  0.0778
13317W        W29451   4.688   8.212  14.837  0.0348 -0.1058 -0.0781
13318W        W29452   0.196  10.625   1.974 -0.0247 -0.0087  0.2659
13319W        W29453   0.286  12.764   1.484 -0.3219 -0.1186 -0.3243
13320W        W29454   8.055  11.698  15.314  0.0142 -0.2223 -0.0715
13321W        W29455   7.885   9.613   4.845 -0.4893  0.0939 -0.4842
13322W        W29456   2.092  13.503   1.994  0.0935  0.0023 -0.1022
13323W        W29457   6.215   3.605  13.350 -0.1825 -0.0772  0.1547
13324W        W29458   4.444  17.312  12.886  0.4379  0.0403  0.1823
13325W        W29459   3.142  15.314   4.710  0.1230 -0.3666  0.2309
13326W        W29460  14.650   3.359  15.641 -0.1639 -0.0181 -0.0405
13327W        W29461  13.958  16.809   0.685  0.5023  0.2935 -0.0078
13328W        W29462   9.863   5.597   1.977  0.1021  0.0900 -0.0045
13329W        W29463   6.506  13.001   1.162  0.0502 -0.0292 -0.1171
13330W        W29464   0.840  14.991   2.552  0.2466  0.0865 -0.1883
13331W        W29465   1.401   0.674   1.997 -0.2294  0.0946 -0.0931
13332W        W29466  18.089   3.531  15.473  0.0511 -0.0625  0.1344
13333W        W29467  17.674   8.204  15.145  0.0078 -0.3353  0.1692
13334W        W29468  10.135  10.491   5.703  0.1613 -0.0631  0.1750
13335W        W29469  13.159   8.746  13.771 -0.3507 -0.3234 -0.3208
13336W        W29470   0.246  17.126   0.387  0.0328  0.1197  0.0953
13337W        W29471   7.797  11.822   0.917 -0.0225 -0.0409 -0.0788
13338W        W29472  12.368   4.979   3.641  0.1007 -0.0594  0.1048
13339W        W29473   0.252   5.025   4.654  0.2852 -0.0495  0.1290
13340W        W29474   7.708  18.123   0.235  0.0806 -0.1703 -0.2341
13341W        W29475   3.439   5.327  15.524  0.3000  0.0694  0.1905
13342W        W29476  13.536  16.928   4.815 -0.1776  0.0980 -0.0932
13343W        W29477   1.704  11.365  12.413 -0.1772  0.0785  0.1249
13344W        W29478   4.134   4.276   4.428 -0.3836 -0.2916 -0.1771
13345W        W29479   7.495  14.184   4.337 -0.1050 -0.0582 -0.2228
13346W        W29480  11.648   0.694   4.423 -0.0224  0.2585  0.2870
13347W        W29481   5.798  18.314  15.079 -0.0398 -0.1275 -0.4959
13348W        W29482  12.395  16.992   3.005 -0.0308  0.1258  0.1899
13349W        W29483   8.819  13.372  14.464  0.1970 -0.0900  0.1229
13350W        W29484   0.856   9.289  11.477  0.1732 -0.0277  0.2625
13351W        W29485   8.157  17.008  14.641 -0.1707 -0.0599 -0.0474
13352W        W29486   4.572   9.818  13.990  0.1241  0.1207 -0.0536
13353W        W29487  16.284  11.755   0.930  0.0493 -0.0451 -0.1489
13354W        W29488  15.429  15.122  12.015  0.1863 -0.2247  0.2482
13355W        W29489   0.726   1.241  14.472 -0.0798 -0.1841  0.0959
13356W        W29490   4.837   1.874   5.573  0.0312  0.2054 -0.0451
13357W        W29491   2.267  12.868   3.409 -0.0449 -0.2430  0.0461
13358W        W29492  10.208   2.466   1.610 -0.1198  0.2502  0.2751
13359W        W29493   0.911   5.438  11.914  0.0747  0.0638 -0.1628
13360W        W29494  18.244  11.220   3.845  0.1931  0.0763  0.0065
13361W        W29495  10.761  15.861   0.645 -0.0922  0.0452 -0.2027
13362W        W29496  15.554   3.985   9.997  0.2257  0.2032 -0.2909
13363W        W29497   8.884  10.119  12.998 -0.0427 -0.1609 -0.2315
13364W        W29498  13.477   5.443  11.149 -0.0818 -0.2906  0.0818
13365W        W29499   1.389   6.039   1.697  0.1396  0.0089  0.1650
13366W        W29500  11.282  15.336  15.104 -0.0383  0.2424 -0.1133
13367W        W29501  15.655  17.296   4.049 -0.1741 -0.2172 -0.2632
13368W        W29502  14.843   6.436   3.299  0.1083 -0.0591  0.3300
13369W        W29503   8.265   2.449   4.583  0.2392 -0.0380  0.3283
13370W        W29504   9.547   5.306   2.325  0.0408  0.0738  0.0608
13371W        W29505   4.332  11.785  15.688 -0.0815  0.0344 -0.2140
13372W        W29506  15.087  13.192  13.393  0.1713  0.1988  0.3234
13373W        W29507  15.749  13.772  11.467  0.4183  0.1655  0.0619
13374W        W29508  10.413  12.075  13.104  0.0965  0.0682 -0.0654
13375W        W29509   2.994   5.000   4.062  0.0318  0.0774  0.0238
13376W        W29510   3.721   9.244  14.682  0.3901  0.1096  0.0500
13377W        W29511  16.946   6.542  12.512  0.2733  0.3066 -0.1966
13378W        W29512  12.482  12.326   4.601  0.0348  0.4070  0.1851
13379W        W29513  10.341   9.297   2.274 -0.0383 -0.0740  0.3499
13380W        W29514   1.853   8.354   2.747  0.1037  0.3092 -0.1131
13381W        W29515   3.098   5.764   4.523  0.0124  0.0406  0.2724
13382W        W29516   9.720   9.585   4.298 -0.0187  0.3058 -0.0900
13383W        W29517  10.358  14.777  12.336  0.0018  0.3738 -0.2382
13384W        W29518   1.101  13.708  11.977 -0.0770 -0.0450  0.1147
13385W        W29519   1.127  13.509  15.640  0.0634 -0.1530  0.0019
13386W        W29520  14.344   6.042   5.362  0.0655 -0.2491  0.0264
13387W        W29521   8.940   4.044   2.028 -0.4516 -0.0615  0.0356
13388W        W29522  14.401   6.081  14.039 -0.1252  0.3641 -0.1300
13389W        W29523  10.893  14.775  13.054 -0.0025  0.2428 -0.0012
13390W        W29524   2.653   6.238  11.061  0.4338  0.1082 -0.1084
13391W        W29525   6.954  10.164   1.938  0.2939 -0.0200 -0.0543
13392W        W29526  11.190   7.920   0.547  0.1406 -0.0660  0.1255
13393W        W29527   0.113  16.577   2.429  0.1219 -0.0466  0.0391
13394W        W29528   5.864   6.273   3.669 -0.1396  0.0244  0.2363
13395W        W29529   4.285  10.278  10.813 -0.1056 -0.1204  0.0318
13396W        W29530   8.417  16.489   0.764  0.2006  0.4795 -0.3248
13397W        W29531   1.220  11.858   0.536 -0.0926 -0.1884 -0.2584
13398W        W29532  10.682   7.944  12.341  0.0467  0.3391  0.2483
13399W        W29533   2.395   5.233   4.601  0.1051 -0.0558 -0.2408
13400W        W29534  12.894   1.374  12.678  0.0858  0.0289  0.2262
13401W        W29535  13.110   2.906   1.289 -0.0527 -0.0278  0.2806
13402W        W29536   4.886  10.169  11.482 -0.0292  0.1605 -0.3313
13403W        W29537  17.783  15.246   3.944  0.1593  0.0485  0.3015
13404W        W29538  14.973   5.075   4.771  0.1278 -0.0817  0.1622
13405W        W29539  18.119   1.852  13.934  0.0611  0.0409 -0.0398
13406W        W29540   6.784   5.727   0.968  0.2155  0.1383 -0.0695
13407W        W29541   4.150  13.582  11.127 -0.1897  0.0171 -0.3219
13408W        W29542  15.719  12.677   4.161 -0.3131  0.0609  0.0110
13409W        W29543   5.387   7.308  14.922  0.0856  0.1690  0.1888
13410W        W29544   8.519  17.295  15.459  0.1168  0.0954  0.1843
13411W        W29545   0.636  18.066  11.146 -0.0153  0.2262  0.5849
13412W        W29546  11.883  13.897  12.660 -0.0936 -0.5337  0.2326
13413W        W29547   5.953   5.847  13.982  0.1114 -0.0242 -0.0519
13414W        W29548  14.153  17.504  12.636  0.0264 -0.3868  0.0214
13415W        W29549   1.817   5.278   4.804 -0.2093 -0.1191  0.4418
13416W        W29550  11.863   4.451  11.310  0.1705 -0.0391 -0.3144
13417W        W29551  15.869   3.102   1.510  0.0070  0.1731 -0.1797
13418W        W29552   3.183  11.145  13.811 -0.2550 -0.0896 -0.1887
13419W        W29553   1.976  12.990   0.908  0.2304  0.2147 -0.2721
13420W        W29554  17.493   1.746  11.324 -0.2422  0.1592  0.1889
13421W        W29555   5.191   4.664  10.013  0.1544  0.1738  0.1039
13422W        W29556  10.675  10.807  12.380 -0.0815  0.1709  0.0910
13423W        W29557   5.003   5.309  15.479 -0.0832 -0.1409 -0.1890
13424W        W29558  17.984   1.256  12.299 -0.0746 -0.0733 -0.1281
13425W        W29559  17.123  11.892   0.829 -0.0296 -0.3894  0.1020
13426W        W29560   8.321  18.329  11.731 -0.1361 -0.1171  0.2152
13427W        W29561   9.065  12.419  14.213  0.0878  0.1898 -0.3248
13428W        W29562  11.169   0.250   3.436 -0.2572  0.0794  0.0638
13429W        W29563  15.137   8.626   0.058  0.0086 -0.3683 -0.0080
13430W        W29564  15.093   6.168  12.746  0.0528 -0.0408  0.2922
13431W        W29565   6.459   0.798  14.604  0.1587  0.4077  0.0447
13432W        W29566  10.027   6.416   2.674 -0.0938  0.1645 -0.0857
13433W        W29567  16.043  14.610  11.969 -0.1826  0.1758  0.0675
13434W        W29568   0.263   6.271  10.979 -0.0285  0.0905  0.2032
13435W        W29569  10.985   7.307  14.887 -0.1433 -0.2664 -0.2194
13436W        W29570   9.542  14.227  15.006 -0.0130 -0.2331 -0.0894
13437W        W29571   6.618  16.781   4.962 -0.3189  0.3543 -0.2472
13438W        W29572   2.165   8.845   5.132 -0.1628  0.2048  0.1928
13439W        W29573  11.989   6.224   5.418 -0.0326 -0.0681 -0.0189
13440W        W29574   1.079  11.420  14.915  0.3253 -0.1736  0.1866
13441W        W29575  13.733  14.197  13.326 -0.0994 -0.0332 -0.0968
13442W        W29576   3.961   2.045  12.986  0.1266  0.0708  0.1621
13443W        W29577   8.754  11.951   4.539 -0.0045  0.0298 -0.0606
13444W        W29578  12.847  16.381   2.528 -0.0469 -0.3089  0.0014
13445W        W29579   4.789   0.381   0.670 -0.2191 -0.0901  0.1604
13446W        W29580  15.057  14.223   3.685 -0.2412  0.1398 -0.2120
13447W        W29581  15.503  15.241   2.170 -0.0322 -0.0022 -0.0635
13448W        W29582  18.323  16.166  12.586 -0.3544  0.1765  0.2280
13449W        W29583  11.808  15.268  11.636  0.1523  0.3947 -0.0979
13450W        W29584  14.339  10.291   9.996 -0.0799 -0.2047  0.0315
13451W        W29585   9.401  11.787   5.141  0.3768 -0.1623 -0.0805
13452W        W29586   0.191   4.938   0.653  0.0919  0.1469 -0.1558
13453W        W29587  17.113  10.690   2.877 -0.3368 -0.2218  0.2299
13454W        W29588   3.088   2.194   4.143  0.1829  0.1466 -0.0645
13455W        W29589  16.169  13.315  12.598 -0.0656  0.0877  0.0974
13456W        W29590   1.825  10.154  12.230 -0.0864 -0.3841 -0.0872
13457W        W29591   0.868  13.275   1.517  0.0895  0.0484 -0.0685
13458W        W29592  16.799   7.365  14.657  0.2034 -0.0330 -0.0953
13459W        W29593  15.062  14.259  12.538 -0.1517  0.2173  0.4871
13460W        W29594  14.818   0.111  12.113 -0.1638  0.3634  0.0923
13461W        W29595  11.278  13.894   1.486  0.0798 -0.0789 -0.3664
13462W        W29596   9.111   6.084  12.250 -0.1879 -0.0697  0.2639
13463W        W29597   7.901  11.603  11.706 -0.1109  0.0618  0.0654
13464W        W29598  15.115   0.835   3.162 -0.0756 -0.1781 -0.2197
13465W        W29599   5.022  17.870   3.296  0.2781 -0.0058 -0.2656
13466W        W29600   8.998   0.472  15.055  0.2778 -0.1500  0.3258
13467W        W29601   5.148   6.126  11.988  0.4448  0.0978 -0.1529
13468W        W29602  16.397   2.734  14.698  0.1475 -0.0966  0.1778
13469W        W29603  14.664   4.132  14.138  0.1875  0.3103  0.1552
13470W        W29604   3.189  18.080  11.190  0.2477  0.0087 -0.2067
13471W        W29605   3.488  16.594   1.219  0.2459 -0.1148  0.0865
13472W        W29606  10.907  12.717   3.669 -0.4260  0.2198  0.0120
13473W        W29607  12.110   4.666  12.902  0.0771 -0.1419 -0.0529
13474W        W29608  18.385   0.230  11.149 -0.0811 -0.1835  0.0786
13475W        W29609  10.320  12.503  11.455 -0.2490  0.1229 -0.0572
13476W        W29610  12.427   2.952  15.712 -0.1527 -0.0730  0.0525
13477W        W29611   9.215   0.225  12.023  0.1757  0.0330 -0.1413
13478W        W29612   4.330  15.404   5.572 -0.1552 -0.2129  0.0451
13479W        W29613   7.208   4.411   0.334 -0.0805 -0.0715  0.2069
13480W        W29614  10.719  11.583   3.973  0.2453 -0.0776 -0.1146
13481W        W29615   3.586  14.342   0.296 -0.2265 -0.1486  0.2085
13482W        W29616   8.121  10.505  14.595  0.0157  0.1151  0.0478
13483W        W29617  15.258  14.316  14.103  0.1068  0.0156  0.3284
13484W        W29618  13.334  15.733  11.044  0.1537 -0.0527  0.0721
13485W        W29619   2.839   9.835   0.582 -0.0162 -0.0237 -0.0097
13486W        W29620   2.581  13.643   0.429  0.2388  0.2085 -0.0703
13487W        W29621  16.054   3.646  13.551 -0.1526  0.1142  0.0518
13488W        W29622   5.601   3.443   4.867  0.2249 -0.0871 -0.0325
13489W        W29623   0.539   8.359  15.015 -0.1979 -0.0981  0.0630
13490W        W29624  10.805   8.855  14.644  0.2950 -0.2713  0.0594
13491W        W29625   7.372   9.951  13.406 -0.2528 -0.0051 -0.2286
13492W        W29626  10.111   1.690  13.882  0.2036 -0.2440  0.2655
13493W        W29627  14.625   2.763  14.917  0.0620  0.1772 -0.1769
13494W        W29628  16.075  13.985   3.706  0.1555  0.2211 -0.0327
13495W        W29629   0.038  16.145   4.717  0.2381  0.0994 -0.0751
13496W        W29630  10.900  15.907   1.588 -0.2197  0.0777 -0.3231
13497W        W29631   6.573   4.745  12.918 -0.2867 -0.2326  0.1041
13498W        W29632   9.626  12.399   4.257 -0.1558 -0.0216 -0.0416
13499W        W29633  13.160  15.066  11.465  0.3277 -0.0084  0.1265
13500W        W29634  10.834   0.463  14.188 -0.1190  0.2426 -0.0826
13501W        W29635   3.872  17.045   4.948  0.1662 -0.2276 -0.0866
13502W        W29636   8.346  14.059   1.356  0.0601 -0.0823  0.0770
13503W        W29637   9.898   9.422  12.244  0.2352  0.0085  0.0415
13504W        W29638  13.249  16.506   1.286  0.1107  0.0033  0.2574
13505W        W29639   5.380  14.152  14.399  0.0440 -0.0333 -0.0277
13506W        W29640  16.979   5.503   0.496  0.0896  0.1469 -0.0948
13507W        W29641  14.044  16.090   0.109 -0.0573 -0.0868 -0.1788
13508W        W29642   8.626   3.001   3.384 -0.4041  0.0459  0.2570
13509W        W29643   7.061   4.735   4.868  0.4290  0.2080  0.1337
13510W        W29644   4.456   7.296   0.079 -0.3152  0.0363  0.0110
13511W        W29645  13.851  14.387  14.424 -0.1326 -0.0510 -0.0523
13512W        W29646  17.795   5.111  14.780  0.0016  0.0103  0.0933
13513W        W29647  17.928  15.639  14.454 -0.0702 -0.0309 -0.1963
13514W        W29648   2.879  16.972  14.127 -0.1333  0.0440  0.0422
13515W        W29649   3.049   3.242   4.514 -0.1712  0.4137  0.1581
13516W        W29650   3.914  13.620   0.752  0.0951 -0.0041 -0.1426
13517W        W29651  12.138  16.585  11.198  0.2343  0.2022  0.0694
13518W        W29652  18.052   8.439  13.279  0.2296 -0.0338  0.3528
13519W        W29653  11.084   9.687   1.170 -0.1386  0.3255  0.2210
13520W        W29654  12.071   8.220  11.161  0.2258 -0.0307  0.1234
13521W        W29655  10.982  13.440   4.182  0.0198  0.1920 -0.2340
13522W        W29656  10.426   4.806  12.361 -0.0817 -0.0520 -0.0131
13523W        W29657  10.320   3.193   2.714  0.1635  0.0991 -0.0503
13524W        W29658   4.794  12.583  10.950 -0.1228  0.2561 -0.0780
13525W        W29659  13.738  10.320  14.172  0.0493 -0.0012 -0.1366
13526W        W29660  14.657   3.696  14.415 -0.0743  0.3694  0.0592
13527W        W29661  13.256   8.042  13.647  0.0550 -0.1157 -0.0087
13528W        W29662   0.069  11.688   5.550 -0.1959 -0.2041 -0.0811
13529W        W29663  16.123   6.024   0.813 -0.2196 -0.0687  0.0754
13530W        W29664  14.831   5.731   1.249  0.1334  0.0243  0.1883
13531W        W29665   9.743   1.694  13.592 -0.1342 -0.4178 -0.1143
13532W        W29666  10.759   8.136   5.761 -0.1353  0.0058  0.0478
13533W        W29667   6.233  11.723  11.204  0.1349 -0.0338 -0.1158
13534W        W29668   5.570  14.403   5.503  0.2169  0.3357 -0.0888
13535W        W29669  11.685   1.996  11.412 -0.0711 -0.2604 -0.0647
13536W        W29670  12.786  13.002  12.260  0.1523  0.0138 -0.0843
13537W        W29671  15.187   4.005   0.538  0.0795  0.2312  0.1360
13538W        W29672  13.809   0.095  13.380 -0.0769  0.1827  0.3705
13539W        W29673  11.340  15.288   2.846  0.1480  0.1626 -0.1513
13540W        W29674  18.035  10.930   2.928 -0.0169 -0.1034 -0.2232
13541W        W29675  11.250  11.800  12.360  0.1713 -0.3929 -0.0269
13542W        W29676   0.016   5.136  11.790 -0.2101  0.1306 -0.0331
13543W        W29677  14.567  10.772   1.428 -0.1116  0.0724 -0.2662
13544W        W29678   5.258  11.954  15.452  0.1968  0.5257 -0.1894
13545W        W29679  12.995  17.416   2.904 -0.1921 -0.2191  0.1892
13546W        W29680  15.072   9.099   2.379  0.0863 -0.1149  0.1581
13547W        W29681  11.187   1.212  13.528  0.2182 -0.1019  0.0893
13548W        W29682   6.841   2.141   5.372 -0.1492 -0.2874  0.0486
13549W        W29683  10.222   2.773   0.124 -0.1025  0.0896 -0.1641
13550W        W29684   0.002  14.700  11.746 -0.1645  0.0499 -0.0298
13551W        W29685  18.152  15.161  12.738  0.3647 -0.3711  0.1618
13552W        W29686   6.293   2.526   2.650  0.2450 -0.0824 -0.1693
13553W        W29687  15.310   4.380  15.137 -0.1969 -0.2145 -0.1413
13554W        W29688   6.878   5.883   5.538 -0.1970  0.0103 -0.2403
13555W        W29689  12.908  13.220   2.908  0.2018  0.4103 -0.0178
13556W        W29690  15.027   3.551  15.308  0.1079 -0.0124 -0.0077
13557W        W29691   1.066   5.140   0.701  0.0864 -0.3338  0.0409
13558W        W29692  15.215  11.660  12.989  0.1959 -0.0557  0.0911
13559W        W29693  18.187   2.473  15.036  0.2301  0.0937 -0.1505
13560W        W29694  11.303  12.599  11.340 -0.0717 -0.0376  0.0743
13561W        W29695   5.908   9.023  15.045  0.1236 -0.1273 -0.1845
13562W        W29696  10.799  14.391   6.048 -0.3505 -0.1853 -0.1454
13563W        W29697   3.003  17.259   2.573  0.2306 -0.2540  0.0579
13564W        W29698   1.412  15.317  12.436 -0.2010 -0.1520 -0.1093
13565W        W29699   8.339  13.280  10.280  0.2002  0.1940 -0.1068
13566W        W29700   9.348   8.563  11.988  0.3214 -0.0643  0.1334
13567W        W29701   6.947   7.836   3.836 -0.1111 -0.2103 -0.1116
13568W        W29702   5.621  13.563  12.793 -0.1417 -0.0258  0.0273
13569W        W29703  11.579  17.983   1.181  0.1718  0.3951 -0.0056
13570W        W29704   2.171  13.399   2.971 -0.1231  0.1354  0.0143
13571W        W29705  12.782  18.058  12.888 -0.1355  0.2429 -0.4470
13572W        W29706   6.960   3.407  15.279 -0.1726  0.0048  0.1120
13573W        W29707   4.223   9.519   1.487 -0.1069 -0.0464  0.0437
13574W        W29708  15.439   2.378   4.349  0.3249  0.1219  0.0117
13575W        W29709   0.574   6.533  14.326  0.1275  0.0762 -0.1189
13576W        W29710   7.964  14.660  11.258 -0.3003 -0.0484 -0.0193
13577W        W29711   9.204  16.952   5.458  0.2081 -0.0345 -0.0646
13578W        W29712  14.305   1.952   4.516  0.0738 -0.0844  0.2058
13579W        W29713  17.057   6.449   0.609  0.0361  0.2993 -0.0951
13580W        W29714  13.888   8.146  12.609 -0.0970 -0.1121 -0.2471
13581W        W29715  12.749  15.660  14.884  0.1196 -0.6312  0.0634
13582W        W29716   7.342   1.824  14.229  0.3675  0.1606  0.0816
13583W        W29717   8.869   5.659  12.430  0.1301  0.0522  0.0260
13584W        W29718   2.544   3.272  14.552 -0.2268 -0.1875 -0.0237
13585W        W29719  11.085  10.373   6.206  0.1529 -0.3222 -0.1238
13586W        W29720   8.666  17.007  11.234  0.2264 -0.1696 -0.1971
13587W        W29721   4.540   5.614   2.472 -0.0406 -0.3119 -0.0811
13588W        W29722   2.371   8.948  11.932 -0.0340  0.0082  0.2073
13589W        W29723  10.331  13.424   2.290 -0.0659  0.0887 -0.1268
13590W        W29724  18.068   4.063  10.815  0.0350 -0.0498 -0.2211
13591W        W29725  13.802  17.437  14.568  0.2890 -0.1455  0.2228
13592W        W29726  13.298  11.499  12.000  0.0519  0.1522  0.0016
13593W        W29727   5.862   4.018   1.288  0.2895  0.2727  0.2017
13594W        W29728   1.429   7.213  13.831  0.2406  0.0238  0.0182
13595W        W29729  14.525   8.703   2.177 -0.1278  0.1155 -0.0322
13596W        W29730  15.274   6.386   9.820 -0.2182 -0.0347  0.0489
13597W        W29731   0.530   5.556  15.801 -0.3354  0.0149  0.2735
13598W        W29732  14.583   3.894  10.230  0.0620 -0.0048 -0.1924
13599W        W29733  10.770  15.535   1.873 -0.1139 -0.1399  0.2254
13600W        W29734   7.563   4.710   2.816  0.1949  0.0385  0.2172
13601W        W29735   3.058  17.839   5.100  0.0032 -0.0550 -0.0665
13602W        W29736   7.799   8.575   1.583  0.4946 -0.1148  0.0203
13603W        W29737  10.458  13.436  11.123 -0.1111 -0.0884  0.0832
13604W        W29738  16.320  16.080   1.196  0.1563 -0.1643 -0.0800
13605W        W29739  17.908  10.394   1.637 -0.2463 -0.0963  0.0304
13606W        W29740  13.480   4.319  12.167 -0.4554  0.1291 -0.0643
13607W        W29741   6.543   7.461   0.864  0.0080 -0.3535  0.2676
13608W        W29742  11.806  16.502  14.570  0.1477  0.2239  0.2083
13609W        W29743  10.963   7.604   0.199 -0.1109 -0.1120 -0.2481
13610W        W29744   2.343   0.003   4.801 -0.1602 -0.1671  0.2300
13611W        W29745   7.694  14.908   0.471  0.2923  0.2024  0.3328
13612W        W29746  14.929  10.068  14.228  0.3878 -0.0854  0.0906
13613W        W29747   0.850   1.330  12.030  0.0994  0.1022 -0.1710
13614W        W29748   1.763  12.453   1.659  0.1154  0.0909 -0.1571
13615W        W29749   4.567   5.140   1.636  0.1554  0.0844  0.1108
13616W        W29750   2.476  10.075  13.788 -0.0017  0.1007 -0.5347
13617W        W29751  17.889   3.629   5.082  0.5156 -0.3441  0.0496
13618W        W29752  16.461  14.571  11.676  0.0022 -0.2312 -0.0408
13619W        W29753   5.554  11.364   3.477  0.0620  0.0364  0.1755
13620W        W29754  18.070   2.535  11.791 -0.1132 -0.1151  0.0386
13621W        W29755  12.653   8.350  12.120  0.0717 -0.0257  0.1446
13622W        W29756   1.486   5.098   0.019 -0.2458 -0.0954  0.0713
13623W        W29757   4.738   7.069   3.752  0.1954  0.1214 -0.1576
13624W        W29758  10.950  15.153   0.088 -0.4409 -0.0606 -0.0818
13625W        W29759   8.112   3.832  12.097  0.0133  0.1599 -0.0435
13626W        W29760   1.845   6.702   4.270  0.1165  0.0194  0.0566
13627W        W29761  12.694   6.979   4.066 -0.0043  0.2431 -0.1514
13628W        W29762  13.386   0.420   5.275 -0.2269  0.1167  0.2367
13629W        W29763  12.595  15.714  12.881 -0.0834 -0.1887  0.2996
13630W        W29764  15.053   4.704   2.098 -0.0113 -0.1291  0.2512
13631W        W29765  13.180   5.256   4.460  0.1216 -0.1874 -0.2132
13632W        W29766  18.046  14.150  14.100 -0.0111 -0.0411 -0.1011
13633W        W29767  12.810  14.001   1.840  0.1523  0.1574 -0.1657
13634W        W29768   9.652   0.277  11.887 -0.4618  0.0606 -0.4067
13635W        W29769   8.513  12.346   0.143 -0.0952  0.0903 -0.2372
13636W        W29770  18.216  17.548   1.007 -0.1756 -0.2388  0.0119
13637W        W29771  10.913   3.231   3.826 -0.0462 -0.1024  0.1156
13638W        W29772  17.114  16.013   3.569 -0.0446  0.0307  0.0914
13639W        W29773   3.431   4.926   4.867  0.0326  0.0730  0.1406
13640W        W29774  11.539   6.893   1.916  0.1593 -0.0281  0.0674
13641W        W29775   6.617   2.145   1.482 -0.0510 -0.1107  0.0975
13642W        W29776   7.212  11.209  15.157  0.0733 -0.0270 -0.0429
13643W        W29777   0.715  14.464   1.772 -0.2771 -0.2855  0.2856
13644W        W29778   8.453  17.632   2.849  0.0970  0.0939  0.2614
13645W        W29779   6.066   7.541   2.316  0.2179 -0.2261 -0.1805
13646W        W29780   3.686   4.173  12.918  0.1217 -0.0982 -0.0582
13647W        W29781  13.503   5.962   4.767 -0.1810 -0.0104  0.0584
13648W        W29782  11.738  13.694   3.919 -0.2058 -0.3040 -0.1895
13649W        W29783   9.034  14.913   5.776 -0.1885 -0.3698  0.0594
13650W        W29784  14.145  16.864   0.197  0.0640 -0.1718 -0.1973
13651W        W29785  10.591  12.970  12.189 -0.1025  0.0366 -0.3494
13652W        W29786   7.544  10.186  12.007  0.3220  0.0744  0.0103
13653W        W29787   8.171   6.089   2.610  0.0927  0.3038  0.1194
13654W        W29788  14.641  17.742   5.101 -0.3271  0.0599 -0.0782
13655W        W29789   5.472   4.642   4.128 -0.0047  0.0721  0.0147
13656W        W29790   9.224  14.815   3.647 -0.1007  0.1749  0.1845
13657W        W29791   8.080   3.662  13.105  0.3656 -0.0022 -0.0465
13658W        W29792  10.261   1.813   3.563  0.1454 -0.0503  0.0173
13659W        W29793   2.139  12.650  15.810 -0.1545 -0.0303 -0.0868
13660W        W29794   9.245   6.210  15.722  0.2495 -0.0869  0.1112
13661W        W29795   9.441   4.210  11.484 -0.1500 -0.0803 -0.2029
13662W        W29796   3.567  18.100   3.830 -0.1328  0.0781  0.1000
13663W        W29797  10.834  13.171   1.037 -0.1015 -0.0256  0.0756
13664W        W29798  11.375  14.180   1.938 -0.0207  0.1796 -0.0054
13665W        W29799   1.645   4.508   1.017 -0.1388  0.2247  0.1127
13666W        W29800   7.751  11.236  11.262  0.3800 -0.0880  0.0868
13667W        W29801   8.398   7.083   3.645 -0.1257  0.2339 -0.0955
13668W        W29802  16.189  17.642   4.613  0.3329  0.1805 -0.2569
13669W        W29803   2.905   2.189  12.905 -0.0298 -0.0277  0.0967
13670W        W29804  13.167  16.594   3.312  0.3038 -0.2029  0.0153
13671W        W29805   8.534  17.769   2.349 -0.2259  0.1420 -0.1591
13672W        W29806  17.598   7.327   1.121 -0.1965  0.1059 -0.2242
13673W        W29807  12.107   2.740  14.906 -0.0334 -0.1808 -0.0262
13674W        W29808  11.711   5.779   5.223  0.0339 -0.1697 -0.1085
13675W        W29809  13.230   4.030  15.771  0.0555 -0.0100  0.0004
13676W        W29810  12.869   6.721   0.699  0.0158  0.0384 -0.1341
13677W        W29811   3.447   5.711   1.004 -0.0960 -0.1528 -0.2193
13678W        W29812  14.680  15.483   4.501  0.1114  0.0414  0.1658
13679W        W29813   8.974   4.384  11.509 -0.1460  0.0500 -0.0309
13680W        W29814  13.132   1.882  10.291  0.1296 -0.1069  0.3292
13681W        W29815   6.877  16.351   5.320  0.2661  0.1237  0.1825
13682W        W29816  11.413  17.703  13.364  0.1078  0.2393  0.0158
13683W        W29817  12.742   2.148   2.473  0.3652  0.1965 -0.1582
13684W        W29818   5.632   7.372  11.388  0.0048 -0.2163  0.0743
13685W        W29819  15.300   9.909  13.910 -0.1529 -0.1199  0.1938
13686W        W29820  16.429  17.205  14.078 -0.0061  0.0100 -0.2333
13687W        W29821   6.783   5.947   3.855 -0.0612 -0.0679 -0.0036
13688W        W29822   3.820   6.094  14.932 -0.1090 -0.2885  0.1179
13689W        W29823   0.629   2.776   4.737 -0.0903 -0.0488 -0.0728
13690W        W29824  11.695  12.363  13.870  0.0828  0.5384 -0.1630
13691W        W29825   9.518  10.083   2.179 -0.2286  0.1961  0.0394
13692W        W29826   1.056   5.407  14.152  0.1055 -0.0200 -0.3189
13693W        W29827  13.607  18.198  15.313  0.0082  0.1780  0.3402
13694W        W29828  17.399   9.663   3.127  0.0869  0.1675  0.1824
13695W        W29829   9.005  13.404   0.692  0.2325 -0.0926 -0.0851
13696W        W29830   8.526   2.691  11.629 -0.1285 -0.2086 -0.0331
13697W        W29831   3.281  16.205  14.805 -0.1093 -0.1604  0.0221
13698W        W29832   3.189  14.109   2.557  0.0818  0.2846 -0.0919
13699W        W29833   4.074   9.938   1.177  0.0485 -0.1680 -0.1873
13700W        W29834   8.134  15.160  11.264  0.4369  0.0305 -0.0483
13701W        W29835   5.598  14.674  11.500  0.1242 -0.1785 -0.1374
13702W        W29836   1.407   2.444   3.242 -0.1365  0.0695  0.0193
13703W        W29837   8.017  11.920   4.918 -0.2063 -0.1161 -0.1138
13704W        W29838  16.674   6.059   3.736  0.0531  0.1460  0.3723
13705W        W29839  11.727   7.075  13.637  0.0536  0.0727 -0.2725
13706W        W29840  17.138   5.643   4.929 -0.1551 -0.0824 -0.1136
13707W        W29841  11.480  15.187   0.412 -0.0246 -0.1278  0.0188
13708W        W29842  14.211  12.794  13.422 -0.1481 -0.1926 -0.2779
13709W        W29843   0.894   2.168   4.879 -0.1041  0.3436 -0.5942
13710W        W29844   1.868  18.460  14.787  0.0174 -0.2713 -0.2523
13711W        W29845  12.616   7.830  12.298 -0.0658  0.0676  0.1396
13712W        W29846  13.113   5.461   3.239 -0.0862  0.0703 -0.3114
13713W        W29847  15.084   2.581  12.670 -0.0168  0.1437  0.1215
13714W        W29848   7.017   0.896  14.526  0.0010 -0.1527  0.0365
13715W        W29849   3.468   7.221  10.979 -0.0326 -0.2211  0.0254
13716W        W29850   4.152  15.702   0.322 -0.0422 -0.0386 -0.1079
13717W        W29851  15.101   9.728  15.835  0.1037 -0.2155  0.3302
13718W        W29852   6.050  15.768  14.253  0.0308  0.0837 -0.0585
13719W        W29853   5.993   7.754   5.428 -0.0427  0.1956 -0.2582
13720W        W29854  14.686   8.753  13.636 -0.1752  0.0234  0.3233
13721W        W29855  11.451  16.597  12.272 -0.1765  0.4291  0.1265
13722W        W29856   0.724   4.928   1.975  0.0621  0.0956 -0.0182
13723W        W29857  15.257  10.953  14.578  0.0920  0.1212  0.2985
13724W        W29858  13.053  16.548   0.309  0.2917  0.4425  0.0749
13725W        W29859   9.462  10.900   3.697  0.0060 -0.1123  0.0629
13726W        W29860  10.713   9.733  15.476 -0.0374 -0.0740  0.1350
13727W        W29861   3.998  17.523   4.835  0.1078 -0.1680 -0.1431
13728W        W29862  16.480  11.315   0.009 -0.0786  0.3923 -0.0585
13729W        W29863  13.280   2.564  15.292  0.1965  0.1011 -0.0382
13730W        W29864  14.567  13.337   1.017  0.1000 -0.0427 -0.0615
13731W        W29865   8.715   6.737   4.079 -0.2612 -0.1620  0.1526
13732W        W29866   0.223   0.347  10.651  0.3555  0.2295  0.2841
13733W        W29867  16.372  10.908  14.498 -0.3130  0.0398  0.0752
13734W        W29868   4.989  15.465  14.379 -0.1099 -0.0863 -0.0514
13735W        W29869  12.002  12.321   3.217  0.0337 -0.1230  0.0444
13736W        W29870  10.476  13.385   2.792  0.0996 -0.2239  0.0553
13737W        W29871   5.541  15.441   2.622  0.0785  0.0321 -0.0986
13738W        W29872   7.521  13.540   1.951  0.1645 -0.0194  0.0331
13739W        W29873   5.789  13.350  14.006  0.1997  0.4127 -0.1093
13740W        W29874   5.783  18.272  11.728  0.0972 -0.0531  0.0704
13741W        W29875   6.476   4.803   2.969  0.0380  0.1510  0.4252
13742W        W29876  15.741  10.049  12.391  0.0505  0.0293  0.3341
13743W        W29877   3.705   3.740   2.082 -0.4490  0.1880 -0.4231
13744W        W29878   8.782  13.777   1.021 -0.0663 -0.2789 -0.1768
13745W        W29879   2.956   5.313  15.286 -0.1042  0.0717 -0.0335
13746W        W29880   9.531   6.340   0.749  0.0496  0.0422 -0.0048
13747W        W29881   4.615   3.646   1.026  0.0665  0.0038 -0.1169
13748W        W29882   5.743   7.036   0.666  0.1714 -0.0046 -0.0947
13749W        W29883   0.514   4.230  15.256 -0.1911 -0.0468  0.1518
13750W        W29884   5.991   6.665   1.832  0.2884 -0.1971  0.0897
13751W        W29885   0.634   8.871  11.048 -0.0259 -0.2681 -0.1307
13752W        W29886  14.505   5.348  15.243  0.2835  0.2505  0.2727
13753W        W29887  11.853   5.793   1.986  0.0222 -0.2347 -0.3172
13754W        W29888   4.425   5.821   1.046  0.1733  0.0007 -0.1914
13755W        W29889  16.764  10.214   1.998  0.0610  0.1207  0.2371
13756W        W29890   1.999   9.965   4.019  0.1899  0.0182  0.2097
13757W        W29891   3.682  17.225   2.148 -0.1089 -0.0436 -0.1163
13758W        W29892   3.347  10.657  10.913 -0.2875 -0.2020 -0.3517
13759W        W29893   0.933   6.496   0.278  0.1360  0.0529 -0.0219
13760W        W29894   9.967  17.988  14.579  0.2075  0.2104  0.3085
13761W        W29895   2.207   4.922  11.258  0.0811  0.2437 -0.0898
13762W        W29896  15.552   8.860  13.964 -0.0564  0.4486  0.0225
13763W        W29897   9.449  10.080   4.112  0.1943  0.2272 -0.0085
13764W        W29898  11.011   7.183  13.804 -0.1690  0.1807  0.1773
13765W        W29899  12.673  17.581  10.813  0.2083  0.1721 -0.2277
13766W        W29900   6.290   5.222  12.937  0.2647  0.1279 -0.2180
13767W        W29901   5.920  11.091  15.230  0.1235 -0.2254  0.0944
13768W        W29902  14.160  10.291   3.227 -0.1028 -0.0394 -0.1217
13769W        W29903   9.102   7.720  13.850  0.1067 -0.1577 -0.1956
13770W        W29904  13.798   2.725  11.167 -0.0581  0.0777 -0.0982
13771W        W29905   6.495  15.478   4.002  0.1264 -0.1207  0.1932
13772W        W29906  10.831  13.033  14.212 -0.1294  0.0040  0.2417
13773W        W29907   6.284  14.749  15.493 -0.0169 -0.2510  0.2766
13774W        W29908  12.997  17.563  13.991  0.1404 -0.0686  0.2676
13775W        W29909   7.005   4.852   3.624 -0.3119 -0.1813  0.1691
13776W        W29910  14.020   7.124  15.391  0.4062 -0.1415  0.0884
13777W        W29911   5.146   7.516   2.910 -0.0460  0.2444  0.1226
13778W        W29912   1.522  12.246   4.054  0.3780 -0.4408 -0.0868
13779W        W29913   0.850   5.934  13.495 -0.0731 -0.0258  0.3909
13780W        W29914   9.137  13.610   1.378  0.1545  0.0917 -0.2668
13781W        W29915   6.613   2.040   4.869 -0.1947  0.0015 -0.0081
13782W        W29916   9.332  13.034   5.718 -0.0931 -0.2922  0.2669
13783W        W29917  12.600   9.592  14.654  0.0176 -0.0730  0.1629
13784W        W29918   8.621  13.608   3.761  0.0212  0.3547 -0.1766
13785W        W29919   5.959  17.071   0.228 -0.1549  0.1596  0.0197
13786W        W29920   3.925  15.540   5.108  0.0977 -0.1146  0.0313
13787W        W29921   5.320   5.825   0.109  0.4603 -0.1605 -0.0918
13788W        W29922   0.730   1.900   3.492  0.0738 -0.1001  0.2404
13789W        W29923   0.938   2.666   2.104 -0.2703  0.1181 -0.0957
13790W        W29924   0.405   6.873   0.342  0.0608  0.1075  0.0665
13791W        W29925  11.769   8.523  14.356 -0.0630 -0.1424  0.1840
13792W        W29926  18.062   3.950  15.210  0.1958  0.0098 -0.0007
13793W        W29927   8.999   4.081  13.342  0.1035  0.0861  0.1697
13794W        W29928  18.070  14.193   0.115 -0.3095 -0.3245 -0.3393
13795W        W29929   2.767   5.476  10.620  0.1244 -0.3508 -0.3747
13796W        W29930  17.944  11.656  13.253 -0.1453 -0.1189  0.2337
13797W        W29931   2.428  18.279  13.317 -0.0834 -0.0952  0.2745
13798W        W29932   8.818   6.953   1.529 -0.0583  0.1099  0.1441
13799W        W29933  16.520   0.878  14.395  0.0060 -0.3227 -0.1446
13800W        W29934   7.042   6.555  11.888  0.0717 -0.1093 -0.2824
13801W        W29935  16.024   0.823  11.190  0.2136 -0.1082  0.1727
13802W        W29936  18.210   9.668   0.415 -0.1882 -0.0403 -0.0149
13803W        W29937   3.648   1.088   3.896  0.0791  0.1668  0.1305
13804W        W29938  15.605   3.201   5.512  0.0489  0.0487 -0.0297
13805W        W29939   7.978   4.691  15.162  0.2179  0.0109 -0.2894
13806W        W29940  13.928  10.726   3.386  0.0587 -0.1856 -0.1375
13807W        W29941   2.304   4.702   3.579 -0.0645  0.0239  0.1838
13808W        W29942  16.953  16.313  15.837 -0.1707  0.0423  0.0737
13809W        W29943   6.727   2.742  12.256 -0.1008 -0.0129  0.1123
13810W        W29944  15.184   1.797  13.998 -0.1850 -0.3265  0.3118
13811W        W29945  11.014  10.229  12.618 -0.0148  0.2311  0.1827
13812W        W29946   4.095   8.315   1.111 -0.1649  0.1217  0.0116
13813W        W29947  11.033   9.371   1.657  0.1293 -0.2924  0.1438
13814W        W29948  10.745  17.645   0.459 -0.2505  0.0343 -0.0186
13815W        W29949   8.532  11.365   4.632  0.1156  0.3356  0.0249
13816W        W29950   0.251  16.477  12.647 -0.0773  0.0971 -0.3266
13817W        W29951  14.799   1.440   2.912  0.2650  0.2122  0.0466
13818W        W29952   6.192  14.795   4.786 -0.0135  0.0530  0.0035
13819W        W29953  10.481   2.538   0.649 -0.0824 -0.1412  0.0918
13820W        W29954  15.844   7.767  11.299 -0.0550 -0.3913  0.0073
13821W        W29955   2.936   1.228  11.181  0.3940  0.1523  0.0706
13822W        W29956  11.689   4.070  14.403 -0.1106  0.3826  0.1035
13823W        W29957  10.217   2.926  14.455  0.0468 -0.1370 -0.1270
13824W        W29958   9.560  13.170   0.614 -0.0949  0.0808  0.1074
13825W        W29959   2.290   7.498   0.649 -0.4245 -0.1720  0.1064
13826W        W29960   7.387  14.568  11.097  0.1445 -0.2361  0.0235
13827W        W29961   4.975  14.103   2.735  0.0239 -0.3170  0.0435
13828W        W29962  14.194  11.692  15.248  0.1140 -0.0613  0.0101
13829W        W29963   0.657   6.436  15.338  0.3502  0.0856  0.2721
13830W        W29964  13.572   2.526  13.271 -0.3202  0.3647  0.0198
13831W        W29965   9.128  17.863  13.088  0.2705 -0.0265 -0.1965
13832W        W29966  14.840  12.957   0.777 -0.1109  0.1103 -0.0125
13833W        W29967  10.146   2.771  10.864  0.0526  0.2533  0.1801
13834W        W29968   3.602  12.134  15.252  0.2466  0.1622 -0.1328
13835W        W29969  13.822   6.226   0.429 -0.3746 -0.0242 -0.1762
13836W        W29970  13.400  12.632  10.671 -0.0011  0.1664 -0.2857
13837W        W29971   3.349  16.824   2.068 -0.1126  0.1156 -0.0708
13838W        W29972   1.650  11.816   0.275  0.2237  0.3187 -0.1239
13839W        W29973  10.840  17.293  15.866  0.3209  0.0687 -0.0184
13840W        W29974   7.387   6.394   4.808  0.1561  0.1376 -0.0580
13841W        W29975  15.054  10.950  11.057 -0.0030 -0.0324  0.0509
13842W        W29976  10.148   4.810   1.826  0.1625 -0.2823  0.1360
13843W        W29977   7.441   3.341   5.051  0.1626 -0.2062 -0.0271
13844W        W29978  12.284   3.195   3.133  0.1887 -0.1768 -0.2284
13845W        W29979   2.385   3.387   1.980  0.2532  0.3134 -0.0196
13846W        W29980   7.005  15.274   2.200  0.2347  0.1512  0.2749
13847W        W29981  12.424   2.051  11.050  0.0926  0.0642 -0.0828
13848W        W29982  18.416   8.221  14.329 -0.4047 -0.3042 -0.1363
13849W        W29983  17.569   3.919  13.100 -0.1549 -0.1468 -0.0839
13850W        W29984   4.186   1.418  15.231  0.2553  0.3346 -0.1496
13851W        W29985  15.806   0.753  15.160 -0.2495  0.2931  0.1889
13852W        W29986  15.089  11.731   5.682  0.1992 -0.2444  0.1684
13853W        W29987  16.017   2.279   2.977  0.0725 -0.1881 -0.4569
13854W        W29988   8.147   2.740  14.641  0.0903  0.0703  0.0982
13855W        W29989  18.344  14.826  13.099  0.0211  0.2088 -0.2147
13856W        W29990   3.272  11.735  12.904  0.0325 -0.0177 -0.0537
13857W        W29991  16.112  17.204  14.526  0.0702 -0.1278  0.1862
13858W        W29992  17.577   2.709  15.718  0.1986 -0.1595  0.1434
13859W        W29993   2.033   4.799   1.300 -0.1776  0.1070 -0.2805
13860W        W29994   6.344   4.277   4.635 -0.1345 -0.2384 -0.1796
13861W        W29995   2.951   1.368   1.796 -0.1473 -0.2206  0.1184
13862W        W29996  13.874   7.754  11.322 -0.1830  0.1626 -0.1162
13863W        W29997  12.082  16.197  13.580 -0.1080  0.0202  0.3474
13864W        W29998  10.932  11.067   2.789  0.1806  0.1271  0.0749
13865W        W29999   9.303  16.407   0.650 -0.0434 -0.1836 -0.2108
13866W        W30000   8.092   5.760  12.053 -0.0310  0.3056  0.1192
13867W        W30001   9.185  14.200  13.460 -0.1605 -0.0423 -0.1862
13868W        W30002   2.753  11.994   2.730  0.0712 -0.0707  0.1134
13869W        W30003  12.520   1.049  13.312  0.2173  0.0603 -0.0870
13870W        W30004   5.036   2.300   5.699  0.2964  0.3385  0.0615
13871W        W30005  17.262   1.690   0.947 -0.2142  0.4530 -0.2755
13872W        W30006   8.229  10.633   0.538  0.2250 -0.2609  0.1849
13873W        W30007  17.018   7.746  14.390 -0.5450  0.1611  0.0446
13874W        W30008  13.882  10.783  12.495 -0.2358  0.0267  0.0872
13875W        W30009   0.777   8.127  12.250 -0.0444 -0.0324 -0.0884
13876W        W30010  15.733   9.382  15.284  0.1473 -0.2473 -0.1710
13877W        W30011   4.004  11.782   3.275  0.1646 -0.0832  0.5463
13878W        W30012  15.929   5.661   2.448 -0.2980 -0.0268  0.3063
13879W        W30013  12.127   7.555   3.824 -0.0394  0.2297 -0.0420
13880W        W30014   6.141  15.439   2.417 -0.2027  0.2090  0.0171
13881W        W30015   9.646   8.048  15.870  0.1556 -0.3278  0.0313
13882W        W30016   9.089   6.333   2.929  0.2498 -0.2530  0.1128
13883W        W30017  17.691  15.640   0.097  0.0363 -0.0394 -0.1414
13884W        W30018   1.643  15.367  15.455  0.0813  0.0014  0.0499
13885W        W30019  10.191   9.577  11.519 -0.0471  0.1280 -0.3264
13886W        W30020  18.232  13.003  15.575 -0.0666  0.0270  0.0382
13887W        W30021  17.816  18.332  14.016  0.2513  0.2523 -0.1254
13888W        W30022   7.625   6.871   4.835 -0.0532  0.0411  0.2027
13889W        W30023   5.033   6.434  13.071  0.0874  0.2524  0.0832
13890W        W30024  16.822   7.752   4.975  0.2272 -0.1735  0.0978
13891W        W30025  14.429  16.717  13.533  0.0626 -0.2571 -0.0203
13892W        W30026   2.399   5.108   2.262 -0.1063 -0.2802  0.0967
13893W        W30027   3.693   6.873   0.073 -0.2819  0.0463  0.3119
13894W        W30028  14.981  12.534   2.182  0.2136  0.0094 -0.0282
13895W        W30029  13.647   4.758   4.172  0.0559  0.0077 -0.0101
13896W        W30030  13.744   3.632   4.988  0.2588 -0.2086 -0.0713
13897W        W30031  12.635   6.253   0.621  0.0093 -0.0262  0.1741
13898W        W30032  11.662   5.861  13.185  0.0279  0.1702  0.1978
13899W        W30033   4.679   1.104  12.999  0.0152  0.0709  0.2754
13900W        W30034  11.372   7.004  10.474 -0.3564 -0.1696  0.3658
13901W        W30035  16.051   5.686  10.783 -0.0777  0.1637  0.0165
13902W        W30036  10.677   6.531   2.110 -0.2205 -0.1463  0.3631
13903W        W30037   7.802  13.706   3.619  0.0795  0.0382  0.0602
13904W        W30038   5.640  14.069   1.307 -0.4019  0.0288 -0.0044
13905W        W30039   5.810  15.225  12.285 -0.0875 -0.2513  0.0939
13906W        W30040  16.680  18.018  15.683  0.1655  0.1264  0.0536
13907W        W30041   6.159  13.040  11.723  0.3110 -0.0259  0.1628
13908W        W30042   7.480  15.224   1.972 -0.3062 -0.2939  0.3009
13909W        W30043   4.802   1.311  13.880 -0.0777  0.1136 -0.1256
13910W        W30044  17.368   9.274  12.417 -0.3315 -0.0663 -0.1382
13911W        W30045  16.788  13.668   2.589 -0.2851  0.1580  0.1044
13912W        W30046  15.864   7.998  11.727 -0.4442  0.0969  0.1009
13913W        W30047   5.385  13.833  13.951  0.0811  0.2669  0.0686
13914W        W30048  11.250   4.938   1.131  0.1906  0.1288  0.3108
13915W        W30049  13.143  15.857  15.183 -0.0693 -0.0069 -0.1828
13916W        W30050   4.681  16.082  13.993  0.2029  0.1382  0.1527
13917W        W30051   4.137  15.177   1.945  0.0061  0.1153 -0.0509
13918W        W30052  16.308  13.464  13.073 -0.1956  0.1865  0.0170
13919W        W30053  17.001   2.579   3.564 -0.0797  0.1320 -0.0129
13920W        W30054   4.420   7.978  11.984  0.2591  0.0511  0.1812
13921W        W30055  15.135  11.488   2.673  0.0616 -0.1651 -0.0998
13922W        W30056   5.014   0.920   2.947 -0.1229  0.0065  0.1752
13923W        W30057   1.726   1.126  14.427  0.0281 -0.2280 -0.1960
13924W        W30058  17.112  15.329   2.053  0.1647 -0.0631  0.0933
13925W        W30059   3.135   1.821   5.632 -0.1673  0.0586  0.1689
13926W        W30060  10.389   2.797  11.686 -0.3539 -0.0768 -0.2218
13927W        W30061   7.001  18.288  13.569  0.0557  0.0582  0.1074
13928W        W30062   6.997   1.432   3.724 -0.2028  0.0708 -0.2560
13929W        W30063   4.900  12.602  13.691 -0.3705 -0.0845  0.0332
13930W        W30064  15.825  14.841   2.125 -0.0510 -0.2224  0.0438
13931W        W30065  15.769   5.060  15.746  0.1333  0.2334  0.0976
13932W        W30066   5.249   3.315   3.823 -0.2988  0.1086  0.3422
13933W        W30067  17.876  13.407  14.959 -0.4003 -0.0218 -0.2182
13934W        W30068  10.647  17.166  12.681 -0.2904  0.0774 -0.1261
13935W        W30069   5.096   6.175   1.823 -0.0154 -0.1136 -0.2453
13936W        W30070   7.369  14.713   1.258 -0.1447  0.1839 -0.2749
13937W        W30071  10.591  10.657   3.613 -0.1822 -0.0323  0.0168
13938W        W30072   1.620  17.865   5.293 -0.1961 -0.1425 -0.2339
13939W        W30073  17.686  16.419   5.072  0.0991  0.2472  0.0391
13940W        W30074   4.841  10.605  12.442 -0.2299 -0.0957  0.0123
13941W        W30075   7.315   2.195  13.819  0.0173  0.1037  0.2104
13942W        W30076   5.500   4.979   3.070 -0.2526 -0.2571  0.2035
13943W        W30077   3.213   4.652   4.428 -0.2723  0.0434 -0.1280
13944W        W30078   9.411  10.417  12.931 -0.0855 -0.1067 -0.1703
13945W        W30079   5.456  14.665  13.504 -0.0421 -0.0628 -0.3410
13946W        W30080   6.582   3.587   1.074  0.2166 -0.0472 -0.0662
13947W        W30081  10.707   7.751  13.904 -0.0038  0.3694  0.0750
13948W        W30082  11.254   6.423   4.807  0.0135  0.0978  0.1677
13949W        W30083   6.238   4.495  13.582 -0.0034  0.1370  0.2723
13950W        W30084   3.584  12.765   4.619  0.2901  0.0038  0.0514
13951W        W30085  14.173  16.615  15.665  0.0427  0.2323 -0.3567
13952W        W30086   8.951   4.321  15.845 -0.3474  0.1199  0.0547
13953W        W30087  12.184   6.097  13.309  0.5044 -0.0734 -0.2459
13954W        W30088   2.964   2.773  11.307  0.0374  0.0183  0.1171
13955W        W30089   8.136   8.715   0.911  0.1573  0.2561  0.1648
13956W        W30090   9.987  18.332  12.384 -0.1938 -0.0100 -0.1543
13957W        W30091  16.542   5.713  14.080  0.0687  0.1305  0.2420
13958W        W30092  13.745   7.403  13.086  0.1416 -0.2038 -0.1785
13959W        W30093   3.922  18.348  13.265  0.3126 -0.3184 -0.0402
13960W        W30094  14.525  14.295  15.448 -0.2408 -0.0918  0.1520
13961W        W30095   3.617   0.708  15.269  0.1677  0.1166 -0.3505
13962W        W30096  11.385   4.564   2.337  0.4549 -0.0819  0.0254
13963W        W30097   6.173   8.158  12.757  0.0163  0.0935  0.0499
13964W        W30098   3.721   7.366  11.795 -0.1359  0.0480 -0.1878
13965W        W30099  17.088  16.274   2.127  0.1665  0.1291 -0.0685
13966W        W30100   1.213  14.961  11.443  0.0049 -0.2730 -0.3989
13967W        W30101  13.196  17.497  11.427  0.0431 -0.0127 -0.1213
13968W        W30102  11.328  10.075  12.252 -0.1988  0.3590  0.1870
13969W        W30103   4.181  15.869  11.287  0.3308  0.0174  0.0248
13970W        W30104   8.530  11.050  12.822  0.1861 -0.1898 -0.2410
13971W        W30105   6.075  15.419   3.351 -0.0533  0.1518 -0.2688
13972W        W30106   5.103   9.418  12.797  0.0747  0.1205  0.0422
13973W        W30107   0.884   5.886  11.387 -0.1290  0.1174 -0.1275
13974W        W30108   7.836  10.608   0.873  0.2825 -0.0487 -0.1688
13975W        W30109  14.315   8.806  15.625 -0.1186 -0.0952  0.3059
13976W        W30110   3.201  11.651   2.655  0.0666  0.1117 -0.4073
13977W        W30111  16.661  10.033  13.952  0.1393  0.2797  0.3026
13978W        W30112   0.628   2.479   3.732 -0.1445  0.0469  0.1090
13979W        W30113   4.754   6.775  11.614  0.1564 -0.0613 -0.2446
13980W        W30114   6.011   1.242   3.713  0.1325  0.1044 -0.0283
13981W        W30115   6.084   7.050  11.921  0.0145  0.2075 -0.0249
13982W        W30116  15.311  15.490   1.728 -0.1882  0.0592  0.0056
13983W        W30117   6.696   5.583   4.653  0.1918  0.1507  0.1502
13984W        W30118   8.033  11.435  10.306  0.1220  0.2238 -0.0842
13985W        W30119  13.195   6.988   4.141  0.1111  0.0716 -0.0835
13986W        W30120  14.223   2.596   1.991  0.1273  0.0793 -0.2538
13987W        W30121   3.951  13.561  14.555 -0.1647  0.2790  0.3084
13988W        W30122   0.274   0.388  11.572 -0.1019 -0.3535  0.1899
13989W        W30123   9.626  12.149  10.450  0.0677  0.1109  0.1115
13990W        W30124  10.234  14.567   4.674 -0.1630  0.0627 -0.3161
13991W        W30125  12.269   9.395  11.398  0.1522  0.4156 -0.3813
13992W        W30126   9.095  11.088   2.173 -0.0043 -0.1746 -0.2601
13993W        W30127  14.839   8.513  11.291 -0.1259 -0.2138 -0.1093
13994W        W30128   8.695  14.545  14.805 -0.2684 -0.0353 -0.1010
13995W        W30129   3.250   6.824  10.721 -0.0856  0.1913  0.1334
13996W        W30130  16.466   7.685  11.300 -0.0770  0.0853  0.0978
13997W        W30131   5.072   2.117   2.565 -0.1159  0.0845 -0.0596
13998W        W30132   0.973   9.933  10.703 -0.0055  0.0078 -0.2046
13999W        W30133   1.005   9.992  12.467 -0.1271 -0.2020 -0.2052
14000W        W30134   6.753  17.872   4.836 -0.0204 -0.0192  0.0469
14001W        W30135  10.522  11.076  14.332  0.0407  0.0668 -0.0085
14002W        W30136  18.296  18.009   1.782 -0.0301  0.2378  0.1194
14003W        W30137   1.981  12.955  12.138  0.0855  0.2834  0.2081
14004W        W30138  17.971   2.053   1.081 -0.0291  0.0181 -0.0675
14005W        W30139   8.840  17.452   3.813  0.2201 -0.3078 -0.1349
14006W        W30140   6.548   9.309   2.947 -0.3217  0.0734  0.1257
14007W        W30141   1.806  10.453   3.908 -0.2455 -0.0810  0.1865
14008W        W30142   0.930   9.848   1.128 -0.2117  0.1435  0.2068
14009W        W30143  10.236  16.424  14.866  0.1284  0.0046 -0.1412
14010W        W30144   5.799   4.191   0.871 -0.1379 -0.1488 -0.1358
14011W        W30145   6.233   2.358   4.470 -0.1008 -0.1419  0.4304
14012W        W30146   4.945   0.879  14.184 -0.1134  0.0001 -0.1491
14013W        W30147   4.474  14.751  13.966  0.2749 -0.0265  0.0322
14014W        W30148   8.049   9.161  13.396  0.0114 -0.2325  0.1133
14015W        W30149  13.756  12.422  13.266  0.0184  0.0588  0.1367
14016W        W30150   5.452   7.879  14.433 -0.1156  0.0001 -0.3728
14017W        W30151   7.931  13.210   3.022 -0.0153  0.4111  0.4345
14018W        W30152   0.616   6.847   1.121 -0.1238  0.0940  0.0107
14019W        W30153   8.051  18.235   1.675  0.1524 -0.2761 -0.0828
14020W        W30154   7.851   6.425  13.318  0.1442  0.3669  0.0606
14021W        W30155   0.536   5.966   2.763 -0.0407  0.1773 -0.1060
14022W        W30156  15.916   2.602  15.873 -0.3876 -0.0270 -0.2251
14023W        W30157   6.933   7.136  13.777 -0.1604  0.0432  0.4247
14024W        W30158   8.961  11.132   2.938 -0.0751 -0.0034  0.1494
14025W        W30159  12.523  12.743   1.296 -0.1326  0.2360 -0.1862
14026W        W30160   2.444   4.963   5.465  0.4001  0.0147 -0.1699
14027W        W30161  17.820   3.057   0.287  0.1846  0.2297 -0.2160
14028W        W30162  16.380  16.963   1.636 -0.0707  0.0554 -0.0557
14029W        W30163   5.431  14.992   1.253  0.1280  0.0445  0.1724
14030W        W30164   5.581  10.866  11.757 -0.1124 -0.1031 -0.0717
14031W        W30165   9.416  17.615   1.936 -0.1069  0.3315 -0.1113
14032W        W30166   6.116  14.313  12.149 -0.1499  0.2086 -0.1318
14033W        W30167  14.383  15.779  14.097  0.1636  0.0070 -0.1410
14034W        W30168  17.798  18.447   1.246 -0.0105 -0.1201  0.2055
14035W        W30169   4.078   8.873  14.738  0.2908 -0.1360 -0.1978
14036W        W30170   9.188  10.807   2.646  0.2496 -0.1405 -0.0036
14037W        W30171   7.165  10.317   4.981  0.2998  0.2449  0.1623
14038W        W30172  13.102   8.955  15.587  0.0774  0.0142  0.1234
14039W        W30173   9.480  10.881  15.750  0.1707 -0.2411  0.1109
14040W        W30174  12.660   2.612  10.351 -0.2290  0.1639 -0.1976
14041W        W30175  18.082  10.639   5.181 -0.2903  0.1084 -0.0302
14042W        W30176  16.560   0.595   2.217  0.0040 -0.0405  0.2174
14043W        W30177   5.540  11.811   1.316 -0.1313  0.3114 -0.1238
14044W        W30178  13.956   4.957   1.872 -0.4195  0.0372 -0.1026
14045W        W30179   4.920   0.820  15.722 -0.1621 -0.2969 -0.3376
14046W        W30180  18.178  15.361   2.999  0.0115  0.0514 -0.0927
14047W        W30181  15.567   7.917  10.911 -0.3646  0.0333  0.1514
14048W        W30182   1.836   8.725  12.712 -0.2630  0.0438  0.0613
14049W        W30183  14.166   5.013   5.378  0.0717  0.4101 -0.1252
14050W        W30184   5.232  16.060  15.644  0.0892 -0.1100  0.1193
14051W        W30185   7.803   7.633  14.983 -0.0001 -0.0654 -0.0898
14052W        W30186  14.664  16.677   4.259 -0.3219  0.3567  0.0080
14053W        W30187   0.335   3.167   4.775 -0.1852 -0.0844  0.1373
14054W        W30188   2.366   5.358  12.742  0.0960 -0.0724  0.1027
14055W        W30189  18.070  14.394  11.106 -0.3477  0.0775 -0.2642
14056W        W30190  14.844  13.261   0.268 -0.0647 -0.3733 -0.0417
14057W        W30191   3.053  10.041  10.356 -0.2652 -0.2520 -0.1577
14058W        W30192   3.044   3.800   4.033  0.1439  0.0563 -0.2213
14059W        W30193  18.348   0.889   1.915 -0.3218 -0.0076 -0.0795
14060W        W30194  12.963   3.340   1.522 -0.0477  0.2064  0.0352
14061W        W30195  13.853  15.409  12.611 -0.0558  0.0555 -0.1243
14062W        W30196  13.741   9.326  11.124  0.4686  0.1307  0.2019
14063W        W30197   4.715  17.500   3.082 -0.3057  0.0807  0.2888
14064W        W30198   7.366   7.769  13.209 -0.2981 -0.0376  0.0368
14065W        W30199  10.793  17.488   2.960 -0.2239  0.1241  0.0467
14066W        W30200   4.729   8.948  14.336 -0.0324  0.3936  0.0571
14067W        W30201   0.909  15.839  14.483 -0.2022 -0.1669  0.2399
14068W        W30202  10.936  13.891  10.092  0.1496 -0.3198 -0.0933
14069W        W30203  18.372   5.388  10.339 -0.1526  0.3480  0.0421
14070W        W30204  12.648  18.321  15.446 -0.1378  0.5253  0.2149
14071W        W30205  10.501  12.898  15.524  0.2269 -0.1848  0.1813
14072W        W30206  12.999  14.870   3.353 -0.2885 -0.1132 -0.1165
14073W        W30207   2.041  10.834   1.594  0.2957 -0.0993  0.1718
14074W        W30208   3.366   2.193   0.970 -0.2038 -0.0744  0.1113
14075W        W30209  17.295  12.160  13.792 -0.0112 -0.0052  0.2987
14076W        W30210  12.541  12.008  11.869 -0.0026 -0.1844  0.2535
14077W        W30211   3.949   2.954  14.719  0.3001  0.1068 -0.0467
14078W        W30212   5.283  15.523   1.204 -0.0753 -0.2244  0.2634
14079W        W30213  15.572   3.168  14.549 -0.0815 -0.1705 -0.0046
14080W        W30214   9.197   1.128   1.803  0.3207  0.2050  0.1443
14081W        W30215  13.084  15.468  14.550 -0.1374 -0.0641 -0.4185
14082W        W30216  10.933  17.103   1.118 -0.1611 -0.0314  0.1004
14083W        W30217  13.303   9.397  11.789 -0.0034  0.2126 -0.0016
14084W        W30218  14.334   2.770   4.113 -0.1464 -0.0945  0.3083
14085W        W30219  14.065   7.434  10.791  0.1032  0.1544 -0.3820
14086W        W30220   5.009  17.040   5.751  0.0285  0.0490  0.2584
14087W        W30221  14.692   8.154   2.288 -0.1650  0.0505 -0.2090
14088W        W30222   2.129   9.196  11.046 -0.0447 -0.1513  0.1118
14089W        W30223   7.544   4.516   4.184  0.0483 -0.0689 -0.0284
14090W        W30224  17.647   6.650  15.022  0.0676  0.0851  0.0991
14091W        W30225  12.244   3.863  14.438 -0.3657 -0.0543 -0.1174
14092W        W30226  18.022  16.571  13.675 -0.2367  0.2922  0.0831
14093W        W30227  10.240   8.173  11.028  0.1794 -0.1158 -0.0207
14094W        W30228  16.972   6.005   0.485  0.2170  0.2644  0.3205
14095W        W30229   8.759   1.214   2.501  0.2118 -0.2997 -0.1483
14096W        W30230   8.758  12.388   0.566  0.3529  0.2215 -0.0058
14097W        W30231  10.750  15.501   3.391 -0.0166  0.2456  0.0067
14098W        W30232  10.318  18.041  11.470  0.1272 -0.3771  0.0919
14099W        W30233   8.816  15.302   5.982 -0.1482  0.0294 -0.0922
14100W        W30234   5.430  18.377  15.555  0.0880  0.0282 -0.0957
14101W        W30235   0.132  10.202  12.397  0.1519  0.2027  0.0612
14102W        W30236  14.351   0.269   4.352  0.1085 -0.2642  0.1568
14103W        W30237   9.208  11.875   2.824  0.1550  0.2305 -0.1233
14104W        W30238   7.465  17.498   5.553  0.0231 -0.1250 -0.1636
14105W        W30239  17.276  12.916   2.743 -0.2976  0.0520  0.1788
14106W        W30240   6.286  12.523  12.478  0.0029 -0.2348 -0.1110
14107W        W30241  14.827  15.969  11.034 -0.1738 -0.1699  0.0288
14108W        W30242  15.339   0.414  12.437  0.1039 -0.2171  0.1085
14109W        W30243   8.797  16.887  15.300  0.2054  0.0666 -0.1094
14110W        W30244  13.190   3.954   0.379  0.1370  0.0861 -0.2291
14111W        W30245   7.805   6.873   2.088 -0.3167 -0.2976  0.1895
14112W        W30246   1.968   1.268   4.540 -0.1115 -0.0664 -0.0571
14113W        W30247   2.106  13.021   4.353  0.2548 -0.1135 -0.1130
14114W        W30248   3.363  16.198  13.260  0.0539 -0.1456  0.1980
14115W        W30249   5.718  14.152  10.782 -0.0310 -0.2544 -0.0000
14116W        W30250   7.799   3.672   3.461  0.1327  0.0950 -0.1370
14117W        W30251  17.742  12.276  15.776 -0.0997 -0.2831  0.1702
14118W        W30252   0.750  12.842   3.569  0.0438  0.2226  0.0969
14119W        W30253   1.381   8.334  11.346  0.1855 -0.0814  0.4081
14120W        W30254  17.426   8.136   0.717  0.0265 -0.0848  0.2613
14121W        W30255   7.225   9.419  12.357  0.3270  0.2187 -0.0483
14122W        W30256   6.879   2.124   2.879  0.0659  0.1252 -0.1998
14123W        W30257   8.247  13.185  13.575 -0.2296  0.0633  0.3027
14124W        W30258  17.302   4.379  14.023 -0.0705 -0.4142 -0.1422
14125W        W30259  18.419   8.319   3.222 -0.0776  0.1885  0.2256
14126W        W30260  15.373  16.939   0.968 -0.0376 -0.2381 -0.0876
14127W        W30261  14.474   6.601   1.027  0.4324  0.3339  0.3490
14128W        W30262   1.737   8.294   4.576 -0.2558  0.1584 -0.1721
14129W        W30263  10.513  18.151  15.765  0.1190 -0.1103  0.1455
14130W        W30264  10.678  11.715   3.407  0.1018  0.2633  0.2624
14131W        W30265   7.138   3.017   5.351  0.0289  0.0633  0.2399
14132W        W30266   2.736   8.798  15.417  0.1486 -0.1254  0.1300
14133W        W30267   9.507   8.318  15.476  0.1281 -0.0375 -0.2625
14134W        W30268  15.089   2.742  15.744  0.1576  0.1664  0.0423
14135W        W30269   6.224   0.045  13.959  0.2074  0.0314 -0.0556
14136W        W30270   2.953  12.790  11.016  0.0911 -0.1790 -0.2765
14137W        W30271  16.436   9.105   1.059 -0.1564 -0.1934  0.0988
14138W        W30272  16.059  17.595   4.052  0.1494 -0.0447 -0.1169
14139W        W30273   0.418   3.758  11.118  0.1031  0.2785 -0.2849
14140W        W30274  11.237  16.607  13.177  0.0491  0.1890  0.0120
14141W        W30275  15.767   9.361   3.507 -0.0831  0.0910 -0.0986
14142W        W30276   6.346   5.117  12.005 -0.0473  0.1824  0.0123
14143W        W30277   8.075  11.810   3.953  0.0575  0.1305 -0.0192
14144W        W30278   8.511  11.448   6.137 -0.0471 -0.1475  0.0828
14145W        W30279  14.953   5.431  12.133  0.2886  0.1814 -0.0058
14146W        W30280   4.331   6.093  12.810 -0.2457 -0.2667  0.1887
14147W        W30281   9.527   2.927   1.944 -0.3666 -0.2314 -0.1386
14148W        W30282   0.118  12.398   2.312 -0.0971  0.1828 -0.0239
14149W        W30283  17.475   4.767  14.863  0.0711  0.1893  0.1461
14150W        W30284  16.678   8.676   2.435  0.1416 -0.0384 -0.0959
14151W        W30285   7.279  16.996   1.557 -0.1989 -0.2677 -0.0674
14152W        W30286  11.337  17.510   1.099 -0.0480  0.2187  0.2424
14153W        W30287  12.672   7.726  11.647  0.2811 -0.2058  0.0025
14154W        W30288  15.243  10.938  12.732 -0.0969  0.2241 -0.1139
14155W        W30289   3.738  12.351   0.972  0.2043  0.2931 -0.1201
14156W        W30290   4.796   8.686   1.512  0.0447 -0.2550  0.2333
14157W        W30291   7.678  18.052   1.394  0.1116 -0.1275  0.0167
14158W        W30292  14.528  18.021   3.805  0.1049  0.3010 -0.0464
14159W        W30293  15.890   6.493  15.096  0.0045  0.0022 -0.1319
14160W        W30294  14.935  18.217   0.778 -0.1952  0.1495  0.0413
14161W        W30295  16.240  12.162   0.389 -0.0063  0.4409  0.1892
14162W        W30296   1.599   6.105   0.925 -0.1539  0.0124  0.1259
14163W        W30297   3.669  16.522  15.668 -0.0807  0.1218  0.0742
14164W        W30298   1.761   8.853   4.170 -0.1505 -0.1152 -0.0544
14165W        W30299   4.578   3.616  13.919 -0.1174 -0.0221 -0.0091
14166W        W30300  12.515   7.967  11.148  0.0242 -0.0847 -0.0824
14167W        W30301   6.246   6.668   3.520 -0.2916 -0.3644 -0.1080
14168W        W30302  13.524   6.306  12.293 -0.1038  0.0503 -0.1989
14169W        W30303   2.006  17.785   1.221 -0.0964 -0.0218 -0.2055
14170W        W30304  11.584  10.723   3.774  0.0423 -0.2101 -0.2780
14171W        W30305  15.330  11.480  13.691 -0.1568  0.1513 -0.3692
14172W        W30306   6.739   8.388  11.603 -0.1487 -0.3014  0.1274
14173W        W30307  14.959   1.987   2.977 -0.2234  0.1231  0.1740
14174W        W30308  11.141  15.514   0.489 -0.0040 -0.2133  0.0686
14175W        W30309   0.559   0.864  12.298  0.3173  0.1772  0.0475
14176W        W30310  13.765   8.687  12.568  0.2358  0.1641 -0.2220
14177W        W30311   3.527  18.152   4.858  0.0507 -0.0416 -0.0543
14178W        W30312   7.250   5.991  12.980  0.0429 -0.1866  0.2662
14179W        W30313   6.111  10.288   2.979 -0.2062  0.1200  0.1573
14180W        W30314  15.673   5.897   2.782 -0.0592 -0.2603  0.1682
14181W        W30315  11.376   3.007  14.156 -0.4238 -0.0481 -0.0158
14182W        W30316   2.462   8.718   4.646 -0.0526 -0.3599 -0.0719
14183W        W30317  17.573   7.629   0.744  0.1326 -0.4073 -0.2773
14184W        W30318   4.785   7.219  14.838 -0.0383 -0.3368 -0.1151
14185W        W30319  14.037   3.813  11.101 -0.0696 -0.3643  0.0059
14186W        W30320   9.197   8.875   1.547  0.1515 -0.1036 -0.0618
14187W        W30321  17.541   6.336  12.331 -0.2033 -0.0390  0.2190
14188W        W30322   7.423   3.624  11.424  0.1190  0.0746  0.0479
14189W        W30323   4.457  12.602   4.211 -0.3216 -0.0264  0.0466
14190W        W30324   4.300  16.915   2.209 -0.2456 -0.2052 -0.2294
14191W        W30325   2.457  15.554  12.455 -0.0842 -0.2149  0.1970
14192W        W30326  14.511   0.492   3.934  0.1711  0.0850  0.0016
14193W        W30327  16.304  13.654  11.301  0.0124  0.0467 -0.2473
14194W        W30328   2.716   4.380  14.315 -0.2332  0.0140 -0.3702
14195W        W30329  12.249  13.251   2.251  0.0086 -0.3151 -0.0302
14196W        W30330   3.553   7.494  14.540 -0.1365 -0.0362  0.1125
14197W        W30331  16.153   1.193  15.189 -0.1444  0.0643  0.2312
14198W        W30332   7.311  17.429   0.172  0.0200 -0.0111 -0.0126
14199W        W30333   5.442   9.827   0.216  0.0675  0.2817 -0.1740
14200W        W30334   4.899  12.215  13.223 -0.1980  0.2708 -0.1910
14201W        W30335   3.450  11.539   1.274  0.1691  0.0271 -0.1574
14202W        W30336   0.147   5.396  10.902  0.3306  0.4043 -0.1478
14203W        W30337  12.194  16.905   4.398 -0.2462 -0.0267  0.0592
14204W        W30338   3.821   6.057   1.412 -0.1029  0.0477  0.1318
14205W        W30339   6.782   0.843   4.944 -0.3455 -0.0906 -0.2872
14206W        W30340  11.949  18.064   2.201 -0.0624 -0.2726 -0.1368
14207W        W30341  16.099   8.637   3.082  0.1702 -0.1203 -0.1072
14208W        W30342   0.355   8.594  13.013 -0.2793 -0.0198 -0.0719
14209W        W30343  18.225  17.358   3.765 -0.2364 -0.0794  0.0252
14210W        W30344   8.879   7.653  10.732  0.0967 -0.0790 -0.2743
14211W        W30345   1.306   5.280   5.097  0.2045  0.1087 -0.1383
14212W        W30346  14.387  14.431   4.499  0.1095 -0.0477  0.3270
14213W        W30347   5.610  15.361   1.680 -0.0341  0.4169  0.1194
14214W        W30348  18.424  13.237  13.329  0.2204 -0.0201 -0.1061
14215W        W30349  18.251   9.396  12.105 -0.1046  0.0691 -0.0235
14216W        W30350   5.319  13.371  13.703 -0.1137  0.2338  0.4199
14217W        W30351   2.191   0.833  14.293 -0.0262  0.2127 -0.2205
14218W        W30352   1.236   4.182  14.072  0.1428 -0.0464 -0.0254
14219W        W30353  11.184  12.951   0.055  0.1314  0.4538 -0.1250
14220W        W30354   6.289   3.784  12.304  0.1727  0.0382 -0.2183
14221W        W30355  13.335   2.946  13.530 -0.0117  0.2315 -0.0626
14222W        W30356   4.346  12.740  11.290 -0.0623  0.0554 -0.0400
14223W        W30357   3.915  14.968  11.144 -0.1709 -0.1266 -0.1350
14224W        W30358  10.607  13.801   2.218  0.1378 -0.2535 -0.1195
14225W        W30359  14.811  18.215  14.902 -0.0951  0.1656  0.0562
14226W        W30360   5.095   8.274  11.421  0.0511 -0.0873  0.0957
14227W        W30361   6.224   9.870  11.206  0.1162  0.0495 -0.1554
14228W        W30362  11.809  13.113   1.799  0.1961 -0.0292  0.0021
14229W        W30363  15.638  11.135  11.731 -0.0638 -0.1455  0.1653
14230W        W30364   5.753  13.510   1.412  0.4285 -0.0036  0.1838
14231W        W30365   2.185   4.218   2.191 -0.0000 -0.1378  0.2580
14232W        W30366   3.881   4.067  15.576 -0.2470  0.2335 -0.0556
14233W        W30367  12.943  12.751   3.101 -0.1460  0.0524  0.1971
14234W        W30368  15.502   8.917   2.617 -0.1170 -0.0498 -0.1166
14235W        W30369   4.316   8.350  10.708  0.0881 -0.1110 -0.0952
14236W        W30370  16.004  13.675  14.896  0.1046  0.1900  0.1250
14237W        W30371   0.137   3.456   4.345 -0.0245  0.1441 -0.1162
14238W        W30372   5.086   5.132  10.873 -0.3766  0.0300  0.0120
14239W        W30373  15.269  10.708   3.204  0.2045 -0.0178  0.1534
14240W        W30374  11.194   8.695  13.893  0.1121  0.1401  0.2436
14241W        W30375  11.783  11.061   2.605 -0.0577  0.2112  0.2814
14242W        W30376   4.320   0.823   3.614  0.1060  0.2372  0.1143
14243W        W30377   0.196   6.451  12.374 -0.0274 -0.1939  0.1053
14244W        W30378   5.699   0.025   0.460  0.1764  0.0012  0.2787
14245W        W30379   5.320   1.141   1.348  0.0818  0.1279  0.1865
14246W        W30380  15.723   3.242   0.320  0.1391  0.2124  0.2398
14247W        W30381   2.484   9.329   1.798 -0.1297 -0.0108  0.3358
14248W        W30382  10.986   3.290  15.875 -0.1971 -0.0599 -0.2453
14249W        W30383   6.862  12.938  13.062  0.1374 -0.0549 -0.0933
14250W        W30384   1.620  10.445  11.298 -0.0783  0.0412 -0.3662
14251W        W30385   1.574  11.413  12.944 -0.3398  0.1494  0.1224
14252W        W30386   7.429   5.489   0.179 -0.0617 -0.2239 -0.1032
14253W        W30387  13.151  17.457  10.917  0.3145  0.0205 -0.3544
14254W        W30388  14.413   3.608  13.318  0.0160 -0.1400 -0.1879
14255W        W30389  11.161  17.598  10.536  0.0894 -0.0215 -0.2009
14256W        W30390   3.115  10.097  13.638  0.0609 -0.3666  0.1307
14257W        W30391  17.786   7.934   2.515  0.0301  0.0008  0.1295
14258W        W30392   3.907  13.156   4.544 -0.0765 -0.0006 -0.0842
14259W        W30393   6.874   9.272  12.651  0.0747  0.0593  0.1100
14260W        W30394   5.124   4.854  14.287  0.2461 -0.2087  0.0802
14261W        W30395  15.184   6.186   3.020 -0.2628 -0.1556  0.1599
14262W        W30396   3.984  11.951   5.009 -0.0212 -0.0254 -0.3370
14263W        W30397  15.632  10.866   1.064 -0.0734  0.0652  0.0923
14264W        W30398  15.192  18.128   2.287  0.0230 -0.0153  0.1511
14265W        W30399   2.328   8.638   0.568 -0.3446  0.1847  0.1076
14266W        W30400   8.451  12.513  13.055  0.1857 -0.1353 -0.3428
14267W        W30401  15.125   0.652  15.170  0.1219  0.1007 -0.0086
14268W        W30402  17.319   2.288   5.284  0.1990 -0.0024 -0.1391
14269W        W30403  15.397   7.118  14.695  0.3224 -0.2508 -0.0265
14270W        W30404   1.152  17.857  14.524  0.0691  0.1804 -0.0239
14271W        W30405  12.726  13.594   0.069 -0.2167  0.0014 -0.2740
14272W        W30406   5.864  14.489   5.012 -0.0618  0.0942 -0.1283
14273W        W30407   1.783  10.862  13.330 -0.1629  0.1634  0.0775
14274W        W30408  14.945   6.743   0.965 -0.0918  0.1129 -0.1799
14275W        W30409  14.912   2.319   5.557 -0.1610  0.0596  0.1230
14276W        W30410   7.701   5.368  11.440 -0.4000 -0.0074 -0.0758
14277W        W30411   9.859  17.685  14.173 -0.0093 -0.0290  0.4004
14278W        W30412   7.095  16.085   2.955  0.0556  0.0033 -0.2353
14279W        W30413   4.519  16.774  11.689  0.2677 -0.0332  0.2994
14280W        W30414  13.722   5.215   4.313 -0.0872 -0.2601  0.1247
14281W        W30415  13.565  11.689  15.902 -0.0427 -0.0015 -0.1805
14282W        W30416  14.316  11.077  12.298  0.0517 -0.2321  0.0651
14283W        W30417   1.507   7.282   3.683  0.2439  0.2202  0.0438
14284W        W30418  14.625   6.939  10.705 -0.5235 -0.1100 -0.0395
14285W        W30419  12.667   8.018   3.298 -0.2655 -0.2254 -0.0751
14286W        W30420  13.359   7.000   5.315 -0.1426  0.3136 -0.0476
14287W        W30421   4.389  14.822  14.996 -0.1590 -0.3024  0.0360
14288W        W30422   9.255   5.662  14.394  0.0861 -0.3033 -0.2084
14289W        W30423  12.690  17.779   1.322  0.2527 -0.0853 -0.2787
14290W        W30424  13.598   8.198  14.669  0.0285  0.2051  0.3406
14291W        W30425   6.959  16.275  11.363 -0.0735 -0.1187  0.0614
14292W        W30426   2.081  13.136  15.834 -0.1099  0.0526  0.0247
14293W        W30427   4.569  15.497   2.935  0.0149 -0.1441 -0.2643
14294W        W30428   8.752  10.615   0.887 -0.0987 -0.0844  0.3974
14295W        W30429   6.942   0.312  13.409  0.1265 -0.1323  0.1958
14296W        W30430   2.669  12.065  11.480  0.1472 -0.0291  0.0607
14297W        W30431  11.564   4.004   1.971 -0.3966  0.0258 -0.2167
14298W        W30432   2.358   1.641   1.933 -0.0113 -0.0731  0.0219
14299W        W30433  12.632  15.953  12.285  0.1744  0.3887  0.1564
14300W        W30434   4.015   7.431  13.726  0.0453  0.3085  0.1455
14301W        W30435   8.054   3.030  11.561  0.0021 -0.0236 -0.1790
14302W        W30436  10.076   2.604   4.609  0.0650  0.1142  0.4142
14303W        W30437  14.040  15.389  14.199 -0.1813 -0.0382  0.0182
14304W        W30438   3.012   5.512  12.563 -0.0708 -0.0920 -0.4578
14305W        W30439   5.550   5.827  13.108  0.2674  0.0215  0.1243
14306W        W30440  11.784   4.237  15.305  0.0010 -0.0322 -0.0350
14307W        W30441   5.006   8.370  12.672  0.0087 -0.0507  0.0638
14308W        W30442   2.379   1.242  14.084  0.2006 -0.0985  0.0394
14309W        W30443  11.123   4.682  12.028  0.2212  0.1113  0.0691
14310W        W30444   7.800   1.373   0.917 -0.0620 -0.0434 -0.0651
14311W        W30445  15.930  12.431  10.952 -0.0809  0.0005 -0.2376
14312W        W30446   8.761   0.969   3.314  0.1987 -0.1314 -0.2504
14313W        W30447  10.203   0.852   0.595 -0.3931 -0.3710 -0.0017
14314W        W30448   0.640  12.951  13.077 -0.1421 -0.3491 -0.2432
14315W        W30449   0.726   5.455  13.745 -0.3937 -0.1456 -0.1174
14316W        W30450   6.901  13.216   1.997  0.3014 -0.3469  0.0678
14317W        W30451  16.378   2.000  14.951 -0.1818 -0.0546  0.1118
14318W        W30452  10.079  12.173  15.276  0.0676  0.0694  0.0137
14319W        W30453  10.538  16.211   5.143  0.2146 -0.3034 -0.0974
14320W        W30454   6.336   4.034   5.103 -0.1160  0.2208  0.0811
14321W        W30455  15.302  15.923  13.101  0.0243  0.2494 -0.2032
14322W        W30456  16.918  18.120   0.312  0.0285  0.0369  0.2197
14323W        W30457   0.935  10.979   2.592  0.1208  0.0067 -0.2610
14324W        W30458   4.176   5.551  15.100 -0.1391 -0.0671  0.1262
14325W        W30459   1.077   4.855   5.138 -0.2923  0.1662  0.0458
14326W        W30460   7.538   1.583  11.884  0.2190  0.2188 -0.0109
14327W        W30461   6.542  14.463  14.948 -0.0432 -0.0082  0.1831
14328W        W30462   7.976   3.707   2.131 -0.0297  0.1949  0.2641
14329W        W30463   7.013  18.450  12.563 -0.1147 -0.0538 -0.1533
14330W        W30464   3.504  17.642   0.396 -0.1526  0.2275 -0.3539
14331W        W30465   1.116  10.536   2.810 -0.0368  0.0091 -0.2934
14332W        W30466   3.389   7.516   4.091  0.0109  0.2666 -0.0268
14333W        W30467  10.725   6.950   3.669 -0.2453  0.2576 -0.0358
14334W        W30468  10.352   0.789   4.631 -0.3607  0.3837  0.0686
14335W        W30469  12.467   2.582   5.751 -0.0575  0.1510  0.2480
14336W        W30470   4.132   8.847   4.159  0.1208 -0.2066 -0.0988
14337W        W30471   1.696   5.778   3.672 -0.0512  0.1971  0.2390
14338W        W30472  15.348  16.762  13.782  0.0084 -0.4459  0.0650
14339W        W30473  10.659  14.306  12.974  0.1290  0.0034  0.4004
14340W        W30474  11.840   2.296  13.096 -0.0831 -0.2798 -0.0023
14341W        W30475   9.251   9.211   2.476 -0.0812 -0.0000  0.0014
14342W        W30476  16.425   0.273   2.756 -0.0309 -0.1401  0.1540
14343W        W30477  10.062  14.872   3.729  0.1897 -0.4750 -0.3998
14344W        W30478  10.648   4.744  12.966 -0.1853  0.0185 -0.0979
14345W        W30479   1.647   9.480   3.476  0.0104 -0.0031  0.1637
14346W        W30480  13.728  13.379   4.652 -0.3140 -0.1432 -0.0967
14347W        W30481  15.219  15.507   4.727 -0.0912 -0.0469  0.2317
14348W        W30482   9.031   4.498   3.805  0.0386  0.1916 -0.0151
14349W        W30483  10.983  17.080  11.713  0.1380 -0.0977 -0.3095
14350W        W30484  15.753   0.822   2.329 -0.1922  0.1034  0.0759
14351W        W30485   6.682  12.731   4.765 -0.0092  0.1938  0.1080
14352W        W30486  16.856  14.673  15.273 -0.0659  0.0010 -0.0280
14353W        W30487  12.701  12.152  13.678 -0.0325  0.0072  0.0034
14354W        W30488  16.499   9.821  15.306  0.2022  0.3497 -0.1764
14355W        W30489  11.491  11.420   3.087  0.0599 -0.1209  0.3503
14356W        W30490  11.425   9.156  11.819 -0.1097 -0.1412 -0.1065
14357W        W30491  12.815  12.958   0.910  0.0134  0.1796 -0.4341
14358W        W30492   6.586  17.407   0.917  0.3811 -0.1916 -0.0256
14359W        W30493   2.496   9.586   2.833 -0.2919 -0.0087  0.1044
14360W        W30494  15.022  13.516  15.159 -0.3073  0.0556  0.0098
14361W        W30495  14.830  14.266  13.758 -0.3483 -0.1577 -0.1160
14362W        W30496   5.726   7.716  15.353  0.2267  0.1494  0.0012
14363W        W30497   3.821   9.593   3.553 -0.1180  0.1690  0.1270
14364W        W30498   3.823   0.007   0.674 -0.0744  0.1643  0.1736
14365W        W30499   3.228   7.102  13.630 -0.0916  0.0489 -0.2444
14366W        W30500  12.794   9.657   2.362 -0.0907  0.1079 -0.0674
14367W        W30501   9.125   5.714  10.995  0.1312 -0.0623 -0.0841
14368W        W30502   4.968   4.320  12.284  0.1958 -0.3190 -0.2379
14369W        W30503   5.061   3.378   4.781  0.1468 -0.2936  0.3326
14370W        W30504  10.574   5.536   1.302 -0.0889 -0.1676 -0.1001
14371W        W30505  10.667  16.420   0.748  0.1407  0.1862  0.1568
14372W        W30506   2.189  11.005   3.965 -0.0661  0.2924 -0.1905
14373W        W30507  12.652   4.584  15.468 -0.1962  0.2614  0.2184
14374W        W30508  11.206  13.960   5.451  0.2639  0.1971  0.1342
14375W        W30509  10.713   3.454  11.228  0.0670 -0.0171 -0.1617
14376W        W30510   7.803  12.666   3.133 -0.0786 -0.0250 -0.0347
14377W        W30511  16.678  14.840   2.044 -0.2073  0.5052 -0.1084
14378W        W30512  10.275  16.517  14.035  0.2383  0.1186 -0.1061
14379W        W30513   5.537  16.492  13.930 -0.1217 -0.2480  0.0752
14380W        W30514   0.851  14.056  13.894 -0.2145 -0.0672 -0.4665
14381W        W30515   6.534  10.855   4.035 -0.0027  0.1092 -0.0424
14382W        W30516  16.012   2.169  11.091 -0.0076 -0.1211  0.0381
14383W        W30517  10.619   2.032  14.845 -0.2918 -0.0364 -0.0560
14384W        W30518   9.445   0.834   1.004  0.1071  0.3293 -0.2620
14385W        W30519  16.681   8.234   1.877  0.1967  0.0559  0.4151
14386W        W30520  14.406   5.545  11.725 -0.0643  0.0025 -0.0610
14387W        W30521   4.025   7.724   0.375 -0.0780  0.2153  0.0917
14388W        W30522  10.799   8.866  15.607 -0.0137  0.2022  0.0204
14389W        W30523  17.455   3.285   1.152 -0.2461  0.0664 -0.1290
14390W        W30524   7.670   0.654  12.799  0.1168 -0.2098  0.3171
14391W        W30525  12.474  14.928  15.551  0.2159 -0.1639 -0.0936
14392W        W30526   8.781  15.288   1.214 -0.0368 -0.0815 -0.3125
14393W        W30527   8.946   3.427   2.719 -0.0151  0.0056 -0.1365
14394W        W30528  10.131  15.444  13.045  0.0395  0.0830  0.0754
14395W        W30529   1.244   1.076  14.457  0.1472  0.0003  0.0029
14396W        W30530   6.565   5.960  12.300  0.0140  0.0891 -0.0671
14397W        W30531  12.032   0.674  12.400 -0.1390  0.0230 -0.0237
14398W        W30532   5.696   4.447  13.297 -0.0973  0.1798  0.2520
14399W        W30533  12.152   8.875  11.266 -0.2019  0.1292 -0.1136
14400W        W30534  10.479   8.879  14.209  0.2184 -0.0999  0.1976
14401W        W30535  14.364   8.097  10.137  0.0855 -0.3099  0.2806
14402W        W30536  11.409  11.294  13.263  0.5143  0.0122 -0.1063
14403W        W30537  15.124   6.742   3.035 -0.1418  0.0320  0.0030
14404W        W30538   8.450   6.280  12.956 -0.4146 -0.1121  0.1391
14405W        W30539  10.609   7.382  13.061  0.1709  0.1817  0.0056
14406W        W30540  12.767  14.411   0.855 -0.2416 -0.0416 -0.0617
14407W        W30541  15.996  12.963   5.171  0.2791 -0.0270  0.2686
14408W        W30542   0.232   4.939   2.517 -0.1180  0.2115 -0.0159
14409W        W30543   8.477   3.596   1.130  0.2543 -0.0580 -0.0823
14410W        W30544   5.182   2.962   1.469 -0.1747  0.2600 -0.2124
14411W        W30545  15.201  17.086  15.495  0.2144 -0.2339  0.1021
14412W        W30546  15.943   2.016   5.181  0.3172 -0.1063  0.2384
14413W        W30547   0.947   2.252  13.746  0.1148 -0.2232 -0.1689
14414W        W30548  17.066   7.721  15.876  0.0697 -0.0017 -0.0225
14415W        W30549   4.085   5.004  14.364  0.1564 -0.1577  0.1361
14416W        W30550  10.574   5.476  12.464  0.5485 -0.3331 -0.2339
14417W        W30551   9.565  13.881  15.407  0.2419 -0.1322 -0.0549
14418W        W30552  15.385  14.611   3.568  0.0212  0.0649 -0.0859
14419W        W30553  14.769   2.224   1.250  0.4337  0.1109 -0.1445
14420W        W30554   3.824   7.775   1.171 -0.0497 -0.1625  0.4020
14421W        W30555  17.492  17.743  12.189  0.0744 -0.3990  0.1919
14422W        W30556  18.355   4.009   1.317 -0.0984  0.3218 -0.1199
14423W        W30557   8.565  12.315  11.374  0.1379  0.0060  0.0659
14424W        W30558   5.338  12.075   4.284  0.0548 -0.0150  0.0081
14425W        W30559   9.364   2.633   0.836 -0.3811  0.1304  0.1216
14426W        W30560   6.583   9.591  14.062  0.1085  0.3776 -0.0277
14427W        W30561  17.496  11.683  11.904  0.0881  0.0024  0.1912
14428W        W30562  10.187   9.040  12.239  0.0109  0.0702 -0.6145
14429W        W30563  16.766   6.701  13.897  0.3483 -0.1533 -0.2381
14430W        W30564   3.843  11.496  14.505  0.1308  0.0945  0.0793
14431W        W30565  10.309   0.094  11.495 -0.3355  0.1158 -0.1303
14432W        W30566   5.631  14.998   4.668 -0.0006 -0.1809 -0.0541
14433W        W30567   1.798   9.366   1.396  0.0913  0.0149 -0.1971
14434W        W30568  16.129   7.272   3.342  0.0380  0.1872 -0.0311
14435W        W30569  18.215   7.676   3.781 -0.0975  0.1454  0.3030
14436W        W30570   7.410  16.537   5.556 -0.0032 -0.0469 -0.0164
14437W        W30571   9.089  13.752   2.426 -0.2259 -0.0659  0.1531
14438W        W30572   2.678   7.369   3.267  0.1028  0.1887  0.3384
14439W        W30573   2.232  17.999   3.333  0.1320  0.3589  0.1474
14440W        W30574   8.661   2.747   2.867 -0.2285 -0.2426 -0.3227
14441W        W30575  15.519  16.097  12.012  0.0218  0.1504 -0.2990
14442W        W30576  17.500   3.730  15.010  0.1109  0.2998  0.2603
14443W        W30577  14.676   4.710   3.910  0.1371  0.0726 -0.0660
14444W        W30578  10.170   8.660  13.893 -0.1799 -0.2605 -0.1470
14445W        W30579   9.852  11.987  11.910 -0.0850 -0.1514 -0.1419
14446W        W30580   9.560   4.612  14.180  0.0231  0.0907 -0.0014
14447W        W30581  10.446  12.731   2.128 -0.0096 -0.0512  0.0964
14448W        W30582  13.667  16.087  14.540  0.1043  0.2217 -0.0103
14449W        W30583   4.407  10.721  10.870  0.0064  0.2405  0.1523
14450W        W30584   8.697  13.759   1.585 -0.1901 -0.1206  0.0239
14451W        W30585   8.267  15.576  13.048 -0.3857  0.1316  0.0652
14452W        W30586  13.321   1.069  15.239 -0.0799  0.2377 -0.0653
14453W        W30587   2.838  13.765  13.125 -0.0401 -0.0147  0.1684
14454W        W30588   0.714  17.387  13.680 -0.0882 -0.2019 -0.2594
14455W        W30589   0.015   4.310  15.329 -0.0558  0.1784 -0.0075
14456W        W30590   7.333   2.393  13.048  0.0788  0.0838 -0.2224
14457W        W30591   1.558   1.067   5.530  0.1030 -0.1657 -0.1622
14458W        W30592   0.346  17.235   5.168  0.1140 -0.0110  0.4453
14459W        W30593   7.024  12.919  10.871  0.0252 -0.3836  0.1212
14460W        W30594   2.558  11.198  13.083  0.2975 -0.2106  0.1075
14461W        W30595   7.205   9.688   0.555 -0.1368  0.2359 -0.0232
14462W        W30596   1.859  14.541  15.756 -0.1779  0.0731 -0.0782
14463W        W30597  17.788  13.393  11.340  0.1327  0.2889 -0.3754
14464W        W30598  11.710   3.792  13.945 -0.0251 -0.0464 -0.0067
14465W        W30599   4.615  11.738   1.185 -0.0688  0.0043  0.1325
14466W        W30600   3.309  14.894  11.031  0.2827 -0.3204 -0.0124
14467W        W30601  14.820  15.426   5.004  0.2005  0.0085  0.0245
14468W        W30602  13.244   1.298   4.929 -0.2689 -0.1216 -0.2470
14469W        W30603  15.623  16.970   2.746 -0.0019  0.4380 -0.0287
14470W        W30604   0.230  12.652   0.463 -0.1594  0.6323 -0.1066
14471W        W30605  13.637  14.247   2.439  0.0497 -0.0667 -0.2983
14472W        W30606  11.090  15.969  13.958 -0.0533  0.0305 -0.0307
14473W        W30607   8.343  15.551   1.495 -0.2068  0.2452  0.1109
14474W        W30608  10.694   4.230   1.387  0.1407  0.0948  0.0686
14475W        W30609  18.279   2.295   4.810  0.1708 -0.1932 -0.1532
14476W        W30610   9.385   2.144   4.100  0.1283 -0.0997  0.2515
14477W        W30611   3.055   4.609  15.908 -0.0585  0.1394 -0.1638
14478W        W30612   6.994  10.203   5.408  0.0674 -0.0817 -0.3173
14479W        W30613   2.043  17.213   0.468  0.1310 -0.1003  0.0187
14480W        W30614   9.626  17.538   4.399 -0.1623  0.1154  0.0533
14481W        W30615   0.293  11.501   1.529 -0.2466  0.1405 -0.0424
14482W        W30616  10.159  13.851   2.372  0.0624  0.0296 -0.1929
14483W        W30617   9.902   0.713  15.384  0.0627 -0.1926  0.0571
14484W        W30618   0.733   9.839  11.571 -0.0601 -0.2779 -0.0710
14485W        W30619  13.819  17.657  15.036  0.1038  0.2957  0.1520
14486W        W30620   0.526   6.405   0.561  0.2328  0.0701 -0.0769
14487W        W30621   0.423   4.603  12.082 -0.0528  0.2784  0.1504
14488W        W30622  10.736   1.727   9.913 -0.1212  0.0900 -0.0278
14489W        W30623  13.417   7.308   1.955 -0.0962 -0.0789 -0.0308
14490W        W30624  14.340  16.542   4.633  0.2675  0.1475  0.1922
14491W        W30625   5.554  16.151  10.291 -0.0842  0.1722  0.0074
14492W        W30626  14.044   7.203   1.540  0.2086 -0.1479  0.1158
14493W        W30627  16.564  14.510  14.885  0.0296  0.0089 -0.2943
14494W        W30628   6.931   0.632  11.212  0.3198 -0.1568 -0.0673
14495W        W30629   1.513   2.631  11.516  0.0808 -0.1128 -0.0242
14496W        W30630  16.360  12.241  14.957 -0.0205  0.1586  0.0237
14497W        W30631   1.451  10.516   3.588 -0.0652  0.2142 -0.0124
14498W        W30632   8.902  14.665   4.510 -0.1180 -0.0884 -0.3844
14499W        W30633   3.328   6.739   5.504 -0.1486  0.1366  0.0716
14500W        W30634   4.784   5.435   5.007  0.0650  0.0900  0.2017
14501W        W30635   2.533   1.032   4.106  0.2116 -0.2877 -0.2760
14502W        W30636  14.872   7.969  13.514  0.2027 -0.0074 -0.2184
14503W        W30637  16.856  16.835  14.037  0.0949  0.0424 -0.3069
14504W        W30638   4.677   2.988  15.617  0.2289 -0.2131 -0.0929
14505W        W30639   3.656  17.658   0.904  0.0407 -0.2787  0.1007
14506W        W30640   7.079   5.898  15.097 -0.0140  0.3310  0.1312
14507W        W30641   5.805  11.611  15.100 -0.3433 -0.2990  0.0221
14508W        W30642  14.107   7.369   2.536  0.2205 -0.2215 -0.2092
14509W        W30643   8.349   5.559  14.605  0.1653  0.2037 -0.1324
14510W        W30644   7.206  16.926   2.030 -0.0895  0.0987 -0.1714
14511W        W30645   2.590   5.489  13.836  0.1530  0.1863  0.1534
14512W        W30646   0.378  10.697  12.500  0.1049 -0.0961 -0.1370
14513W        W30647   1.576   0.005   4.874 -0.1669 -0.0960 -0.2952
14514W        W30648   4.542  10.790   9.781  0.1455 -0.0401  0.1160
14515W        W30649   9.541   1.530   1.599  0.0206  0.0801  0.2991
14516W        W30650  13.644   1.687   4.266 -0.2765  0.0378  0.0199
14517W        W30651   3.599   3.451   1.700  0.0121 -0.1999 -0.0781
14518W        W30652  14.073  18.023  12.441  0.0591  0.0216 -0.0638
14519W        W30653  13.100  17.257   4.805  0.0059 -0.0326  0.1900
14520W        W30654   7.888   8.292  12.603  0.2451 -0.0561 -0.0197
14521W        W30655   1.016  10.177   3.714  0.0654  0.2025  0.2175
14522W        W30656  15.420   4.829  13.918  0.0132 -0.0741 -0.3464
14523W        W30657  13.567  16.975   1.587 -0.1552 -0.1490 -0.0631
14524W        W30658  12.103  11.840  13.619  0.0013  0.0365  0.3186
14525W        W30659   0.413  15.925  14.807  0.0981  0.0896 -0.0638
14526W        W30660  18.328  17.726   0.361 -0.0403  0.0883  0.1525
14527W        W30661   8.053  15.061   2.859 -0.0837  0.3443 -0.1289
14528W        W30662   1.277  11.143  13.261 -0.3014  0.0088 -0.0583
14529W        W30663  17.723  15.161  11.898  0.3195  0.1091  0.0296
14530W        W30664   5.578   2.458   0.213 -0.1868  0.0468 -0.1547
14531W        W30665  13.100   3.636   5.458 -0.3414 -0.1116  0.1572
14532W        W30666   8.556  14.331   1.776  0.0506  0.1029  0.2210
14533W        W30667  12.873   0.791  14.081 -0.1431 -0.0910 -0.2453
14534W        W30668  14.035   1.575   3.142  0.1258  0.1069 -0.1982
14535W        W30669  10.789   0.877   2.120 -0.0772  0.2005  0.1843
14536W        W30670  13.033   6.077   4.594 -0.0504  0.0936  0.0264
14537W        W30671  11.401   0.518  15.389  0.0964  0.0079 -0.0816
14538W        W30672  13.991  10.794  11.535 -0.0224 -0.0912 -0.0350
14539W        W30673  11.006   4.481  13.762  0.0763 -0.1906  0.3957
14540W        W30674   9.534  14.934  13.902 -0.1027 -0.1716 -0.1943
14541W        W30675   5.541   6.596  13.347 -0.2862  0.0437 -0.0233
14542W        W30676  16.521   2.411  13.219 -0.1932  0.2586 -0.1368
14543W        W30677  13.829   2.828   2.859 -0.3579  0.2292 -0.1225
14544W        W30678  16.281  11.597  13.279 -0.0266  0.0501 -0.2308
14545W        W30679  10.467   3.992   2.274  0.0267 -0.0002  0.2264
14546W        W30680   4.462   3.640   0.174  0.1029 -0.1068 -0.0008
14547W        W30681   6.787  18.451   5.551  0.1639 -0.1144 -0.3310
14548W        W30682   5.765   5.686  14.870 -0.0257 -0.2000  0.0796
14549W        W30683  14.535   4.799   1.976  0.0053 -0.0772 -0.1287
14550W        W30684  14.332   6.023   3.946  0.0916 -0.1163  0.0573
14551W        W30685   0.361  13.064  15.421 -0.0202  0.0774 -0.0237
14552W        W30686   5.977   9.031   0.109 -0.0018  0.0267 -0.0928
14553W        W30687  10.902  15.830  15.605 -0.2945 -0.3211  0.0814
14554W        W30688   3.332   0.005   4.602  0.1604 -0.2615  0.4263
14555W        W30689  17.409   2.099   1.130  0.1374  0.0693 -0.0301
14556W        W30690   1.809  11.258   4.213 -0.1391 -0.3130  0.0008
14557W        W30691  11.969  13.979   5.371 -0.0253  0.1222 -0.1263
14558W        W30692   9.463  15.731  15.374 -0.0278  0.0235  0.2463
14559W        W30693  12.573  15.392   4.183  0.1761  0.3545  0.1856
14560W        W30694   4.728   1.729   3.454 -0.0180 -0.3189  0.0831
14561W        W30695  14.218   1.222  12.806  0.2774  0.1477  0.1191
14562W        W30696   8.644   3.756   2.954 -0.1837  0.0396  0.4061
14563W        W30697   5.222  12.242  12.242 -0.1076  0.1784  0.1448
14564W        W30698  12.620  11.606  13.763  0.2415 -0.1210 -0.0160
14565W        W30699   2.447   6.176   4.749 -0.0089  0.4630  0.3960
14566W        W30700   5.081  10.029  15.780 -0.1825  0.0991  0.0000
14567W        W30701   3.141   7.435   0.372 -0.0607 -0.0181 -0.3043
14568W        W30702  18.241   9.464  15.836 -0.4190 -0.1814  0.2619
14569W        W30703  16.695  11.573   4.962 -0.1545  0.2103  0.2466
14570W        W30704  17.921   1.840   2.222 -0.1656  0.2739 -0.2312
14571W        W30705   3.250  17.874   1.617 -0.0127  0.1160  0.0830
14572W        W30706   2.439  10.200  14.325  0.0067  0.1248 -0.4487
14573W        W30707   8.797  14.464  11.838 -0.1366  0.0712 -0.0497
14574W        W30708   7.065  17.464  11.512  0.3280  0.0044 -0.1672
14575W        W30709  13.229   8.192  15.624 -0.1116  0.0151  0.2266
14576W        W30710   5.853  16.134   4.724 -0.1352 -0.3308 -0.0252
14577W        W30711   7.595  17.200   3.883 -0.0452  0.0465  0.1693
14578W        W30712  17.924  11.293   0.579  0.2645  0.0393 -0.1981
14579W        W30713   6.537  15.752   0.075  0.2076  0.0434 -0.1241
14580W        W30714  11.663   4.040   1.096  0.1521 -0.3290 -0.0233
14581W        W30715  14.505  13.114  14.154 -0.4712 -0.0690  0.0218
14582W        W30716   7.565  14.400   1.719  0.0136 -0.2529  0.0394
14583W        W30717  16.458  17.673   0.354  0.0987  0.0139 -0.1068
14584W        W30718  10.001   7.046  14.784 -0.0085  0.0668  0.1531
14585W        W30719  13.350  10.576  12.850  0.1674 -0.5184  0.1176
14586W        W30720   6.182   9.732   2.931 -0.0228  0.0122  0.0846
14587W        W30721   2.225   5.593  15.708 -0.0478  0.0950  0.0065
14588W        W30722   6.908   7.472   3.066 -0.1263  0.2749 -0.1942
14589W        W30723   0.128  14.644   0.497  0.0209  0.0493  0.0996
14590W        W30724  14.374   7.886   0.018 -0.0310  0.0863 -0.0450
14591W        W30725  16.462   1.268   4.552 -0.0430 -0.0644  0.3055
14592W        W30726   2.032   9.147  12.246 -0.2672 -0.0401 -0.0706
14593W        W30727   8.428   5.254   2.813  0.0569 -0.1555 -0.0182
14594W        W30728  14.277  11.832  11.910 -0.1098  0.1529  0.0564
14595W        W30729   5.738  15.656   4.778  0.1282 -0.0161 -0.3095
14596W        W30730  16.116  12.682   2.831  0.2404 -0.0704  0.0772
14597W        W30731   8.998  10.252   1.918 -0.0869  0.1211  0.1927
14598W        W30732  13.484  16.236  14.971 -0.2181  0.0383  0.0697
14599W        W30733  18.264  13.742  14.856  0.1897  0.2215 -0.0532
14600W        W30734  17.158   4.794   0.660 -0.1245  0.2720 -0.0838
14601W        W30735  12.004  16.031   2.956 -0.0461  0.1575  0.1997
14602W        W30736  10.475  13.123   1.388 -0.2404 -0.2817  0.1680
14603W        W30737  16.402   8.399  14.126  0.1604  0.0036  0.1229
14604W        W30738  17.580   5.868   1.856 -0.1412  0.2089 -0.3303
14605W        W30739  10.379  13.484   3.764  0.0891  0.0183  0.1600
14606W        W30740   9.679   2.699  13.124  0.2469  0.1182  0.3157
14607W        W30741  11.901  16.273  12.593  0.1151  0.1057 -0.3355
14608W        W30742   0.936  11.911   2.027 -0.0629 -0.1114  0.0458
14609W        W30743  14.315   4.207   3.398 -0.0236 -0.2062  0.0309
14610W        W30744  14.218  13.212  15.178  0.4398  0.5783 -0.1581
14611W        W30745   4.628   3.176  12.258 -0.0222 -0.3152  0.0272
14612W        W30746  14.547   5.220  13.045 -0.2148  0.0768  0.1245
14613W        W30747  11.298  16.846   3.287  0.0128  0.2728  0.1693
14614W        W30748   9.841  11.088   3.352 -0.0168  0.0185  0.1430
14615W        W30749  11.868   5.554   3.383 -0.3268  0.1801  0.0946
14616W        W30750  10.709   0.058   0.122  0.0595  0.1119  0.1151
14617W        W30751   3.333   0.170  14.244  0.0612 -0.1630  0.0318
14618W        W30752   2.167   0.599   0.379 -0.0347  0.0272 -0.2123
14619W        W30753   4.669  15.876  11.522 -0.1321  0.0303  0.2056
14620W        W30754   9.159   2.608   3.612 -0.1373 -0.1213  0.0477
14621W        W30755   7.748  10.634   2.375  0.0385  0.1876 -0.0903
14622W        W30756   5.181   2.195   0.575  0.2104 -0.2086  0.1638
14623W        W30757  11.007   4.557  11.077 -0.0655  0.0556 -0.0482
14624W        W30758  16.871   5.052  11.380  0.0459  0.0416 -0.4504
14625W        W30759   6.058  11.393   2.456  0.0287 -0.2930  0.0855
14626W        W30760  16.736   6.517  11.230  0.0767 -0.1805  0.0429
14627W        W30761   1.486   8.553   9.898  0.0707 -0.1427 -0.2975
14628W        W30762   7.311   1.206  13.691  0.1139  0.1717  0.3276
14629W        W30763  10.077   8.750   5.270 -0.1543  0.0690 -0.0767
14630W        W30764   3.260   3.229  11.222 -0.2106  0.2443 -0.1885
14631W        W30765   8.788  15.373  11.078  0.1016  0.1102  0.1804
14632W        W30766  15.250  13.557   0.179 -0.0814 -0.2712 -0.2527
14633W        W30767  16.539   9.061  13.878  0.1741 -0.0874 -0.0392
14634W        W30768   8.337   9.754   3.206 -0.0709 -0.0324 -0.2569
14635W        W30769   4.397   6.189  13.311  0.2919 -0.3022  0.0159
14636W        W30770  18.047   1.712   1.757 -0.0997 -0.0941  0.0333
14637W        W30771   7.916   5.859  15.900 -0.0090 -0.2217  0.1410
14638W        W30772  14.659   3.833   1.348 -0.2092 -0.4287 -0.0492
14639W        W30773  11.329   9.495  12.152 -0.1558  0.0955 -0.0168
14640W        W30774   5.140   0.957  13.697 -0.0713 -0.0146  0.0187
14641W        W30775  14.398   2.090  14.060  0.3628  0.2271  0.0218
14642W        W30776   3.835  11.311  15.100 -0.2554 -0.1929  0.0900
14643W        W30777   6.793  15.570  11.314  0.0215  0.0445  0.1361
14644W        W30778  10.046   2.427  11.642 -0.0590  0.0073 -0.0101
14645W        W30779  13.570   4.572   0.520 -0.0388 -0.1630 -0.0827
14646W        W30780  12.975   2.103  14.000 -0.0389  0.0012 -0.2382
14647W        W30781   7.158   7.974  14.920  0.0925  0.3146 -0.1559
14648W        W30782  16.124   1.957  13.930  0.0096 -0.2336 -0.0586
14649W        W30783   5.761   8.076   2.155 -0.0663 -0.1280 -0.1785
14650W        W30784  13.143  11.437   3.626 -0.4444 -0.0619 -0.0881
14651W        W30785   4.161   8.034   0.699  0.1957  0.0051  0.1282
14652W        W30786   6.827  15.145  14.752  0.0164  0.0049  0.2392
14653W        W30787   8.892  13.993   9.899 -0.1678  0.2409  0.0116
14654W        W30788   3.021  14.379   2.051 -0.1048  0.1458 -0.0668
14655W        W30789  12.837  10.604   3.289 -0.2496 -0.1452 -0.1086
14656W        W30790   8.314  12.004  15.681 -0.0896 -0.1255  0.1595
14657W        W30791   0.362   0.374   0.330 -0.0990  0.3804  0.1329
14658W        W30792   6.238   4.901  14.645  0.3261  0.3672  0.0674
14659W        W30793   9.575   5.162  12.404  0.0057  0.3680 -0.1153
14660W        W30794  14.275  16.952  14.696  0.2398  0.0812 -0.2308
14661W        W30795   8.411  11.370  13.422  0.0215 -0.0324  0.4173
14662W        W30796  16.858  15.786   4.175 -0.2714  0.0358  0.1554
14663W        W30797   8.794  16.016   4.830  0.1058  0.3192  0.0307
14664W        W30798   3.883  14.740   4.732 -0.0453 -0.1284 -0.1319
14665W        W30799   7.400   4.220  15.823 -0.4916 -0.3134  0.2842
14666W        W30800  12.360  18.299   3.083 -0.0303 -0.0264 -0.1411
14667W        W30801   5.965  10.449   1.529  0.1092  0.1722  0.0108
14668W        W30802   7.948   0.715   2.179  0.1200 -0.2386  0.0325
14669W        W30803  17.872   8.367   3.119 -0.2550 -0.1840 -0.0608
14670W        W30804  13.232  10.518   0.328 -0.0081  0.2098 -0.0838
14671W        W30805  16.976  15.010   3.518  0.3082 -0.4593 -0.0850
14672W        W30806  13.438  12.703  12.112  0.1607  0.0523 -0.1361
14673W        W30807  16.767  12.266   2.313  0.2354  0.0103  0.1454
14674W        W30808  16.948  16.986   2.961 -0.1699 -0.0572  0.0112
14675W        W30809  11.714   3.818   4.020  0.1078  0.2906 -0.0077
14676W        W30810  13.746   7.229  11.098  0.2509 -0.1119  0.3852
14677W        W30811   1.572   9.168   4.916  0.1901 -0.2622 -0.0694
14678W        W30812   4.677  12.578   4.971  0.1367 -0.1681  0.1994
14679W        W30813   1.494  13.760  15.385 -0.0020  0.0980 -0.2211
14680W        W30814   4.820  12.933  11.380  0.3008  0.0108 -0.4520
14681W        W30815  17.460   0.127  11.724  0.1679  0.2673 -0.0513
14682W        W30816  10.568  13.170  11.593  0.1950 -0.0967 -0.0706
14683W        W30817   9.034  16.040  11.781 -0.0359  0.0677  0.0093
14684W        W30818  16.102  12.367   0.858  0.1001  0.1327  0.0758
14685W        W30819  12.050  14.649   2.953  0.0062 -0.1664  0.0752
14686W        W30820   6.072   6.848  10.861  0.2419 -0.0506 -0.1148
14687W        W30821  15.520   7.664   1.952 -0.1443  0.3311  0.1894
14688W        W30822  11.452   7.190  10.982  0.2397 -0.1344 -0.3965
14689W        W30823  16.714  11.892   2.959  0.0153  0.3101  0.1281
14690W        W30824  10.685   1.287   3.556  0.1247  0.0161  0.2249
14691W        W30825   5.938   3.009  11.651 -0.0393 -0.0427  0.3267
14692W        W30826   4.315  16.051   3.546  0.1202 -0.1537 -0.0994
14693W        W30827   7.534  12.556   0.121  0.1254  0.1716 -0.0549
14694W        W30828  14.564   3.401   0.842  0.1412 -0.1536  0.1496
14695W        W30829  12.006   6.696   9.818  0.0446 -0.0153  0.0325
14696W        W30830   9.055  14.310  10.344 -0.1447  0.0688  0.1477
14697W        W30831   4.032  14.214  15.192  0.0402 -0.1031  0.0494
14698W        W30832   2.102  12.021  13.991  0.0207  0.3118 -0.2441
14699W        W30833   0.414  10.324  14.099  0.1805 -0.0595 -0.0942
14700W        W30834   7.576  11.626  15.109  0.3122  0.0655 -0.5435
14701W        W30835   7.622  11.138  13.904  0.2856 -0.0154 -0.1968
14702W        W30836  15.134   2.759  11.034  0.1367 -0.0875 -0.1278
14703W        W30837   1.457  10.719   1.448  0.0981 -0.1096  0.3308
14704W        W30838   8.627   0.590   3.654  0.3653 -0.1994 -0.1048
14705W        W30839  12.301  10.870   2.852  0.0823  0.1146  0.0372
14706W        W30840  16.127  17.722   1.009  0.2725 -0.0132  0.1169
14707W        W30841  16.771  12.762   0.052 -0.0980 -0.1845 -0.0193
14708W        W30842   3.777  14.224  13.327  0.2029  0.0727 -0.1405
14709W        W30843   7.330  15.864  13.977  0.0057 -0.1516 -0.1062
14710W        W30844  12.046  11.583  14.966  0.0220 -0.2185  0.1809
14711W        W30845  12.632  13.192   0.421 -0.1088 -0.2267 -0.2490
14712W        W30846  11.082  10.321   5.628  0.4155  0.3422  0.0097
14713W        W30847  14.451   6.998  12.832  0.0693  0.2152 -0.0516
14714W        W30848   0.334  15.098   2.879  0.2569  0.0119  0.2846
14715W        W30849   8.928   0.197  14.124  0.1836 -0.1308  0.0579
14716W        W30850  17.692  11.159  15.063 -0.0076 -0.2649 -0.0852
14717W        W30851  15.134  12.580  15.630  0.2160 -0.2772 -0.2568
14718W        W30852   0.676  16.011   3.378 -0.2125  0.3442  0.1326
14719W        W30853  10.446   8.242  13.866 -0.1670 -0.0901 -0.0730
14720W        W30854   5.318   9.167  11.700 -0.0344  0.0035 -0.3256
14721W        W30855   4.852  18.353   0.538  0.3974 -0.3301  0.0116
14722W        W30856   6.298   1.628  15.088  0.0708  0.1101 -0.1122
14723W        W30857   9.166   8.015   5.141  0.1958  0.2516 -0.2554
14724W        W30858  16.091   2.551  12.316  0.1459 -0.2864  0.1908
14725W        W30859   7.275  15.774   2.033 -0.2600  0.1202 -0.0191
14726W        W30860   5.281   1.412  11.854  0.0214  0.1927 -0.6665
14727W        W30861   5.855   0.339   2.554 -0.2345 -0.2338  0.0229
14728W        W30862  14.800  12.463  12.237 -0.1572 -0.2287 -0.0014
14729W        W30863   2.829   2.426  13.940 -0.1140  0.2150 -0.1533
14730W        W30864   4.336   4.519   4.029 -0.1850  0.1363  0.0318
14731W        W30865   5.781   4.282  15.254  0.2080  0.3688 -0.3161
14732W        W30866  12.984  17.807   4.018  0.1653 -0.0547 -0.0142
14733W        W30867   4.972   6.790  12.596  0.2092  0.1257 -0.0539
14734W        W30868  11.690   6.587   1.231  0.0529 -0.3201 -0.1157
14735W        W30869   5.394  11.575  14.822 -0.0761  0.1478  0.0273
14736W        W30870   4.503  16.402   6.185  0.0107  0.0115 -0.1263
14737W        W30871  10.642   1.450  10.750 -0.2770  0.0146 -0.2938
14738W        W30872   4.902   3.750  14.267  0.0814 -0.0720  0.2103
14739W        W30873   4.719  15.121   3.256  0.1235  0.1293 -0.2516
14740W        W30874   8.212  15.840  10.897 -0.0428 -0.0944  0.0903
14741W        W30875   7.540   6.386   1.767  0.4857 -0.1802 -0.1799
14742W        W30876   3.340  11.182   3.843  0.0171  0.1085 -0.0876
14743W        W30877  10.369   2.097  11.913 -0.0759 -0.0172  0.1762
14744W        W30878  14.082   9.027   3.722  0.0243 -0.2844 -0.1323
14745W        W30879  11.768  12.613   0.136  0.3576  0.0492 -0.2887
14746W        W30880   0.787   8.024   3.369 -0.1518  0.0881  0.0713
14747W        W30881   6.496   3.854   6.077 -0.0180 -0.0974 -0.2509
14748W        W30882  18.003  12.965   2.719  0.0981 -0.3117 -0.3303
14749W        W30883  14.100  12.026   1.648 -0.0741  0.1497 -0.1838
14750W        W30884  18.278   1.551  14.524 -0.1605 -0.0135  0.0430
14751W        W30885   7.182   6.388  15.010 -0.1891 -0.2883 -0.0289
14752W        W30886   7.212   2.768  11.519 -0.0244 -0.1665 -0.1876
14753W        W30887   8.618  15.207  13.211 -0.2103 -0.3519  0.0688
14754W        W30888   5.720  10.338   3.847 -0.1096  0.2260 -0.2323
14755W        W30889  12.924   4.858   3.221 -0.0488 -0.1689  0.1773
14756W        W30890  11.772  11.580  13.392 -0.0764 -0.1886 -0.2961
14757W        W30891  14.615   0.800   3.018 -0.3617 -0.3894 -0.3998
14758W        W30892   0.606   9.854   0.360 -0.2371 -0.2408  0.2340
14759W        W30893   7.914   8.113   1.133 -0.2891 -0.0262  0.1628
14760W        W30894  14.358  10.508   3.620  0.4309 -0.2495  0.0462
14761W        W30895  11.492  11.114  15.153 -0.0181 -0.1345 -0.0596
14762W        W30896   3.298   3.301   2.690  0.1328  0.0946 -0.0374
14763W        W30897   6.850  10.805  12.029 -0.1326 -0.0910  0.3653
14764W        W30898   0.281  15.157   0.790  0.1263  0.3550 -0.3058
14765W        W30899  13.445  16.722   0.776  0.0178 -0.2619  0.0599
14766W        W30900   0.551  17.077  14.932 -0.5576  0.2246 -0.1207
14767W        W30901  13.345   0.278  13.278  0.0621  0.1202 -0.0004
14768W        W30902  18.046   1.791   4.884  0.1182  0.1317 -0.0605
14769W        W30903  15.348   1.868  13.257  0.0899 -0.0641  0.2990
14770W        W30904   1.852  15.420  13.572  0.0693  0.5052  0.0801
14771W        W30905  15.662   5.415   3.388  0.0787  0.0157  0.1811
14772W        W30906   3.248   9.032  13.353  0.1886 -0.1154 -0.2076
14773W        W30907   7.048   0.680  10.724 -0.1640  0.1633 -0.0248
14774W        W30908   5.035   5.072  15.065 -0.1332  0.2376  0.1037
14775W        W30909  17.163  18.317   6.108 -0.2265  0.1551  0.3183
14776W        W30910   2.544  18.121   2.686 -0.0013 -0.0970 -0.3264
14777W        W30911  17.542  15.987  11.178  0.2730  0.1351  0.0765
14778W        W30912   8.348  16.421   2.636  0.0684  0.1556  0.1116
14779W        W30913   3.594  16.115  15.404  0.3228  0.1292 -0.0962
14780W        W30914   0.822  14.042   0.583 -0.2503  0.0232 -0.2992
14781W        W30915  14.833  10.749  14.747 -0.2304  0.0712  0.0332
14782W        W30916   5.953  18.395   6.165 -0.0367  0.0931  0.2563
14783W        W30917   9.908   2.760  10.115  0.3198 -0.1813 -0.2560
14784W        W30918   0.746   8.074  10.424 -0.1732 -0.1621 -0.0815
14785W        W30919   4.362   7.856   1.199 -0.4373 -0.1862 -0.1034
14786W        W30920   7.499   3.709   3.018  0.1798  0.1965 -0.0209
14787W        W30921  13.357  16.744   6.068 -0.0722 -0.3318  0.0739
14788W        W30922  14.384   5.532   3.014 -0.0189  0.3094 -0.0846
14789W        W30923   2.366   4.804  12.190  0.1595 -0.1782 -0.0541
14790W        W30924   4.693  10.195  12.110 -0.2567  0.0250  0.0525
14791W        W30925  16.739  11.162   1.867  0.1232  0.1036  0.1062
14792W        W30926  12.620  11.600   0.554 -0.0686  0.1927  0.0476
14793W        W30927  13.699   8.149  15.597  0.2382 -0.1995 -0.0788
14794W        W30928  17.437  10.802  15.306 -0.2174  0.1218  0.0206
14795W        W30929   4.937  14.811   1.954  0.2909  0.0098  0.1299
14796W        W30930   3.004  14.385   4.743 -0.2548  0.1108 -0.0898
14797W        W30931  16.844   4.366  11.007  0.3840 -0.2759  0.2434
14798W        W30932  14.585   7.379   4.897  0.2367  0.1434  0.0667
14799W        W30933   4.231   4.344  12.964  0.0773 -0.3523  0.2469
14800W        W30934  14.831   8.890  15.461 -0.0424 -0.1243  0.1769
14801W        W30935   0.693   7.790  14.420 -0.1992  0.0302  0.0499
14802W        W30936  16.021   4.506   0.489 -0.2320  0.0604  0.0355
14803W        W30937   4.584   1.029  10.762 -0.0280  0.1802 -0.1586
14804W        W30938  15.288  18.308  15.206 -0.0213  0.1474 -0.0393
14805W        W30939  17.955   0.517   5.023  0.0013 -0.0281  0.1778
14806W        W30940   3.429  17.859   3.044  0.2885 -0.0140 -0.0269
14807W        W30941  16.284   7.621  15.429  0.0884  0.1432 -0.0909
14808W        W30942   7.729   3.626   4.659  0.0271  0.3327  0.1819
14809W        W30943   8.881  10.792  15.312  0.0849  0.2070 -0.0484
14810W        W30944   2.796   3.695   2.723  0.0188  0.2033  0.2295
14811W        W30945   1.078  12.840  10.232  0.0144 -0.2632  0.2051
14812W        W30946   9.538  10.303  11.072  0.1236  0.0706 -0.1979
14813W        W30947   0.013   8.320   2.468  0.0533  0.0052 -0.0224
14814W        W30948  17.352  13.614   3.988  0.1937 -0.3695 -0.0015
14815W        W30949   0.317   1.478   4.815 -0.0229  0.0280  0.0404
14816W        W30950   2.761   6.699  14.472  0.0723  0.0083 -0.1831
14817W        W30951  14.908   0.947  14.234 -0.0995  0.0461 -0.0709
14818W        W30952  18.019   0.416   4.480 -0.1439  0.0158  0.0872
14819W        W30953  15.464   6.300  13.001 -0.1517  0.1384 -0.0051
14820W        W30954   6.470   9.867  12.178 -0.3252  0.0988 -0.2301
14821W        W30955   0.889  15.708  11.682 -0.2280 -0.2125  0.1954
14822W        W30956   1.883   1.928   1.005 -0.0884 -0.1751 -0.2783
14823W        W30957  17.813   0.285  14.942 -0.1934  0.0355 -0.1862
14824W        W30958   3.466  14.763   3.546  0.1186  0.2043  0.0339
14825W        W30959   5.721   5.006  15.471 -0.1322 -0.0946 -0.1463
14826W        W30960  11.473  13.260   3.021  0.1864 -0.0039 -0.1101
14827W        W30961   4.906  15.980  13.514 -0.0664 -0.1042 -0.0485
14828W        W30962   0.019   2.025  14.177 -0.0895  0.0636  0.0277
14829W        W30963  18.387  15.242   5.934 -0.0702  0.1755  0.2362
14830W        W30964  17.081   5.801  11.639  0.0287 -0.0974 -0.3309
14831W        W30965   9.021  15.009  10.803 -0.0345  0.0791 -0.2197
14832W        W30966  16.755   7.723  12.257 -0.1582 -0.3324 -0.0432
14833W        W30967   2.459  12.975  13.036  0.2591 -0.0477 -0.3815
14834W        W30968   9.609  13.008  10.090  0.2825 -0.0827  0.0954
14835W        W30969   8.321  10.677  10.835  0.0712 -0.2544  0.0997
14836W        W30970  11.234  11.979   5.529 -0.2777 -0.3336 -0.0144
14837W        W30971   2.079   4.251   1.250  0.0863  0.0683 -0.0883
14838W        W30972   0.037  17.445   4.417  0.0220 -0.0224  0.1348
14839W        W30973   2.871   1.523   4.239  0.4219  0.0451  0.1523
14840W        W30974   5.956   8.518  13.637 -0.2983 -0.0139 -0.0882
14841W        W30975  16.077  15.801   3.865 -0.0808  0.0692  0.2117
14842W        W30976  18.016   6.840  11.699 -0.1033 -0.0668  0.2098
14843W        W30977  10.725   1.895  11.051 -0.3806  0.2462 -0.0582
14844W        W30978   4.815  15.192   4.581 -0.2002  0.3564 -0.2282
14845W        W30979  15.662   0.585  14.326  0.1082 -0.0201 -0.0214
14846W        W30980   9.324  10.686   1.328  0.0215  0.0069  0.0618
14847W        W30981   3.570  14.308  11.866 -0.0232 -0.0201  0.3130
14848W        W30982   3.386  13.692   1.484 -0.3472 -0.3359 -0.0041
14849W        W30983  17.021   3.624  11.276  0.1029 -0.4464 -0.0099
14850W        W30984  11.999  14.403   4.972  0.0624  0.1083  0.0765
14851W        W30985  17.002   0.922   0.272  0.2121  0.5277 -0.1306
14852W        W30986   5.353   8.169  11.840 -0.0114 -0.0674 -0.1240
14853W        W30987   8.800   8.645   1.338 -0.0782  0.0112  0.0390
14854W        W30988  15.151  12.366   5.720  0.0768 -0.2075 -0.1546
14855W        W30989   1.479  15.596  13.386  0.0357 -0.1132 -0.1873
14856W        W30990   1.989  13.231  10.757 -0.2641  0.0185 -0.4508
14857W        W30991   7.564  16.538   1.568  0.1506  0.0659  0.4457
14858W        W30992  18.306  14.752  15.028  0.0247  0.2287  0.2929
14859W        W30993   6.388   0.237   6.312 -0.1470 -0.1086 -0.0843
14860W        W30994   7.112   7.540   4.209 -0.1995  0.0022 -0.1876
14861W        W30995  13.261   4.524  14.152  0.3104  0.1009 -0.0622
14862W        W30996   1.378   6.921  14.219  0.0448 -0.0693  0.0705
14863W        W30997   1.923   6.924  15.893 -0.1161  0.0933 -0.2943
14864W        W30998  13.750   3.535  12.737  0.1631  0.0572  0.0954
14865W        W30999  11.771   5.542  13.853 -0.0339  0.3705  0.2468
14866W        W31000  15.403   3.827  12.304 -0.0207  0.2190  0.4436
14867W        W31001   0.803  11.524   1.742 -0.2932  0.1354  0.0565
14868W        W31002  11.685   0.132  15.083 -0.1885 -0.1719 -0.1005
14869W        W31003   1.957   2.147  14.123 -0.1156  0.1953  0.0298
14870W        W31004   5.579  12.034  15.065  0.0247 -0.2885 -0.1933
14871W        W31005   5.843   7.614   3.625 -0.2722 -0.0768 -0.1960
14872W        W31006  17.420  13.281  12.274 -0.2806 -0.0981  0.0590
14873W        W31007   8.846  11.035  13.219  0.2317  0.0739  0.0223
14874W        W31008  16.907   2.022   1.234 -0.0850  0.1571 -0.0376
14875W        W31009  13.125  15.533  13.881 -0.0619  0.3194  0.0119
14876W        W31010   3.553  11.627   0.174  0.2060 -0.0961 -0.2354
14877W        W31011  14.033  18.364  12.963  0.1780  0.0722 -0.1063
14878W        W31012  12.751   2.562   3.638  0.0738 -0.2227 -0.2314
14879W        W31013  14.237   0.539   1.623 -0.0226 -0.2764  0.0367
14880W        W31014  16.494   8.976   3.036  0.2331 -0.0580  0.0282
14881W        W31015  13.636  17.925  14.600  0.3689  0.1146 -0.1893
14882W        W31016   0.925   2.387  11.488 -0.1409 -0.0414 -0.1487
14883W        W31017  10.417   7.417   2.415  0.2060  0.1093 -0.0953
14884W        W31018   8.920   7.710  12.860  0.1709 -0.0692  0.2331
14885W        W31019  15.957  12.897  15.164 -0.1606 -0.1434  0.1601
14886W        W31020  14.908   0.012  14.407 -0.0588  0.1236  0.1353
14887W        W31021  11.262  11.459  10.627 -0.0302 -0.2090  0.1997
14888W        W31022  15.695   6.099  10.615  0.1074 -0.0609  0.0821
14889W        W31023  15.116   8.171  11.092  0.0278 -0.2034 -0.3570
14890W        W31024  11.031  16.115   5.374 -0.0101  0.1019 -0.1934
14891W        W31025   8.721   7.669  14.161 -0.0969  0.0195  0.2882
14892W        W31026   5.260  16.090  13.851  0.1305  0.3152 -0.1943
14893W        W31027   8.257   3.284   2.121 -0.5706  0.0352  0.0440
14894W        W31028  15.701  15.407   3.836 -0.1073 -0.1431  0.1747
14895W        W31029   9.793   7.761  11.854 -0.0808 -0.2576  0.1944
14896W        W31030  10.186   9.737   1.656 -0.2413  0.1280  0.1423
14897W        W31031   6.507   6.648  11.528  0.0223 -0.0078 -0.0368
14898W        W31032  17.553   8.853   5.303  0.2597  0.3466 -0.0810
14899W        W31033  15.319  13.115  15.837 -0.1364 -0.1125  0.2378
14900W        W31034  15.003   6.560  13.278  0.1189  0.0510  0.0035
14901W        W31035   8.755  12.035   1.031 -0.1591  0.0826 -0.2534
14902W        W31036  15.056   0.584  10.880  0.1543 -0.1484 -0.2379
14903W        W31037   8.499  16.631  10.473 -0.1348 -0.1751 -0.0406
14904W        W31038   5.148  10.752   1.880  0.1622 -0.1864  0.2466
14905W        W31039   7.795  11.285  12.227  0.1915 -0.1803  0.0944
14906W        W31040  12.088  16.883  14.667  0.1843  0.0505  0.1681
14907W        W31041   2.375  17.049   3.884 -0.0226  0.0768 -0.0946
14908W        W31042   8.688  18.222   5.861 -0.1076 -0.4026  0.1602
14909W        W31043   2.070   3.534   4.282  0.3190 -0.0006 -0.2179
14910W        W31044  12.156   8.049   3.954  0.1492  0.2959  0.0815
14911W        W31045   1.973  16.242  12.263 -0.0106  0.1244 -0.1319
14912W        W31046  14.575   6.453   0.574  0.1453 -0.2003  0.1995
14913W        W31047   2.403  15.080  12.323  0.1755 -0.2039 -0.2553
14914W        W31048   0.111  10.828   3.717 -0.2643 -0.2126 -0.0400
14915W        W31049   7.483   8.993  12.490 -0.2273 -0.1424  0.0151
14916W        W31050  16.933  16.410   4.557  0.0702  0.2976 -0.0562
14917W        W31051   4.743   3.248   5.596 -0.0742 -0.2252  0.0946
14918W        W31052  12.626   5.794  15.474 -0.0974 -0.2689  0.1801
14919W        W31053  14.971   6.352  15.272 -0.2268 -0.2020 -0.0774
14920W        W31054  12.419  13.226  14.381  0.1606 -0.3299  0.3438
14921W        W31055  17.201   1.209  12.693  0.3172 -0.0238  0.0858
14922W        W31056   1.628  13.801  11.167 -0.1767  0.0110 -0.2965
14923W        W31057  16.885   4.115  13.777 -0.0612 -0.2291 -0.2428
14924W        W31058  14.719   6.891  15.447  0.2402  0.3101  0.1672
14925W        W31059  14.179  15.685   3.490 -0.1579  0.2409  0.1795
14926W        W31060   6.512  11.013  11.682 -0.0953  0.3537  0.1212
14927W        W31061  11.540   2.281   2.842  0.2224 -0.0319 -0.1872
14928W        W31062   9.696  16.724   1.516 -0.1203  0.0935  0.2102
14929W        W31063   9.996   1.799   2.270 -0.3558  0.0365  0.2165
14930W        W31064   8.501   2.105   4.246 -0.0224  0.1396  0.0253
14931W        W31065   5.612  11.519  12.996 -0.2845 -0.0114 -0.1702
14932W        W31066   8.901   1.816   4.392  0.1480  0.1338 -0.2186
14933W        W31067   6.062  17.343   0.922  0.2278  0.0126  0.2294
14934W        W31068   4.688  13.168   2.518  0.0503 -0.1551  0.0011
14935W        W31069   5.112   5.202   1.107  0.4757 -0.0124  0.1757
14936W        W31070   1.811  10.061  11.001 -0.0613 -0.0908  0.0070
14937W        W31071   9.729  13.564  14.324 -0.0705 -0.1535  0.0002
14938W        W31072  16.731   8.118  11.505  0.0097  0.2910 -0.0365
14939W        W31073  14.565  16.283   3.373  0.1039  0.0323 -0.0308
14940W        W31074  15.374  10.582  11.833 -0.0524 -0.0456  0.0064
14941W        W31075  17.857  10.263  13.707  0.2394  0.1820  0.1289
14942W        W31076   5.240  16.930  10.965 -0.0271 -0.0065  0.4239
14943W        W31077  13.535  16.800  13.919  0.0964  0.0770 -0.0115
14944W        W31078   3.632  15.014   1.824 -0.1607  0.1974 -0.3031
14945W        W31079   7.664  11.296   1.620  0.3787 -0.2162  0.3517
14946W        W31080   9.760   4.337  12.326 -0.1078  0.1826  0.2766
14947W        W31081   2.024  17.986  14.029 -0.2147  0.1624  0.0942
14948W        W31082  16.093  10.457   1.281  0.1263 -0.1039 -0.0939
14949W        W31083  10.354  17.083   5.003 -0.1361 -0.0186  0.2535
14950W        W31084  17.689   0.726  14.426 -0.2815 -0.0525 -0.2343
14951W        W31085   0.739   6.259  13.917 -0.0101 -0.0551 -0.3948
14952W        W31086   5.798   6.127   2.621 -0.2228  0.0095  0.1767
14953W        W31087   3.176   4.611  14.461  0.0449 -0.2414 -0.0016
14954W        W31088  15.563  14.203   0.886 -0.2751 -0.1107  0.0210
14955W        W31089  15.379   9.409  13.792  0.1226  0.1872 -0.2270
14956W        W31090   7.079  17.885   1.872 -0.0644 -0.1473 -0.0170
14957W        W31091  17.793  11.628  15.102  0.1135  0.2187 -0.0645
14958W        W31092   7.056   1.349   5.086  0.1145 -0.1091 -0.1688
14959W        W31093   2.900  18.417  15.340  0.1203 -0.1409 -0.3023
14960W        W31094   9.160   4.601   2.899 -0.1868 -0.3883 -0.0028
14961W        W31095  12.546   0.144   1.693 -0.0155  0.0082 -0.1921
14962W        W31096  13.951   9.385  12.022  0.0435 -0.0080  0.0851
14963W        W31097  14.331  14.131  12.862  0.1859 -0.0057  0.2626
14964W        W31098  10.058  15.345   0.446 -0.1061 -0.3340  0.1387
14965W        W31099  16.636  16.725   4.287 -0.2715  0.0618  0.0750
14966W        W31100  15.852  12.950  13.113  0.2238  0.0934  0.1258
14967W        W31101   3.668   1.360  13.034  0.1945  0.1090 -0.4050
14968W        W31102   4.272  12.225   4.701 -0.0600  0.0362 -0.0636
14969W        W31103   8.952  14.683  11.385  0.2871 -0.2345 -0.1729
14970W        W31104  13.707  13.868   0.011  0.1657  0.0425 -0.1022
14971W        W31105   7.101   2.722   1.829 -0.0210  0.1366  0.0564
14972W        W31106   1.561  10.652   0.928 -0.1028 -0.2893 -0.4172
14973W        W31107  10.110   4.553   3.600 -0.4526 -0.1616  0.0901
14974W        W31108  17.295   5.178   1.909  0.0380  0.2121  0.0068
14975W        W31109   4.033   2.747  10.972  0.0329  0.1304  0.1502
14976W        W31110   1.748   6.347   2.653  0.3629  0.0400 -0.0230
14977W        W31111   1.409   4.198   0.703  0.0350  0.0419  0.0004
14978W        W31112   3.695   1.584  12.117  0.1431 -0.1672 -0.0368
14979W        W31113  12.369  13.927   3.663  0.1453 -0.1775  0.2674
14980W        W31114  14.557   3.852  13.735 -0.3447  0.0363  0.2003
14981W        W31115   3.745  16.159  11.603 -0.1808 -0.2278  0.0821
14982W        W31116   3.986  11.872  13.202 -0.3489 -0.1644 -0.0583
14983W        W31117  10.525   9.580   1.279 -0.0120  0.0741  0.2649
14984W        W31118   2.752   8.155  11.609  0.0973  0.1919 -0.3883
14985W        W31119  14.677  10.333   2.473  0.2801 -0.1778  0.2209
14986W        W31120  17.803  18.020   3.413 -0.2550  0.1903 -0.4166
14987W        W31121  15.585  13.064   4.488  0.5200  0.1085  0.3090
14988W        W31122  14.465  17.072   0.551  0.2241  0.0591  0.3186
14989W        W31123  17.295  13.254   3.604  0.0729 -0.3643 -0.1655
14990W        W31124   4.263   1.742   3.615  0.2928  0.1043 -0.0776
14991W        W31125   9.271  15.729  12.935 -0.0902  0.1013 -0.3658
14992W        W31126   2.249   3.187   1.235 -0.0977  0.2218 -0.0167
14993W        W31127  18.321  11.473  11.245 -0.2499  0.2306 -0.0895
14994W        W31128  16.123  13.364   0.877  0.2828  0.0666  0.0969
14995W        W31129   3.659   2.945   2.671  0.1077 -0.0404  0.3453
14996W        W31130   6.856  17.183   0.011 -0.0927 -0.4160 -0.2833
14997W        W31131  13.817   9.732  12.805  0.0366  0.0972  0.1892
14998W        W31132  15.725   3.511   5.126 -0.1404  0.1233  0.2756
14999W        W31133   1.639   6.469  15.015  0.1609  0.0009  0.1958
15000W        W31134  12.813   9.064   0.190 -0.0051  0.1921 -0.1536
15001W        W31135   6.345   1.116  14.024 -0.0471  0.5526 -0.4447
15002W        W31136  15.630   3.697   2.906 -0.1919  0.2257  0.0843
15003W        W31137  15.858  11.977   5.344  0.1703  0.1688 -0.1368
15004W        W31138   3.494   2.241  13.344 -0.1617 -0.0216  0.2130
15005W        W31139   2.907  12.131  14.002 -0.0030  0.0415  0.0021
15006W        W31140   7.007  10.102   3.271  0.1608 -0.0688 -0.2026
15007W        W31141  13.287  13.639   0.900  0.0836  0.0741 -0.2492
15008W        W31142   7.253  15.116  11.848  0.0264  0.4031  0.4547
15009W        W31143  17.214   9.097   1.343 -0.0459 -0.3209  0.0261
15010W        W31144  11.149  10.751   4.174 -0.1283  0.0301  0.1140
15011W        W31145  10.442   5.826  13.848 -0.0437 -0.1911 -0.2479
15012W        W31146  15.252  14.757   4.499 -0.1734  0.2183 -0.0290
15013W        W31147  10.086   4.406   0.688 -0.2040 -0.0882  0.0787
15014W        W31148   5.904  17.808   0.970 -0.1131 -0.0986  0.1535
15015W        W31149   3.257   8.360   3.957 -0.2711 -0.3296 -0.2389
15016W        W31150  14.506  16.752   5.819 -0.0199  0.1402  0.2046
15017W        W31151   3.323  14.197   1.282  0.2998 -0.1212  0.1396
15018W        W31152   9.494   5.464   2.765  0.0973  0.0305  0.0070
15019W        W31153  18.002   1.292   4.931 -0.1274 -0.1565  0.3458
15020W        W31154  13.541   6.688   4.222  0.0470  0.4653 -0.1744
15021W        W31155   3.704   0.172  11.708  0.1406 -0.1050 -0.0351
15022W        W31156   7.542  15.592   0.991 -0.1528 -0.2820  0.1267
15023W        W31157   9.103  11.312  12.830  0.1518 -0.2369  0.2544
15024W        W31158   0.578  12.993   5.361  0.1082 -0.1935  0.3593
15025W        W31159   4.891   2.527  10.834 -0.0240 -0.0299 -0.0264
15026W        W31160   8.331   9.650  15.660 -0.1145  0.0591  0.0880
15027W        W31161   1.077  15.333  13.855 -0.2154  0.1021  0.1946
15028W        W31162  14.919   4.962  13.974  0.1385  0.1216 -0.1676
15029W        W31163  11.449  11.343  12.365 -0.1254 -0.2589  0.0368
15030W        W31164   1.736  16.319  14.784  0.3051  0.2055  0.0957
15031W        W31165  17.131  13.518  13.586 -0.0888 -0.0837  0.2821
15032W        W31166  13.557   6.429  15.142  0.1413 -0.1807  0.0483
15033W        W31167  16.593   9.086   1.541  0.0378 -0.2341  0.2860
15034W        W31168  11.355   8.634  10.881 -0.3482  0.0400 -0.1105
15035W        W31169   3.534  10.419   5.014 -0.0244  0.0513  0.0761
15036W        W31170   1.395  10.864   0.125  0.3739 -0.2311 -0.2015
15037W        W31171  12.235  17.497  15.906 -0.2971 -0.1476  0.0733
15038W        W31172   8.278  16.125   1.054 -0.1147 -0.1990 -0.0732
15039W        W31173  12.905   5.268   4.915  0.2602 -0.0791  0.3856
15040W        W31174   4.038   8.571   4.913 -0.3458  0.0080 -0.0665
15041W        W31175  18.157   7.608   1.897  0.0552  0.1395 -0.0284
15042W        W31176  11.581  10.053  14.541 -0.3955  0.0898 -0.0188
15043W        W31177  17.555   2.153  12.302 -0.2686 -0.1385 -0.0869
15044W        W31178   5.789  14.606   1.223  0.0216 -0.1301  0.0200
15045W        W31179   9.925  12.822  12.724  0.1130 -0.1490  0.2095
15046W        W31180   8.013  14.569   2.945 -0.4387  0.2990  0.2785
15047W        W31181  18.037   3.575   4.305 -0.0122  0.2660 -0.0129
15048W        W31182   7.545  16.197  15.357 -0.0147 -0.0519  0.1154
15049W        W31183   3.510   0.964   3.326  0.0518  0.2959 -0.1358
15050W        W31184  16.539  18.026   0.690 -0.2738  0.0241 -0.0671
15051W        W31185  10.499   7.905  13.459  0.1910 -0.0909 -0.0098
15052W        W31186   8.709   9.563   4.468  0.0211  0.0080  0.0140
15053W        W31187  11.533   8.457   1.231  0.3472  0.0636  0.1689
15054W        W31188  11.455  13.666   1.935 -0.2716  0.1354  0.2835
15055W        W31189   7.817   8.335   2.822 -0.0610 -0.0623  0.0948
15056W        W31190  17.490   7.586  11.092 -0.1750 -0.1658  0.0100
15057W        W31191   3.262   2.813  14.078 -0.0841  0.0456  0.3057
15058W        W31192   3.653  14.961   3.973 -0.2140  0.2753  0.3962
15059W        W31193  10.139  12.854  14.224  0.1307 -0.0179 -0.0429
15060W        W31194  12.425  10.039   0.549 -0.3303  0.2934 -0.2384
15061W        W31195   3.109   0.845   2.999  0.0038 -0.0377  0.0508
15062W        W31196  14.761  10.312  11.335 -0.2965  0.1417 -0.5405
15063W        W31197   8.014   0.035  11.349  0.1364 -0.3685 -0.1521
15064W        W31198   1.819   2.939   0.446 -0.0444  0.0989 -0.0732
15065W        W31199   2.728  17.692   5.513  0.1064 -0.0813 -0.3602
15066W        W31200  14.074   4.046   5.278  0.0622 -0.2664 -0.1131
15067W        W31201  13.726  10.724   0.325 -0.0930 -0.3195  0.1099
15068W        W31202   9.868  13.997  14.094 -0.5504  0.0425 -0.0504
15069W        W31203  11.170   1.894  10.874  0.2284 -0.1654 -0.0268
15070W        W31204  13.368   7.782  15.384  0.2543 -0.0630  0.0674
15071W        W31205  17.690   2.528   1.737 -0.1350 -0.1312 -0.1382
15072W        W31206  18.182  10.205   3.905 -0.1734 -0.0405  0.0897
15073W        W31207   4.271  15.633   3.862  0.0812  0.1333  0.0372
15074W        W31208  11.804  16.195   0.806 -0.1299  0.1654  0.0768
15075W        W31209   4.383  18.102  13.072  0.0763 -0.1320  0.1972
15076W        W31210   2.693   7.041  12.802 -0.0544  0.1405 -0.0885
15077W        W31211   4.352   0.579   1.340 -0.0641  0.0633  0.0351
15078W        W31212  14.625  10.412   5.680  0.0206 -0.1930 -0.1820
15079W        W31213   7.235   5.812  10.865  0.2335 -0.1611  0.2794
15080W        W31214  17.526  11.159   3.109  0.0668 -0.0675 -0.1159
15081W        W31215   5.802  18.031  13.149  0.0787 -0.0066  0.0999
15082W        W31216  12.387  15.166   3.804  0.2201 -0.1495 -0.0693
15083W        W31217   7.860   2.333  14.181  0.0270  0.2002  0.0399
15084W        W31218   1.274  14.176  12.587  0.1560  0.0734  0.1986
15085W        W31219   9.239   6.637   3.279 -0.0182  0.0670  0.0430
15086W        W31220  18.288  15.523   1.932 -0.3128  0.2042 -0.0360
15087W        W31221   0.949  10.011   2.025  0.5906 -0.1534  0.1300
15088W        W31222  11.244   8.015  12.847 -0.0214 -0.3386 -0.1377
15089W        W31223   6.615  14.128  13.146  0.0212 -0.1613  0.2517
15090W        W31224  14.242  16.861   4.093  0.0983 -0.2419 -0.1174
15091W        W31225  10.578   2.635   1.253  0.0413 -0.0452  0.2379
15092W        W31226   0.729  17.529  10.978 -0.3108  0.0208  0.0348
15093W        W31227  15.255  11.250   1.030 -0.1166 -0.0550 -0.3057
15094W        W31228   6.311   8.302  14.781 -0.0716  0.2250 -0.1611
15095W        W31229  18.117   0.725  11.952  0.1070  0.1503  0.0070
15096W        W31230  16.131   5.859  12.585 -0.1263 -0.1487  0.0933
15097W        W31231   9.726  11.385  12.149  0.1804 -0.1729 -0.1013
15098W        W31232  11.070  16.836  12.732  0.4299 -0.2573 -0.1407
15099W        W31233   0.280   4.643  12.676 -0.0445  0.1325 -0.3269
15100W        W31234  17.510   2.513   4.257 -0.4361 -0.4013 -0.1919
15101W        W31235  15.839  17.787   5.642  0.3459  0.2283  0.0842
15102W        W31236  11.515  13.596  12.468 -0.0093  0.0203  0.0986
15103W        W31237  13.888   9.782  13.351  0.0042  0.0117 -0.2618
15104W        W31238   7.539   3.258   4.382  0.0438  0.0780 -0.0391
15105W        W31239   2.470  17.217  13.406  0.2478  0.0567  0.1267
15106W        W31240   1.161   3.802  13.101  0.1878  0.0133 -0.4455
15107W        W31241  16.930   4.435   1.021  0.2246 -0.0458 -0.3203
15108W        W31242   1.642   9.474   2.503 -0.2899 -0.1949  0.2691
15109W        W31243  11.516   6.897   4.508 -0.0442 -0.0528  0.0930
15110W        W31244  12.322  10.790   0.782  0.0248 -0.0311  0.3089
15111W        W31245   8.280   6.620   0.491 -0.4108 -0.0361 -0.2979
15112W        W31246  17.912  16.885   5.052  0.2248  0.0840 -0.1997
15113W        W31247   5.019   3.945  14.738 -0.1509  0.2362 -0.0656
15114W        W31248   6.324   4.192   1.000  0.1025 -0.0198 -0.1638
15115W        W31249  17.837   0.972   6.093  0.1622  0.1387  0.1742
15116W        W31250   2.473   3.237   2.637 -0.1036  0.1766 -0.0062
15117W        W31251   7.783   2.169  15.433 -0.3600  0.0833  0.0888
15118W        W31252   3.867   4.670   0.540  0.1145  0.0669 -0.1703
15119W        W31253  16.028   2.709  11.095  0.0001  0.1296 -0.0793
15120W        W31254   7.398   6.690   4.419 -0.1675  0.0667  0.0110
15121W        W31255  15.758  14.897  11.659  0.0198 -0.0814 -0.0676
15122W        W31256  11.351  10.706   1.886 -0.1610 -0.1841  0.3344
15123W        W31257   0.088   5.079  14.266  0.1046 -0.1013  0.1515
15124W        W31258   0.483   5.558   1.382  0.0518  0.3261 -0.0691
15125W        W31259   3.818  16.108   0.036  0.2028  0.3266  0.0553
15126W        W31260  17.126  11.439  14.472  0.1133  0.1313  0.0629
15127W        W31261   3.431   4.346  15.467 -0.0045 -0.2556  0.0848
15128W        W31262  16.178  12.834  12.368  0.0849  0.0312 -0.2892
15129W        W31263   0.946   5.858   0.137 -0.2528  0.1400 -0.1331
15130W        W31264   9.650  16.969   4.433  0.0048 -0.1312 -0.0934
15131W        W31265   1.548   6.753   3.730 -0.2622 -0.0420  0.1764
15132W        W31266  13.648   1.974  12.616  0.0997  0.0728  0.3619
15133W        W31267  14.405   0.752   2.094  0.0381 -0.1465 -0.3807
15134W        W31268  17.843  17.719  11.800  0.0086  0.3488  0.0558
15135W        W31269  12.696   3.286   4.440 -0.2023 -0.1830 -0.1350
15136W        W31270   3.547  11.313   5.013 -0.4719  0.0530 -0.0233
15137W        W31271  11.278   0.846   5.019 -0.0788  0.0043  0.0056
15138W        W31272  10.870  16.085   1.037 -0.3322 -0.2519 -0.3854
15139W        W31273   0.892   8.542   2.117 -0.1764 -0.0211 -0.1713
15140W        W31274  12.478   0.065   5.470  0.2439  0.1777 -0.0271
15141W        W31275  15.115  13.924  12.128 -0.0492  0.2012 -0.0184
15142W        W31276  17.690  11.733   3.087  0.0345 -0.2085  0.1191
15143W        W31277  15.070   8.233  13.917  0.0891 -0.0843 -0.0205
15144W        W31278  10.618  15.522  12.776 -0.0008  0.1479  0.2765
15145W        W31279   4.005  15.734  13.935 -0.1068 -0.1125 -0.0197
15146W        W31280  12.129   3.522  14.036  0.1137  0.1905 -0.3080
15147W        W31281   1.080  15.848   3.021  0.1344 -0.2239 -0.2417
15148W        W31282  17.204   5.545  15.518  0.2122 -0.2270  0.1044
15149W        W31283   0.070  17.686  15.375  0.1312  0.0176 -0.2787
15150W        W31284   2.408   6.685   2.016  0.0615 -0.0649  0.2406
15151W        W31285  11.612   1.564   4.889  0.3738  0.0103 -0.1237
15152W        W31286  14.630  12.938  15.106  0.4016 -0.1623 -0.1723
15153W        W31287   0.329   5.924  15.521 -0.1429  0.1598 -0.1700
15154W        W31288   1.687  13.693   0.436  0.3166  0.0250  0.1087
15155W        W31289  15.655   1.585   3.718  0.1169  0.0788  0.0090
15156W        W31290   7.086  15.798  12.486 -0.1936 -0.0707  0.0337
15157W        W31291   1.057  18.458   4.127 -0.2759 -0.0598  0.0182
15158W        W31292   8.264   8.065   3.982 -0.0155  0.1620 -0.1319
15159W        W31293   5.242  13.104  12.142 -0.1765  0.5110  0.2441
15160W        W31294   9.837  17.494   2.901 -0.0682  0.1043 -0.3862
15161W        W31295   6.186  15.771  12.521  0.0500 -0.0728  0.0975
15162W        W31296  13.492   9.150   4.220  0.3117 -0.0835 -0.1615
15163W        W31297   9.882   0.632   3.868 -0.1550 -0.2521 -0.2369
15164W        W31298   2.978   5.203  12.968  0.2859 -0.3055 -0.0323
15165W        W31299  11.205  11.350   0.633  0.0952  0.1691  0.3067
15166W        W31300   9.802  17.594  14.896 -0.2290 -0.1399 -0.0666
15167W        W31301  15.846  17.620   2.113  0.0975 -0.1954  0.0837
15168W        W31302   4.711   7.307  13.581  0.0633 -0.1421 -0.3864
15169W        W31303  13.969   4.604   0.242 -0.0340 -0.0774 -0.1294
15170W        W31304  11.013  16.108   2.806 -0.0793  0.3699  0.0106
15171W        W31305   6.063   0.354   6.005  0.0528  0.0663  0.2056
15172W        W31306   6.879   1.569   6.155 -0.2381 -0.1817  0.3272
15173W        W31307  15.536   3.441   0.851 -0.0553 -0.2718 -0.3788
15174W        W31308  17.118   4.618  11.477  0.0678  0.0157 -0.2377
15175W        W31309  17.762   1.077  13.714 -0.2699 -0.0711 -0.1936
15176W        W31310  12.672   5.363  15.752 -0.4558 -0.1834  0.0262
15177W        W31311   4.359   4.325   3.539  0.2698  0.2102  0.2098
15178W        W31312   8.349   6.540  13.374 -0.0203  0.0682  0.1940
15179W        W31313  15.637  10.743   2.515 -0.2805 -0.1617 -0.0601
15180W        W31314   5.430   8.578  12.450  0.1366  0.0009  0.2259
15181W        W31315   3.824   3.214  11.694 -0.1805  0.2397  0.0212
15182W        W31316  14.022  17.213  11.224  0.0624  0.1226  0.0646
15183W        W31317   8.906   3.136   1.699  0.3111  0.1806 -0.1700
15184W        W31318  15.428   8.399   2.399 -0.1121 -0.1966 -0.0956
15185W        W31319   2.640  16.682   0.141  0.0584  0.0770 -0.0804
15186W        W31320   8.801  16.417  15.630  0.1473 -0.0753 -0.0035
15187W        W31321   9.920  10.011   4.331 -0.0278 -0.2366 -0.3130
15188W        W31322  14.088  16.948  12.630 -0.3692 -0.0089  0.1695
15189W        W31323  15.569   2.584   0.567 -0.0016  0.0548  0.0246
15190W        W31324   2.244   4.147   5.234  0.0531  0.0040 -0.1776
15191W        W31325   1.958  11.175   0.592  0.0302  0.2368  0.1513
15192W        W31326   9.841   1.030   3.370 -0.0633 -0.1224  0.2281
15193W        W31327   8.202  15.536  12.551  0.0510  0.1143  0.0026
15194W        W31328   2.700  16.073   4.260  0.1961 -0.2438 -0.0551
15195W        W31329  12.614  17.349  12.202 -0.1911 -0.1329 -0.0247
15196W        W31330  12.047   1.816   5.107 -0.1567 -0.1578 -0.0665
15197W        W31331  17.041  15.590   2.528  0.0970  0.0254 -0.1116
15198W        W31332  16.910  11.421   0.485  0.2930  0.0598  0.3205
15199W        W31333   9.032  12.538  15.302 -0.1017  0.0207  0.0333
15200W        W31334  15.256  13.337   4.758  0.1248  0.3953 -0.0753
15201W        W31335  11.533   0.590   0.097 -0.2137 -0.4325  0.2471
15202W        W31336   2.575  12.026  15.603  0.0031 -0.3611 -0.1028
15203W        W31337   9.175   0.647   1.953 -0.0625  0.0249 -0.0332
15204W        W31338   3.038   8.669   4.799 -0.0292 -0.3795  0.3622
15205W        W31339  14.040  16.747  13.837  0.1011 -0.2548  0.2053
15206W        W31340  15.972   2.144   4.296 -0.0312  0.2754 -0.3014
15207W        W31341  11.527   2.627   3.771  0.0311 -0.0442  0.1246
15208W        W31342   2.077   4.642  15.467 -0.1015 -0.2869  0.3629
15209W        W31343  11.706  13.965  10.910  0.0272 -0.1138 -0.2289
15210W        W31344  12.818   9.071   5.129 -0.1800 -0.2575 -0.2971
15211W        W31345  10.326  14.252  12.393 -0.2260  0.0544 -0.0491
15212W        W31346   5.543  16.078  15.124 -0.2387 -0.0795  0.0673
15213W        W31347  10.683  15.755   5.250  0.3857  0.0139  0.2145
15214W        W31348  17.983  10.946  14.322 -0.2765 -0.2936  0.1843
15215W        W31349  11.103   3.178   1.665 -0.2433  0.0969  0.1717
15216W        W31350   8.586  11.746   2.483 -0.3242 -0.0284 -0.0651
15217W        W31351  16.826   4.124  11.841  0.1222 -0.4144  0.0372
15218W        W31352  15.165  15.344   0.364  0.0492 -0.2613  0.2095
15219W        W31353  11.982   0.619   0.800 -0.0073  0.0178  0.3518
15220W        W31354  10.420  14.323  14.336  0.2979 -0.2737  0.1963
15221W        W31355   9.974   4.019   2.754 -0.1051  0.1359  0.1267
15222W        W31356   5.215   8.276   3.222 -0.1774  0.1605 -0.1787
15223W        W31357  17.520  13.096   5.119  0.1205 -0.2009  0.0135
15224W        W31358  13.099   5.414  11.494  0.0702 -0.0655 -0.2592
15225W        W31359  17.800   0.013  15.726  0.1527  0.0973 -0.0093
15226W        W31360   7.692   8.996  13.774  0.3936  0.0697 -0.1136
15227W        W31361  15.643   4.267  13.052  0.0022 -0.1713 -0.3617
15228W        W31362  10.528   5.943  15.400  0.2159  0.0462  0.1989
15229W        W31363  13.101   9.210   3.449 -0.0279  0.1927  0.1453
15230W        W31364  10.255   3.575  15.721  0.2493  0.0564 -0.0459
15231W        W31365   3.487   4.248   4.314 -0.1491  0.1189 -0.0553
15232W        W31366  18.061   6.301  14.755  0.2731  0.0167 -0.2562
15233W        W31367   7.351  10.926  14.321 -0.0635  0.1322  0.2214
15234W        W31368   3.943   0.312  12.158  0.1254 -0.1815  0.4598
15235W        W31369   7.368  13.059   2.890 -0.0192 -0.0153  0.0713
15236W        W31370  12.783   6.884   2.392  0.2430  0.1431 -0.3964
15237W        W31371   5.698   0.280   0.031  0.0315 -0.2144  0.0386
15238W        W31372   4.190  16.099  14.285 -0.2938 -0.2538  0.1354
15239W        W31373  17.933  11.606  12.107  0.1767 -0.0443 -0.0626
15240W        W31374   4.498   1.576   2.280  0.2673 -0.0255  0.1286
15241W        W31375   2.197   7.579   3.148 -0.2246  0.1342 -0.0684
15242W        W31376   2.414  12.098   1.008  0.0089  0.1301 -0.1737
15243W        W31377   5.348  13.861   3.023  0.0002  0.1425 -0.1190
15244W        W31378  14.227  13.483   4.525  0.0787  0.0485  0.0785
15245W        W31379   2.488   2.816  11.513  0.0698 -0.0399 -0.2345
15246W        W31380   0.748   4.364  13.871 -0.0995 -0.1716 -0.0625
15247W        W31381  12.467  10.604  15.763  0.1143 -0.0035  0.0062
15248W        W31382  14.780  15.330  14.899 -0.1713 -0.2722 -0.2084
15249W        W31383  14.984   5.950  13.859  0.2583  0.1888 -0.0809
15250W        W31384   0.563   6.005   5.853 -0.3135 -0.3352  0.0569
15251W        W31385   2.569  11.250   1.037 -0.0457  0.2032 -0.2718
15252W        W31386   2.169  17.437   2.886 -0.0334  0.1859  0.4064
15253W        W31387   5.227   9.016  14.137  0.0523  0.1778  0.0081
15254W        W31388  14.537  14.511   2.097  0.1089  0.2937 -0.2042
15255W        W31389  13.643   7.107   2.355  0.0028  0.0130 -0.0685
15256W        W31390   8.654   8.733   0.860 -0.2045  0.1064  0.0719
15257W        W31391  18.267   7.396   4.849  0.0668 -0.1450  0.0815
15258W        W31392   2.770   1.947   4.533 -0.0914 -0.0274  0.1868
15259W        W31393  13.999   9.215   3.162  0.0043 -0.0619  0.1315
15260W        W31394   1.118   6.008   2.470  0.2522 -0.0060 -0.1327
15261W        W31395  16.933   3.426  14.774 -0.0721 -0.0852 -0.0628
15262W        W31396   8.537  10.548   1.993 -0.2304 -0.2641  0.0165
15263W        W31397  16.206  14.172  11.492  0.2521  0.0718  0.0851
15264W        W31398   6.939  12.003   3.632 -0.3714 -0.1490  0.1002
15265W        W31399  11.212  16.937   2.224  0.0658 -0.4539  0.1192
15266W        W31400  16.869   1.281  13.286 -0.0794 -0.2429 -0.0822
15267W        W31401  11.552   7.809   4.052  0.3138  0.0580 -0.3480
15268W        W31402  15.639  14.686   5.377  0.3661 -0.1529  0.1635
15269W        W31403   4.396   4.394  13.669 -0.2231  0.5639  0.3586
15270W        W31404   1.236   9.291   1.312 -0.2572  0.3420  0.0908
15271W        W31405   6.118  11.223   0.349 -0.0747 -0.2904  0.2143
15272W        W31406   7.757  11.899  12.068 -0.1603  0.0930  0.1229
15273W        W31407  14.787   5.077   0.160  0.0246  0.1582  0.2281
15274W        W31408   3.433   1.984  12.278  0.2123 -0.3322  0.0433
15275W        W31409   5.595  18.436   2.791  0.3289  0.1420 -0.2020
15276W        W31410   4.764   6.325  14.972  0.0916  0.0353 -0.0143
15277W        W31411   5.244  11.367  15.257 -0.0052 -0.0687 -0.0915
15278W        W31412  11.682   4.413   2.766 -0.3173 -0.0780 -0.0819
15279W        W31413   9.012   1.081  13.497  0.1257  0.2322 -0.1635
15280W        W31414   9.685  16.071   3.119  0.0855 -0.0756 -0.0253
15281W        W31415   2.684   8.880   1.566 -0.1935  0.0241 -0.1372
15282W        W31416  15.415  13.893  14.560  0.0701 -0.3881 -0.2310
15283W        W31417  14.044  12.001   5.230 -0.0316 -0.0082 -0.3906
15284W        W31418  14.514  13.461  11.533 -0.0650  0.1214  0.2258
15285W        W31419  16.509   5.429   0.299 -0.0020 -0.0479 -0.1723
15286W        W31420   0.308   9.327   1.184  0.2148  0.1278  0.0589
15287W        W31421   1.485   8.691   3.617  0.1614  0.0849 -0.1767
15288W        W31422  14.300   0.835   2.584 -0.1877 -0.0591 -0.1916
15289W        W31423   0.894  15.854   4.545 -0.3206 -0.0523 -0.0927
15290W        W31424   0.964  14.640   0.359 -0.3015 -0.0413 -0.1143
15291W        W31425   6.241   2.967  15.689  0.2543  0.1567 -0.2575
15292W        W31426   4.487  12.177  11.164 -0.1909  0.1720 -0.1043
15293W        W31427   1.531  17.192  15.371  0.1267 -0.0481 -0.0472
15294W        W31428  16.072  16.548   2.281 -0.1504 -0.0007  0.0027
15295W        W31429   1.672   2.863  15.894 -0.0150  0.4247 -0.2024
15296W        W31430   6.923   7.153   0.831  0.2773 -0.2398  0.3231
15297W        W31431   8.530  14.864   5.453 -0.2540  0.1067 -0.0651
15298W        W31432   3.863  13.969  11.324  0.1189  0.1354  0.2951
15299W        W31433   3.636  12.324  14.817  0.0503  0.1506 -0.2002
15300W        W31434   5.386  12.144  11.088 -0.3212 -0.0067  0.0071
15301W        W31435  15.593  14.273   5.147  0.1014  0.2529  0.1780
15302W        W31436   1.097   0.544  13.706 -0.0295  0.0558 -0.0936
15303W        W31437   1.392  10.057   4.547 -0.0265  0.1985 -0.3174
15304W        W31438   1.473  14.680   1.482 -0.1852 -0.1512  0.1000
15305W        W31439  12.186  14.015  15.528  0.0407 -0.1495 -0.2286
15306W        W31440   6.589   7.112  11.673  0.3541 -0.0899 -0.0638
15307W        W31441  12.982   3.720   4.641  0.0023  0.1953 -0.2022
15308W        W31442  10.336   6.205   0.020 -0.2863  0.1901  0.0388
15309W        W31443  13.761   7.025   0.811  0.1715 -0.0422  0.0372
15310W        W31444   2.574  16.620  14.871 -0.2539  0.1108 -0.1418
15311W        W31445   2.246  15.417   0.370 -0.0967 -0.0719  0.2459
15312W        W31446   4.892  12.062   3.675 -0.0255 -0.1656 -0.0898
15313W        W31447   0.129  11.633  12.506  0.1844  0.2474  0.0630
15314W        W31448   6.244  10.758  13.041 -0.0403 -0.2392 -0.0937
15315W        W31449   3.467  17.127   2.556 -0.4644 -0.0944  0.1643
15316W        W31450   2.542   9.964   2.518  0.0061  0.1883 -0.1783
15317W        W31451  14.182   9.242   2.663 -0.0648  0.2443  0.0325
15318W        W31452  14.891  11.348   5.997  0.0833 -0.2334 -0.0829
15319W        W31453  12.784  11.043  13.752  0.0613  0.0997  0.0303
15320W        W31454  17.325  10.766  12.199  0.2158 -0.1537  0.1905
15321W        W31455   3.014  11.337  14.262  0.1783  0.2560  0.0632
15322W        W31456   1.248  16.085   2.036  0.1565 -0.3309  0.0078
15323W        W31457  11.070  15.720   2.294 -0.0190 -0.1139 -0.0109
15324W        W31458   4.925   9.161   1.331  0.4903 -0.3197 -0.3530
15325W        W31459  10.484   4.902   0.598  0.0802 -0.2292  0.1004
15326W        W31460  11.695   3.415  15.570 -0.0569 -0.3003 -0.0911
15327W        W31461   9.038   5.358   2.218  0.1000 -0.0040 -0.2575
15328W        W31462   4.022   9.452   0.958  0.2375 -0.0387  0.0846
15329W        W31463   2.483  14.337   0.665 -0.2107 -0.0978 -0.1143
15330W        W31464   3.256  11.853   4.375  0.1296 -0.1088  0.0101
15331W        W31465   0.090   1.134   2.369 -0.0215  0.2128 -0.1040
15332W        W31466   2.433  18.132   0.481 -0.1108 -0.2825 -0.2338
15333W        W31467  16.862   5.207  11.863  0.1090  0.1869  0.1495
15334W        W31468   5.719  13.281  15.412  0.0452  0.1183 -0.0016
15335W        W31469   2.948   1.805   0.271 -0.3499 -0.1488  0.1076
15336W        W31470  11.119   6.502  11.578  0.0122  0.2585  0.0209
15337W        W31471   9.584  14.139  13.094  0.2763  0.2425 -0.2282
15338W        W31472  10.349   3.817   5.149  0.0910  0.0607  0.0217
15339W        W31473   0.639   8.718  13.584  0.1289  0.1198 -0.1484
15340W        W31474  15.372  15.267  15.084 -0.1677 -0.2921 -0.3794
15341W        W31475   0.153   0.993   3.971  0.1036  0.3276 -0.0690
15342W        W31476   9.288  17.539   2.482  0.3088  0.2003 -0.2286
15343W        W31477  16.247   9.277  15.355  0.1312  0.2557 -0.2808
15344W        W31478   0.481   5.766  12.737 -0.0156  0.0698  0.1656
15345W        W31479  15.959   4.282   0.008  0.2552 -0.1188  0.2136
15346W        W31480   5.778  10.874   1.762 -0.0789  0.3213  0.2471
15347W        W31481   5.199   7.534  14.190 -0.1195  0.0884 -0.0053
15348W        W31482   9.102  10.604  14.853  0.0521  0.0842 -0.0718
15349W        W31483   3.783   7.773   3.341 -0.0799 -0.1171  0.0143
15350W        W31484  16.061  10.620  14.859 -0.0193  0.3635 -0.1591
15351W        W31485   9.054   6.522   0.693 -0.0737  0.1460 -0.3106
15352W        W31486   1.673   5.860   2.662 -0.1470  0.0599 -0.1474
15353W        W31487   0.634  10.708   3.047  0.3582  0.0192  0.1022
15354W        W31488  16.605   6.178   1.265  0.0789 -0.0616  0.4613
15355W        W31489  16.207   0.807  14.870  0.4390  0.0487  0.2344
15356W        W31490   8.271  16.580  11.429 -0.3745  0.1653  0.1702
15357W        W31491  16.685   4.947   1.924 -0.1112 -0.1574 -0.0859
15358W        W31492  16.262   0.854   3.668  0.0172  0.0591 -0.1423
15359W        W31493  15.219   9.440   0.345  0.1022 -0.0848  0.0938
15360W        W31494  10.435  14.284   0.595  0.0116  0.1031  0.1481
15361W        W31495   8.912  15.102  14.098  0.0886 -0.1922 -0.3043
15362W        W31496  16.665  13.490  15.678  0.0415 -0.2577 -0.0223
15363W        W31497  14.022   2.582   1.103 -0.2458  0.0039  0.2220
15364W        W31498  14.747  16.733   0.305 -0.3231 -0.1611 -0.1689
15365W        W31499  14.197   4.839  12.973 -0.2238 -0.2202 -0.4652
15366W        W31500   5.065  17.740  14.680 -0.0229 -0.0896 -0.1433
15367W        W31501   8.281   6.385  11.945 -0.1555  0.1868 -0.0953
15368W        W31502   3.108   7.158  12.425 -0.3647 -0.0202  0.3387
15369W        W31503   9.739   1.251  13.967 -0.1485  0.0360  0.2338
15370W        W31504  16.270   6.682  13.049  0.0983  0.0428 -0.0278
15371W        W31505   4.221  11.385   3.518  0.0107  0.2256  0.0338
15372W        W31506  11.194   1.107  12.991 -0.2425 -0.0369 -0.3310
15373W        W31507   5.335   7.305   4.684 -0.1120  0.1198 -0.0217
15374W        W31508   4.324   2.691  15.340 -0.1925 -0.3400 -0.0815
15375W        W31509   7.966   8.852  14.161 -0.1374 -0.0110  0.1337
15376W        W31510  12.035   1.793  14.564  0.0815 -0.1704 -0.0040
15377W        W31511  14.232   4.917  14.384 -0.0261  0.1422  0.0089
15378W        W31512   2.606   1.977   4.056 -0.2355  0.0555 -0.0203
15379W        W31513  11.150   4.554   1.559 -0.1640  0.0272 -0.0414
15380W        W31514  14.473   0.124  12.495 -0.2395 -0.0924  0.1024
15381W        W31515   5.990   5.627  12.904 -0.0370 -0.1118  0.1668
15382W        W31516   2.109  12.312   2.748 -0.1008 -0.2773  0.1049
15383W        W31517   0.663   9.062  15.589 -0.1229 -0.0807  0.0191
15384W        W31518  10.342  12.115  12.161 -0.1584  0.0681 -0.3797
15385W        W31519   2.916   5.101  15.867 -0.3879 -0.3311 -0.0646
15386W        W31520  11.523  10.552   1.443  0.1377 -0.2741  0.1868
15387W        W31521   6.909   1.428   1.790  0.2816  0.0363  0.0595
15388W        W31522   6.642  18.120   1.602  0.3591 -0.1931 -0.1247
15389W        W31523   3.665   9.597  12.325 -0.0024 -0.0649  0.0464
15390W        W31524   2.348  17.163   1.839 -0.0714 -0.2283  0.1175
15391W        W31525   0.440   7.458  15.243 -0.1229 -0.3489  0.2010
15392W        W31526   6.511  10.971   3.546  0.4893 -0.4742 -0.0227
15393W        W31527  10.879   6.296  15.480 -0.2038  0.0991  0.1079
15394W        W31528   9.897   8.333  10.683  0.0594 -0.4224  0.0751
15395W        W31529  12.299   4.706   2.339  0.0702 -0.3489 -0.0147
15396W        W31530  10.879  12.597   4.337  0.0134 -0.0517  0.0477
15397W        W31531   3.631   9.895  13.775 -0.0670  0.2018 -0.0581
15398W        W31532   1.248  15.258  10.949 -0.2478 -0.0336  0.1795
15399W        W31533   7.537  10.909  15.559  0.0034  0.0959  0.1596
15400W        W31534  10.887   5.906  13.601 -0.0068  0.2019  0.0181
15401W        W31535  15.663   2.933   0.992 -0.0697  0.0703 -0.2357
15402W        W31536  10.993  15.306  15.529  0.0854 -0.1090  0.1186
15403W        W31537  11.825   0.604   2.833 -0.3893 -0.2877  0.0589
15404W        W31538   2.149  14.891   2.177 -0.2630  0.2833 -0.1665
15405W        W31539   2.836  16.771   2.036 -0.0776 -0.0034  0.0422
15406W        W31540   5.304  10.584  13.024 -0.2644 -0.1627 -0.0200
15407W        W31541  14.879  16.737  12.309 -0.0769 -0.0301  0.1046
15408W        W31542  17.779   8.400   0.368 -0.3709  0.0174  0.1831
15409W        W31543   3.341  17.046  11.399 -0.1993  0.0280 -0.0302
15410W        W31544  12.128  11.804   5.401  0.0211 -0.4494 -0.0041
15411W        W31545   1.828   0.155  13.470 -0.3884 -0.1323  0.0753
15412W        W31546  17.680  11.793  14.599  0.0071  0.1606 -0.2021
15413W        W31547  10.417  17.164   1.801 -0.0362 -0.0253 -0.1882
15414W        W31548   8.257  14.592  15.052  0.0849 -0.1489 -0.0618
15415W        W31549   3.651   9.901  15.474 -0.0859  0.0521  0.0930
15416W        W31550   4.258  11.404  14.821 -0.0103 -0.0683 -0.0615
15417W        W31551   3.878  12.403   0.112 -0.2043  0.0133  0.0138
15418W        W31552  18.288   4.123  13.846 -0.1592  0.3336  0.1931
15419W        W31553   1.330  17.340   5.460  0.0377 -0.2296  0.0534
15420W        W31554   0.114   4.603   4.365 -0.0109 -0.0244 -0.0332
15421W        W31555   0.895   9.899   4.350  0.0675  0.0436  0.3722
15422W        W31556   3.432   1.478   1.479  0.0480  0.3150 -0.0019
15423W        W31557  18.089   6.007   3.264  0.0471  0.2416 -0.0516
15424W        W31558   8.223   0.895   3.619  0.0212  0.2046  0.2657
15425W        W31559  15.105  17.881  14.511  0.0268 -0.3169 -0.0728
15426W        W31560   4.435   3.873   2.425  0.3547 -0.3061  0.0251
15427W        W31561  13.304   8.522   2.769 -0.0114 -0.1715 -0.1633
15428W        W31562   2.369   2.850   4.111 -0.1806  0.1015  0.0633
15429W        W31563  15.278   6.431   0.706  0.0503 -0.1562 -0.1203
15430W        W31564   5.026  10.790   1.371 -0.0161  0.2450 -0.0645
15431W        W31565  17.031   9.660   0.060  0.2169  0.2663 -0.5139
15432W        W31566  10.722  11.618  15.745 -0.1641 -0.3678  0.0621
15433W        W31567  10.048  14.502  12.069  0.1236 -0.0321  0.1152
15434W        W31568  14.524   4.712   3.338  0.0443  0.0523 -0.1716
15435W        W31569   7.573   6.247   5.818  0.3048  0.0467 -0.3995
15436W        W31570  14.549   8.563   4.862  0.1981 -0.0597 -0.0630
15437W        W31571   2.091   3.859  12.413 -0.0143  0.1595  0.0975
15438W        W31572   8.021  12.672   2.660  0.0343  0.1204  0.0558
15439W        W31573   6.680  10.162  14.649 -0.1106  0.1866 -0.2448
15440W        W31574   5.925   3.550  11.678  0.0277 -0.0101  0.0303
15441W        W31575  15.909   7.013   4.208  0.1466  0.2275  0.1343
15442W        W31576   0.907  14.710   9.870 -0.0614 -0.0890 -0.1729
15443W        W31577   6.328   5.254  10.901  0.0342 -0.0098  0.2202
15444W        W31578  14.994   1.489  13.022  0.1173 -0.0377 -0.1109
15445W        W31579   6.268  10.052   3.783  0.1134  0.0731  0.4673
15446W        W31580   4.796   5.674  15.076 -0.0431  0.2122  0.0622
15447W        W31581   4.053   6.338   5.108  0.3174  0.1913 -0.1408
15448W        W31582   3.976   5.133   0.350 -0.0739  0.0481 -0.0087
15449W        W31583   5.677   5.954  15.328  0.1223 -0.1127 -0.0677
15450W        W31584   5.691  15.676   0.147 -0.1194  0.0723  0.1608
15451W        W31585   7.414  16.225  13.184 -0.0879 -0.0737 -0.0037
15452W        W31586   5.877   7.774   1.310 -0.0581 -0.0146  0.6068
15453W        W31587   3.320   2.742   4.523  0.0719  0.0175  0.0130
15454W        W31588   5.049   8.210  13.477  0.2248  0.0076  0.1227
15455W        W31589   0.811  11.273  13.233  0.0613 -0.0384 -0.0182
15456W        W31590  11.260  16.155   1.995  0.0211 -0.0511 -0.1456
15457W        W31591  11.965  14.451  14.559  0.0839  0.1484 -0.0793
15458W        W31592  10.799   8.123   4.689  0.1119 -0.6182 -0.2073
15459W        W31593   6.861   0.784  14.076  0.3077  0.1717  0.2616
15460W        W31594  14.238   5.193  14.832  0.0158  0.0756  0.1925
15461W        W31595   3.849   8.149  10.407  0.2012 -0.2219  0.1231
15462W        W31596   0.364   3.617  13.717 -0.0660 -0.0820  0.1489
15463W        W31597  16.019  15.162  14.588 -0.1384 -0.0163  0.0560
15464W        W31598  11.217   5.459  10.008 -0.0029 -0.0437 -0.0220
15465W        W31599   7.770   5.836   1.036  0.1250  0.0052  0.0457
15466W        W31600   7.495   0.977  13.271 -0.1559  0.0266 -0.1312
15467W        W31601   1.674  15.057  15.850  0.1175  0.2511  0.3292
15468W        W31602  15.782  18.383  14.914  0.2435  0.0827 -0.0943
15469W        W31603   3.978   5.325   3.052 -0.0179 -0.0089  0.2399
15470W        W31604  17.523  10.685   0.775 -0.0471 -0.1358 -0.0534
15471W        W31605   8.372  18.303   3.191  0.2699  0.1515  0.0475
15472W        W31606   0.425  13.195   1.757  0.2674 -0.1394  0.0180
15473W        W31607  15.614   4.026   5.344 -0.0227 -0.2262 -0.3008
15474W        W31608   2.269  16.186  14.745  0.0116 -0.2224  0.1625
15475W        W31609  14.026  11.246  11.387 -0.2520  0.0022  0.4457
15476W        W31610  17.633  17.521   2.260 -0.0025 -0.3076 -0.0749
15477W        W31611  13.239   6.177   5.115 -0.2657  0.0929 -0.1838
15478W        W31612   5.083  15.986   2.978  0.0068  0.2088  0.0710
15479W        W31613   6.886  11.748   0.329  0.0533 -0.1971 -0.0667
15480W        W31614   6.318  11.991   1.606  0.0899 -0.1968 -0.0232
15481W        W31615   0.056  16.759   1.614  0.0401 -0.0476 -0.2187
15482W        W31616  13.892  12.127   0.170  0.1587 -0.2710  0.0688
15483W        W31617  13.412   4.183   2.841  0.0227 -0.1762 -0.1740
15484W        W31618  12.003  11.075   2.122 -0.0333  0.0083 -0.1540
15485W        W31619   1.315  17.310  14.337 -0.1883  0.0056  0.1350
15486W        W31620   0.076  14.853   2.235 -0.3800 -0.1485 -0.1045
15487W        W31621  10.028  14.423   1.766  0.3159 -0.3320  0.0075
15488W        W31622  15.311  12.534  14.586  0.1692 -0.1810  0.0980
15489W        W31623   4.655  11.841  11.574 -0.0851  0.0791  0.0518
15490W        W31624   1.924   7.234   0.489 -0.1913 -0.0263  0.3266
15491W        W31625   2.620  10.806  15.480 -0.2698 -0.0888 -0.2651
15492W        W31626  16.177   3.263   2.007  0.2412 -0.0907  0.0991
15493W        W31627   5.582  15.485  15.089 -0.1223  0.0020 -0.3304
15494W        W31628   3.947  13.855  11.901 -0.0392  0.2615 -0.1837
15495W        W31629   5.717   0.992   0.609 -0.1606 -0.0352  0.1639
15496W        W31630   5.021   7.647  14.636  0.2695 -0.0866  0.0210
15497W        W31631   3.097   2.008   2.440 -0.0072 -0.1898 -0.0898
15498W        W31632  17.652   5.575  11.604  0.0304  0.0248 -0.1815
15499W        W31633  15.434   3.909  14.932 -0.2916  0.0907 -0.2712
15500W        W31634   6.140   7.809   4.951 -0.0094 -0.1511 -0.0833
15501W        W31635  14.037  17.952  15.386 -0.0183  0.1734 -0.0228
15502W        W31636  17.837   1.012   3.587  0.1337 -0.1382  0.0726
15503W        W31637   4.425  14.041   2.886  0.1482  0.2951 -0.0257
15504W        W31638   9.567   3.839  11.143 -0.0584 -0.0490  0.1420
15505W        W31639  12.973   7.311  15.253  0.1136 -0.3518  0.2468
15506W        W31640  17.771   6.595   1.506 -0.2074 -0.1847 -0.3151
15507W        W31641  15.520  16.712   1.497  0.1198 -0.0181  0.1393
15508W        W31642  10.140   0.974   2.987  0.3605 -0.1779  0.1824
15509W        W31643  16.626   9.346  12.669 -0.0440 -0.0349  0.1103
15510W        W31644  14.496   1.266  13.656  0.2658  0.0475 -0.0217
15511W        W31645   8.272   1.110  15.163 -0.0322 -0.0400 -0.0894
15512W        W31646   9.705  14.967  12.564  0.0017  0.1734  0.0696
15513W        W31647  17.675  15.938   1.097 -0.1864 -0.0665 -0.1673
15514W        W31648  11.955   1.852  10.960  0.1183  0.1020  0.2555
15515W        W31649   5.899   9.369  12.755  0.1806  0.0562  0.0727
15516W        W31650   2.336  17.596  10.439 -0.0212  0.3956  0.1487
15517W        W31651   1.486   4.875   0.606  0.0600 -0.0100 -0.1034
15518W        W31652  12.567   1.841   4.090  0.2681 -0.0026  0.1827
15519W        W31653   0.312   9.413  12.848  0.1171  0.0353 -0.0064
15520W        W31654   1.740  15.825  15.770 -0.2166 -0.2037 -0.1234
15521W        W31655   8.964   0.899   3.881  0.1139  0.2182  0.1230
15522W        W31656   1.243   8.187   2.162  0.1422 -0.0868 -0.1823
15523W        W31657  15.437   3.749  13.804 -0.1480  0.3233 -0.0014
15524W        W31658  17.956   7.945   3.371  0.0119  0.0174 -0.1433
15525W        W31659   5.051   0.476   2.070  0.0082 -0.3242 -0.0481
15526W        W31660   4.495  14.104  15.637  0.1223 -0.2115  0.1645
15527W        W31661  11.162  11.084   1.592 -0.0381 -0.1520  0.0161
15528W        W31662  17.863  10.760  14.862 -0.2831  0.0512 -0.0533
15529W        W31663   8.406   1.466  14.210  0.2886 -0.0457 -0.0319
15530W        W31664  18.430   1.003  14.289 -0.1018  0.0591  0.0820
15531W        W31665   7.744  13.645  14.436 -0.1146  0.1111 -0.0134
15532W        W31666  16.337  17.591  12.594  0.0835 -0.1812  0.1600
15533W        W31667  16.122  13.517   3.346 -0.1182  0.1880  0.3144
15534W        W31668   0.605   4.192  10.849  0.2625  0.2081  0.4512
15535W        W31669   3.017  15.959  13.019  0.3263 -0.1958 -0.1112
15536W        W31670  16.926   6.022  14.805 -0.0036 -0.1513  0.0823
15537W        W31671  14.200  17.254  12.210 -0.0133 -0.0580  0.0768
15538W        W31672  11.033  12.718   0.898  0.0594 -0.2206  0.0785
15539W        W31673  14.300   9.487   1.900 -0.0248  0.1019  0.0810
15540W        W31674   1.510   7.507   0.594  0.1075 -0.1848  0.0373
15541W        W31675   1.194   9.010  14.804  0.2364 -0.0388  0.0004
15542W        W31676  15.867  14.117  11.975 -0.2036 -0.1452  0.0635
15543W        W31677  17.286  18.306  15.631 -0.0515  0.1380  0.2446
15544W        W31678   2.836  15.656  12.099 -0.0286 -0.3746 -0.2521
15545W        W31679   5.282  15.833   1.619 -0.0594  0.2545  0.0310
15546W        W31680   8.220   9.671  12.555 -0.0497 -0.1687  0.5137
15547W        W31681   2.535  11.153  14.018 -0.0049 -0.0256  0.0838
15548W        W31682  11.882  16.766  13.023 -0.0190  0.0106  0.0382
15549W        W31683   4.133  12.453  12.896  0.1296 -0.1445  0.1159
15550W        W31684   8.808  15.126   2.213 -0.0345  0.0104 -0.1759
15551W        W31685  11.464  11.153   3.487  0.1250 -0.2446 -0.0197
15552W        W31686  11.286  12.245  13.077 -0.2218  0.2354 -0.1827
15553W        W31687  11.625  13.955   0.820 -0.0833 -0.0702 -0.2844
15554W        W31688  12.812  14.170   0.439  0.0907 -0.0790 -0.0272
15555W        W31689  13.596  14.387   1.501 -0.3307  0.0395 -0.1926
15556W        W31690   4.477  16.821   6.614 -0.0088  0.3012 -0.1107
15557W        W31691   7.191  17.304  14.641  0.0941 -0.2803 -0.0076
15558W        W31692   0.001  10.977   2.366  0.0771 -0.3568 -0.0254
15559W        W31693  16.962   2.462   1.043 -0.1827  0.1061  0.0117
15560W        W31694   4.746  12.173   4.494  0.3214 -0.1078 -0.0348
15561W        W31695   4.821  15.171   0.515 -0.0913  0.2057 -0.2961
15562W        W31696  13.526  10.503  10.275 -0.0268 -0.0913 -0.0605
15563W        W31697  14.288  12.826   1.538  0.3284  0.3461 -0.1492
15564W        W31698   2.477   4.968   1.110 -0.2091 -0.0516 -0.1246
15565W        W31699   1.660  15.033  11.629 -0.4022 -0.0716  0.1471
15566W        W31700   6.704  18.145   4.453 -0.0570 -0.1259 -0.3057
15567W        W31701  14.630  16.643  14.030 -0.0533 -0.2359  0.1370
15568W        W31702  17.521  14.993   0.713  0.1255  0.3494  0.2775
15569W        W31703   7.700  17.987   4.501  0.2439  0.0096  0.1882
15570W        W31704  15.477  16.505   2.932 -0.2391  0.3575  0.2828
15571W        W31705   9.534   3.620   0.158 -0.0719 -0.1297  0.0268
15572W        W31706  15.852   8.619   2.333 -0.1157  0.0712 -0.3745
15573W        W31707  13.479   0.935   0.618 -0.3124  0.3309  0.0540
15574W        W31708  14.934   5.942  14.901  0.0223 -0.1257 -0.1265
15575W        W31709   2.918   2.485  14.435  0.0385 -0.2046 -0.2032
15576W        W31710  11.108   2.420   0.472  0.1381 -0.2766  0.0246
15577W        W31711   5.181   7.919   5.297  0.1684  0.0932  0.0061
15578W        W31712  16.178   4.447   3.092  0.0948  0.1941 -0.2107
15579W        W31713   2.956  17.692   2.825  0.2347  0.1004  0.3280
15580W        W31714  12.564   4.832   2.785 -0.1874  0.0420  0.0065
15581W        W31715   6.253   5.248   2.792 -0.0079 -0.2483 -0.0635
15582W        W31716   6.287   4.905   2.484 -0.2929  0.2265 -0.2750
15583W        W31717   3.755   4.976   3.367  0.1318  0.1515 -0.0413
15584W        W31718   7.371   8.549   0.034  0.1508  0.1906 -0.0739
15585W        W31719   3.564   9.651   4.018 -0.1881 -0.0799  0.0682
15586W        W31720   2.171   3.397  13.725  0.0994  0.4945  0.4032
15587W        W31721   2.026   2.694  12.815  0.1579 -0.2910 -0.0239
15588W        W31722   4.300  12.864   3.466  0.3783  0.2675  0.0094
15589W        W31723   0.472  15.350   0.087  0.0686 -0.1390  0.1626
15590W        W31724  11.197  14.126   1.026  0.1008  0.0494  0.0500
15591W        W31725   8.307  13.757   4.410  0.3338  0.3735 -0.0191
15592W        W31726   8.151   2.458  15.681  0.1233 -0.4090 -0.2246
15593W        W31727  11.371  16.032   3.758  0.4055  0.0390  0.1182
15594W        W31728  12.198  14.497  12.129 -0.0218  0.0196  0.1772
15595W        W31729  14.679  16.264   5.944 -0.2300  0.2369  0.5861
15596W        W31730  16.113   4.723   2.280  0.0017 -0.3705 -0.0667
15597W        W31731  10.108   9.581  15.327  0.1667  0.0780  0.1148
15598W        W31732   6.840   1.209  15.701  0.2680  0.0570 -0.1130
15599W        W31733   7.952  13.101   3.834 -0.2163  0.2111 -0.0744
15600W        W31734  10.409   2.343   0.001 -0.1351 -0.0893 -0.0251
15601W        W31735  17.711   4.761   4.465 -0.0903 -0.1003 -0.0106
15602W        W31736  11.082  16.721   0.772  0.1443  0.1305  0.1509
15603W        W31737  14.899   3.455   1.171  0.2324 -0.2078 -0.1794
15604W        W31738  17.285   0.085   2.922  0.0772 -0.0560  0.4313
15605W        W31739  16.763  16.422  15.412  0.2777 -0.0001  0.2102
15606W        W31740   7.963  17.815   2.360 -0.2788 -0.0455 -0.1119
15607W        W31741   4.496   0.140  11.349  0.1942  0.0766 -0.0738
15608W        W31742  15.292   7.641   0.370 -0.1690  0.3453  0.0457
15609W        W31743  17.620  15.523  14.045  0.0276  0.0954  0.1416
15610W        W31744   0.642   1.866   0.359 -0.0934 -0.0058 -0.1195
15611W        W31745   0.207  10.167  10.936 -0.1947  0.1129 -0.1127
15612W        W31746   7.114  10.217  15.709  0.2867  0.2691  0.0918
15613W        W31747   5.095  13.292  12.659  0.1534 -0.1576  0.1993
15614W        W31748   5.722  15.195   3.034  0.2270  0.1401 -0.0814
15615W        W31749   3.330  16.097   1.264  0.2073  0.0344 -0.1287
15616W        W31750   8.966  14.422   5.884  0.0197 -0.1360  0.0999
15617W        W31751   0.232   9.442   4.886 -0.0283  0.0209 -0.2754
15618W        W31752   0.042   0.041  12.379 -0.0440  0.1344  0.1669
15619W        W31753  17.404  12.739   3.617  0.1169 -0.0197 -0.2442
15620W        W31754   5.057  10.071   9.722 -0.1663  0.1003  0.0265
15621W        W31755  10.986   5.540  14.680  0.1726  0.0744 -0.0547
15622W        W31756  17.022   1.150   2.914  0.0325 -0.0104  0.0552
15623W        W31757  16.920  12.693  10.957 -0.1588 -0.1363  0.2561
15624W        W31758   3.365   7.253   2.644 -0.3341 -0.3615 -0.1478
15625W        W31759  10.398   9.506  12.069  0.0934  0.1620  0.4239
15626W        W31760   1.576  14.947   1.997 -0.1642  0.2626  0.3044
15627W        W31761   4.469   0.546   4.156 -0.0430  0.0372  0.2416
15628W        W31762   0.847   7.535  12.062 -0.2309  0.1533 -0.1144
15629W        W31763  14.476   3.354   0.275 -0.2557 -0.0037  0.0271
15630W        W31764   4.183   6.203   3.710 -0.4987  0.0339  0.0290
15631W        W31765  11.182  14.192   4.530 -0.1139 -0.0219  0.0296
15632W        W31766  13.281   9.749   2.492  0.1428  0.1681 -0.0997
15633W        W31767  14.608  16.413   2.535 -0.1009 -0.1266 -0.1205
15634W        W31768  17.048  15.018  12.490  0.1742  0.0851  0.2909
15635W        W31769  10.615   8.979   2.750  0.0720 -0.1048  0.3596
15636W        W31770   9.442  13.761   5.334  0.0804 -0.2583 -0.2457
15637W        W31771  11.974   3.863  15.622  0.1742 -0.1024 -0.0350
15638W        W31772  17.076   3.904  14.763 -0.0521 -0.1066 -0.3168
15639W        W31773   3.652   4.194  14.661  0.1550 -0.0470  0.1810
15640W        W31774  11.910   1.615   1.227 -0.0356 -0.0531 -0.0500
15641W        W31775   3.318  12.514   3.181  0.3381  0.0109 -0.1997
15642W        W31776   1.180   3.526  11.728 -0.0466  0.3064 -0.0371
15643W        W31777  18.305  10.567  14.973  0.2063  0.1267 -0.1856
15644W        W31778   0.427   4.969   3.003 -0.1799 -0.5107  0.0625
15645W        W31779  14.153   6.057  14.494  0.2835 -0.0529 -0.1893
15646W        W31780  13.901  10.590   4.265 -0.2441  0.2850  0.1789
15647W        W31781  17.100   7.299  15.106 -0.0647 -0.0589 -0.1917
15648W        W31782   9.084  11.142  15.581 -0.0440 -0.2180  0.1072
15649W        W31783  10.778   9.725   3.214 -0.0735 -0.1233 -0.2337
15650W        W31784   3.391  14.628   0.678 -0.2386 -0.2225  0.1395
15651W        W31785   5.702  14.199  13.654  0.1007  0.1501  0.2822
15652W        W31786   3.428  16.448   4.899 -0.3306 -0.1014  0.0358
15653W        W31787  15.676   6.619   0.454 -0.2178  0.1403  0.1993
15654W        W31788   9.598   9.559   0.329 -0.1705 -0.0937  0.1549
15655W        W31789  11.608   7.143  12.616  0.1708  0.0949 -0.2427
15656W        W31790   7.523  12.236   1.087 -0.0989  0.0837  0.2023
15657W        W31791   5.345  17.488  14.326 -0.1402  0.2755 -0.1572
15658W        W31792   5.822  13.739  12.060 -0.0860  0.2238 -0.0674
15659W        W31793  13.017   5.658  14.308 -0.0320 -0.0029  0.2387
15660W        W31794   2.122   3.999  12.927  0.1277 -0.0489 -0.1373
15661W        W31795  12.819  12.593  14.778  0.2617  0.1498 -0.0309
15662W        W31796  17.125  11.265  15.003  0.0056  0.0977 -0.1924
15663W        W31797  12.568  15.254  15.143 -0.2035 -0.2420  0.0830
15664W        W31798   6.329  16.699  11.797  0.1924 -0.3368 -0.0020
15665W        W31799   4.376  11.012  14.462  0.0603  0.1158 -0.3084
15666W        W31800   4.942   7.331  10.234 -0.1729  0.1697 -0.0688
15667W        W31801  13.576   3.590  10.989  0.1147 -0.0879  0.1173
15668W        W31802  17.835   4.589  14.656 -0.1881  0.0682 -0.0930
15669W        W31803   2.739   5.929  12.753 -0.1539 -0.1041 -0.2912
15670W        W31804   3.884   3.347  13.232  0.1379  0.2347 -0.2399
15671W        W31805  17.747   3.666   1.179 -0.3206 -0.0609  0.1473
15672W        W31806   9.463  17.646  13.399  0.2149  0.0929 -0.2251
15673W        W31807   1.373  16.817  12.076  0.2727 -0.1629  0.1894
15674W        W31808   5.911   2.769   0.962 -0.2068  0.2509 -0.2631
15675W        W31809  17.043   0.518  13.980  0.2222  0.1293  0.0166
15676W        W31810   3.099  17.345   4.858  0.1303 -0.1208  0.3067
15677W        W31811   5.873   2.026  12.944 -0.2838 -0.2073 -0.1584
15678W        W31812  10.390  13.134   0.763  0.1793  0.0775  0.0549
15679W        W31813  13.275   7.944   4.069  0.2868 -0.1051  0.0036
15680W        W31814  15.441  14.537  15.805  0.1844  0.0813 -0.1412
15681W        W31815   7.126   8.127  15.756 -0.0008  0.0030 -0.3548
15682W        W31816  18.212   9.471  12.592  0.1463 -0.0637  0.1310
15683W        W31817   6.313  13.825  11.961 -0.3102  0.2594  0.1151
15684W        W31818  14.099  10.464   0.099 -0.1303 -0.1230 -0.0260
15685W        W31819   5.311   0.746   3.324  0.1155  0.2148 -0.0777
15686W        W31820   0.602  10.912   1.138 -0.1176  0.0438  0.0408
15687W        W31821   4.888   7.805   3.307  0.4762 -0.1625  0.0917
15688W        W31822  11.891   7.779   0.950 -0.2518  0.2267  0.0762
15689W        W31823   6.227   4.275   1.476 -0.4783  0.0407 -0.0376
15690W        W31824   0.835  16.370   3.731  0.1873 -0.0221  0.2240
15691W        W31825   8.066   7.561  12.677 -0.1466 -0.4217 -0.1606
15692W        W31826   3.335  17.174   0.861 -0.3319  0.0213  0.0020
15693W        W31827   8.002  17.103  15.508  0.1983  0.0990 -0.1347
15694W        W31828  15.828  10.499  12.031 -0.2292  0.0461  0.2616
15695W        W31829   6.968   5.582  14.401 -0.0032 -0.3174 -0.0064
15696W        W31830  18.140   2.960  14.861 -0.0755  0.0352  0.0686
15697W        W31831   1.621  15.435  11.305 -0.1199  0.1920  0.0385
15698W        W31832   9.853  10.470  13.825  0.1389  0.2055 -0.0195
15699W        W31833   4.303   3.347   3.163  0.0818 -0.3174 -0.1729
15700W        W31834  17.857  15.614   4.310  0.3428 -0.2546 -0.0704
15701W        W31835   1.399   6.083   0.304  0.0350  0.0211 -0.0616
15702W        W31836  16.346   8.849   4.724  0.0680  0.0233 -0.0010
15703W        W31837   7.336   1.983   4.372 -0.1527 -0.2617 -0.0468
15704W        W31838  11.200   9.722  12.594 -0.1185  0.0764  0.1054
15705W        W31839  17.130   5.410  14.150  0.0165  0.3207 -0.1188
15706W        W31840   2.498   1.037   0.217 -0.1030 -0.2104 -0.2092
15707W        W31841   4.247   8.741  14.270 -0.0230  0.1012 -0.1443
15708W        W31842   5.423   5.516  11.145  0.1248  0.0944  0.0142
15709W        W31843   5.988  13.279  12.613 -0.3060 -0.2346 -0.1339
15710W        W31844   5.336   6.159  13.433  0.2164 -0.1569  0.0551
15711W        W31845   2.831   0.264  15.831  0.0585  0.2922 -0.1310
15712W        W31846  14.086  14.273   1.223 -0.1651 -0.0245  0.0190
15713W        W31847   7.078  13.221  14.804  0.2730 -0.4348  0.1529
15714W        W31848  17.354   0.840   1.679 -0.0870  0.1410 -0.2831
15715W        W31849  14.565  14.300  12.413 -0.1053 -0.0308  0.0358
15716W        W31850  16.268  14.721   0.573  0.2671 -0.1227 -0.1234
15717W        W31851   8.214   2.513   2.696 -0.0740  0.2612  0.0825
15718W        W31852   3.266  12.274  13.218  0.0696 -0.2415 -0.4483
15719W        W31853   8.405  15.719   0.171  0.2526  0.0939  0.2671
15720W        W31854  11.970  13.170  11.915 -0.0760  0.0709 -0.0843
15721W        W31855  18.333  16.220  15.720 -0.3757 -0.1410 -0.1805
15722W        W31856   7.685   6.356   1.264  0.2546  0.0059 -0.1181
15723W        W31857  17.974  14.893  12.346  0.1242  0.0107  0.0312
15724W        W31858   5.300   4.068   2.660  0.2375  0.2384 -0.0690
15725W        W31859  10.513   9.479   5.212 -0.0545 -0.0728  0.1808
15726W        W31860  11.129   9.912  13.206  0.1211  0.1160  0.1368
15727W        W31861  10.034   6.978  11.015 -0.1018  0.1117 -0.1356
15728W        W31862  10.507  11.770  13.574 -0.1322 -0.0927  0.1650
15729W        W31863   0.248   8.080   3.543 -0.3824  0.1300 -0.3014
15730W        W31864  14.064   2.547   3.685  0.0928 -0.0625  0.0461
15731W        W31865  14.014   0.783   0.185 -0.1728  0.1958  0.1028
15732W        W31866  12.681   4.728  12.004  0.1645 -0.0195 -0.2003
15733W        W31867   6.691   6.801  13.252  0.1292  0.1747  0.1060
15734W        W31868  11.324  15.675   1.791 -0.3466  0.1918 -0.1368
15735W        W31869   3.736  18.302   4.381 -0.1617 -0.0854 -0.2662
15736W        W31870  12.981   3.307  13.478 -0.1664 -0.0046  0.0199
15737W        W31871   9.045  13.293   3.547 -0.2715  0.0593  0.2820
15738W        W31872  12.734  13.664   9.971  0.0614  0.0931  0.4287
15739W        W31873   4.634  12.371  12.843 -0.3305 -0.0626  0.0177
15740W        W31874  12.801  15.642  13.355  0.1859  0.1171  0.2883
15741W        W31875   2.302   2.309   1.006 -0.1763 -0.2737 -0.2386
15742W        W31876  18.183   9.938  12.397  0.5308  0.1679 -0.3204
15743W        W31877   1.268   0.809  15.694 -0.0971  0.1866  0.1918
15744W        W31878   2.251  14.092  15.816 -0.1862  0.2089 -0.2672
15745W        W31879   3.641   3.294   3.780 -0.0361  0.0931 -0.1643
15746W        W31880  14.631  15.158   0.389 -0.3204 -0.2571 -0.1029
15747W        W31881  10.295  14.954  11.279 -0.0369 -0.5671 -0.1175
15748W        W31882  16.626   6.746   0.818  0.3098  0.1500 -0.2680
15749W        W31883   2.072  10.606   5.704  0.0316  0.0368  0.2450
15750W        W31884  10.917  14.883   2.756 -0.1933 -0.2887  0.0757
15751W        W31885   5.275  17.578   4.477 -0.0841  0.1445  0.0284
15752W        W31886  17.317   7.041  14.321 -0.0299 -0.2695 -0.0583
15753W        W31887   4.510  16.781  11.163  0.1642 -0.0809  0.1521
15754W        W31888  15.662   5.588   2.041 -0.0291 -0.2477 -0.1820
15755W        W31889   8.727  18.063   4.403 -0.3434 -0.1925  0.0248
15756W        W31890   4.105   1.881  14.173  0.2954 -0.0173 -0.1026
15757W        W31891   1.142   2.989  10.983 -0.1654 -0.1127 -0.4124
15758W        W31892   2.237  10.117  13.249 -0.0329 -0.1691  0.0449
15759W        W31893   3.453   9.981   9.583  0.0520 -0.0304  0.1884
15760W        W31894   1.322   1.892   4.729 -0.1549  0.3759  0.0305
15761W        W31895   5.505   4.839  11.901  0.1761 -0.1913 -0.1673
15762W        W31896   0.924   1.958   0.752 -0.0194 -0.1980 -0.1779
15763W        W31897  14.804   9.457   1.633  0.1702 -0.0136  0.3815
15764W        W31898  15.456   2.779   1.426 -0.2019  0.0175  0.2781
15765W        W31899  14.873   4.418  10.986 -0.0098  0.1536  0.0702
15766W        W31900   8.532   9.657  11.672  0.2234  0.1008  0.1308
15767W        W31901  16.940   2.067  14.390 -0.1504  0.1196  0.2516
15768W        W31902  16.495  16.225   0.287  0.1227  0.2398 -0.1020
15769W        W31903  10.788  18.302  11.407 -0.3502 -0.1735  0.4304
15770W        W31904   0.128   3.807  15.212  0.0315 -0.1117 -0.1906
15771W        W31905   4.300   8.094  15.132  0.0843  0.1612 -0.0257
15772W        W31906  18.008  14.757   2.394 -0.1664 -0.3802 -0.0525
15773W        W31907   4.859   2.493   4.424 -0.2101 -0.4032  0.1337
15774W        W31908  17.403  18.376   5.206  0.1069 -0.3479 -0.1199
15775W        W31909   4.406   2.720   0.047 -0.0845  0.1837  0.1316
15776W        W31910   0.819  10.601  15.807 -0.0643 -0.0641 -0.0197
15777W        W31911  13.234   6.860   2.219  0.0522  0.0290  0.1374
15778W        W31912  17.631   9.272  11.390 -0.1497 -0.0048 -0.3710
15779W        W31913  12.748  17.357  13.525 -0.4367  0.1134 -0.0631
15780W        W31914  15.240  17.103  14.331 -0.2794  0.3371  0.1133
15781W        W31915   0.401   5.196   3.473 -0.0224 -0.3072 -0.2616
15782W        W31916   1.719  16.763  12.832 -0.2372  0.0931  0.0102
15783W        W31917  15.073  14.254   2.240  0.0832  0.0551 -0.3568
15784W        W31918   3.276  14.824   4.723 -0.0290 -0.0304  0.0639
15785W        W31919  10.855  16.028   3.842  0.3345  0.0461  0.1628
15786W        W31920   3.035   4.301   0.420 -0.0134  0.4041 -0.3209
15787W        W31921   9.994   5.509   2.542  0.1615 -0.0861  0.1551
15788W        W31922   4.496  17.642   4.638  0.1795 -0.0377 -0.2570
15789W        W31923   5.206  12.241   4.725 -0.0322 -0.1535  0.1472
15790W        W31924  10.441   0.630  15.283 -0.1360 -0.2453 -0.0521
15791W        W31925   7.090  16.282   5.872 -0.1335  0.0728 -0.3144
15792W        W31926  18.152   4.677   5.213 -0.1490  0.0328  0.3020
15793W        W31927   4.125  16.861   3.359  0.0465 -0.0529 -0.1177
15794W        W31928   8.752  15.866   2.834 -0.1110 -0.3399  0.2069
15795W        W31929   8.762  15.347  15.153  0.2093  0.0864 -0.0311
15796W        W31930  15.719  14.365  11.508  0.0229 -0.3093  0.0986
15797W        W31931   6.773   9.188   3.435 -0.1734  0.2600 -0.2801
15798W        W31932  10.041  12.045   2.684 -0.3777 -0.1411  0.2252
15799W        W31933  12.237  14.945  14.560  0.1462 -0.0171 -0.0135
15800W        W31934  10.104  11.827   1.155 -0.2312  0.1161  0.0371
15801W        W31935   5.403   3.858   4.665  0.2296 -0.0512  0.1009
15802W        W31936   3.103   7.561  15.149 -0.1755 -0.0527 -0.2128
15803W        W31937   2.957  14.614   3.716 -0.1763 -0.1873 -0.1908
15804W        W31938   2.102   5.335   1.308 -0.0445  0.1394 -0.2557
15805W        W31939   0.813   4.965  11.598  0.1558  0.1527 -0.2556
15806W        W31940  10.676   8.531  13.166  0.1028 -0.1237  0.1212
15807W        W31941  16.823   2.231   4.540 -0.0761  0.0220  0.1366
15808W        W31942   1.677  11.263  14.277 -0.1216 -0.0482  0.1843
15809W        W31943  12.185   9.083   2.923 -0.0667 -0.0232 -0.1037
15810W        W31944   9.431   1.534  15.617  0.2022  0.0065  0.0131
15811W        W31945   8.430  17.565   3.446 -0.0149  0.0481  0.2389
15812W        W31946  15.043  12.325   4.502 -0.0081 -0.2521  0.0825
15813W        W31947  14.374  15.653  14.889 -0.0475  0.2462 -0.1972
15814W        W31948   5.595  15.418  13.281  0.2209 -0.1369  0.3590
15815W        W31949  17.607   6.669  14.446 -0.4273 -0.1204 -0.4285
15816W        W31950   5.753  18.349  13.798 -0.1782  0.2320  0.3047
15817W        W31951   9.207  10.992   6.166 -0.0398  0.0963 -0.2886
15818W        W31952   6.993   1.704   4.646  0.0589 -0.5348 -0.0325
15819W        W31953  12.886  17.169   4.297 -0.0152 -0.2683 -0.1396
15820W        W31954  12.919  14.900   4.308  0.3496 -0.2646  0.0275
15821W        W31955  13.875  13.413  13.479 -0.2956  0.3029  0.1794
15822W        W31956   0.485   9.781  12.571 -0.1715 -0.0086  0.0160
15823W        W31957   8.846  12.031  13.990 -0.1125 -0.2366  0.1260
15824W        W31958   5.458   1.429   1.719 -0.0106 -0.0624 -0.0170
15825W        W31959  11.767  10.294  13.206 -0.2347 -0.1440  0.2598
15826W        W31960  16.159   3.202  14.390  0.2854  0.0231  0.0465
15827W        W31961  17.687  10.278   0.295  0.1920  0.1083  0.0183
15828W        W31962   6.881   8.335   4.735 -0.1647  0.1114  0.2412
15829W        W31963   0.177  15.773   5.085 -0.2720 -0.0059 -0.0794
15830W        W31964   4.412   3.327  13.508  0.2143 -0.1996 -0.1268
15831W        W31965   5.240   0.898   5.748  0.1864  0.0322  0.2025
15832W        W31966   8.327   5.654   4.352 -0.1397  0.2380 -0.2667
15833W        W31967  16.322  17.461   1.897  0.0245 -0.2149 -0.2165
15834W        W31968  12.274   2.253  13.369  0.1282 -0.2171  0.1077
15835W        W31969   9.910  12.813   3.495  0.1456 -0.1335 -0.4835
15836W        W31970   7.533  10.997   3.577 -0.2059 -0.0167  0.1717
15837W        W31971   1.996   9.335  10.215 -0.1719  0.3379 -0.2734
15838W        W31972   6.559   9.452   5.255 -0.2730  0.1199 -0.0805
15839W        W31973   2.052   1.224   1.601  0.1557  0.0408  0.2796
15840W        W31974   2.071  15.185  11.172 -0.2040  0.2848  0.1365
15841W        W31975   4.656  16.219  14.555  0.0666 -0.1702 -0.3369
15842W        W31976  10.979  12.465  10.493  0.0691  0.0877 -0.1038
15843W        W31977  18.008  18.054   0.049 -0.2472 -0.2495 -0.4425
15844W        W31978  17.158  12.703  14.667  0.0509  0.0636  0.0513
15845W        W31979   1.899   8.150   1.354 -0.1276 -0.1825  0.1680
15846W        W31980  11.809   6.779  15.189 -0.2610 -0.0939  0.2212
15847W        W31981   5.801   6.356   3.155 -0.1166 -0.3439 -0.5063
15848W        W31982  12.198   7.014   3.821 -0.0286 -0.2399  0.2177
15849W        W31983   1.299   0.776   2.489 -0.1552 -0.1122 -0.0176
15850W        W31984  15.059   8.261   0.898 -0.0505 -0.1236 -0.1562
15851W        W31985  13.508  13.377   4.067  0.2167  0.0294 -0.1805
15852W        W31986   1.001   9.768  14.529  0.1133  0.2034  0.1842
15853W        W31987  12.274  16.643  11.736 -0.1414 -0.1808 -0.0296
15854W        W31988   4.650  11.079  15.008 -0.1212  0.4123 -0.2785
15855W        W31989  11.449  14.973  13.934  0.0780 -0.1615 -0.0700
15856W        W31990   0.567  12.477  14.129  0.2538 -0.0640  0.1122
15857W        W31991  14.404   4.766  15.281  0.1999 -0.1696  0.1269
15858W        W31992  12.271  14.930   2.611  0.1499 -0.0648 -0.0817
15859W        W31993  11.989   7.881  15.846 -0.0091 -0.1291  0.2763
15860W        W31994   0.722  11.184  11.250  0.0760 -0.0102 -0.0194
15861W        W31995   5.807   2.893  13.238 -0.1533 -0.1895  0.1035
15862W        W31996  11.590   6.468   3.235 -0.0402 -0.0952 -0.1452
15863W        W31997   6.806  10.807   1.445 -0.1620 -0.1865 -0.3733
15864W        W31998  16.433   0.071  12.433  0.3830 -0.2156 -0.1471
15865W        W31999   9.716  12.640   4.961  0.0102 -0.2261 -0.2536
15866W        W32000   8.090   5.251   2.304 -0.4517 -0.1811  0.1085
15867W        W32001   8.883   4.403  12.434 -0.0883  0.0701  0.1681
15868W        W32002   4.391  10.061   0.185  0.0826 -0.0759  0.1636
15869W        W32003  17.351   7.634  13.538 -0.0177 -0.0847 -0.2740
15870W        W32004   1.211  11.525   3.470 -0.0293  0.1916  0.2709
15871W        W32005   8.826  12.209   3.603  0.3129 -0.0239  0.3826
15872W        W32006   9.030   5.167  11.595 -0.1907  0.1281  0.1611
15873W        W32007   9.123   6.897  14.363  0.0734 -0.1993 -0.1344
15874W        W32008  17.035   1.804  11.179 -0.0462 -0.0782 -0.0041
15875W        W32009  10.432   2.436  15.337  0.0607 -0.0394  0.2096
15876W        W32010  13.065   9.510   4.951 -0.0788  0.4709  0.1118
15877W        W32011  18.154  11.174  12.958  0.1659  0.0266  0.0067
15878W        W32012  15.381  13.543   4.305  0.0029  0.3287  0.2179
15879W        W32013  14.838  10.460  13.378 -0.1674 -0.0719 -0.0058
15880W        W32014   9.894   2.206   4.251  0.2933 -0.1811 -0.1323
15881W        W32015   9.165  12.311  11.386  0.0058  0.2368 -0.0314
15882W        W32016   8.514  15.181   6.419 -0.1748 -0.0038 -0.3783
15883W        W32017  15.038  17.925  15.482 -0.2577 -0.1957  0.1385
15884W        W32018  18.206  12.547   0.234  0.0768 -0.2466  0.1339
15885W        W32019   6.608   1.454   0.189 -0.1142 -0.1876 -0.1238
15886W        W32020   5.230   0.351  10.330 -0.1002  0.1171  0.1296
15887W        W32021  14.997  17.167   0.065  0.0336  0.0456 -0.0428
15888W        W32022   7.216  12.758   4.830 -0.1197 -0.1494 -0.0884
15889W        W32023  16.737   1.498  10.889 -0.3000 -0.2976  0.3367
15890W        W32024   7.985   4.514   3.916 -0.0028 -0.3065 -0.1490
15891W        W32025  12.874   8.246  12.559  0.4153 -0.2854  0.0061
15892W        W32026  12.627  17.590  14.303 -0.0152  0.4113  0.0861
15893W        W32027   4.090  10.196  12.123 -0.0544 -0.0565  0.4973
15894W        W32028   1.831   8.911   3.357 -0.0205 -0.0210 -0.1440
15895W        W32029   0.057   4.408   3.920 -0.0445 -0.1639 -0.1469
15896W        W32030   6.787  15.921   3.367 -0.0911 -0.1495 -0.1807
15897W        W32031   5.458   8.299   4.037  0.1163  0.0635 -0.4253
15898W        W32032   0.993  16.524  10.652 -0.3662  0.1468 -0.1663
15899W        W32033   1.327  13.804   0.733  0.1161 -0.1109  0.2476
15900W        W32034  10.317   0.413   2.471  0.1716  0.1866  0.0508
15901W        W32035   2.189  16.857   0.071 -0.3157  0.1972  0.3955
15902W        W32036  14.652   8.808   0.840 -0.1293 -0.2911  0.2433
15903W        W32037   8.274   4.861   4.238 -0.1089 -0.0760  0.3185
15904W        W32038  18.441  12.371  15.075  0.2849 -0.1957  0.1244
15905W        W32039  13.781  12.762   0.515  0.1866 -0.5497  0.2923
15906W        W32040   3.054  12.492  13.749 -0.0778 -0.1333 -0.1129
15907W        W32041  15.730  11.737   2.640 -0.3207 -0.1589  0.3339
15908W        W32042   8.647   4.067  11.277  0.1177  0.0308  0.0260
15909W        W32043  16.039  15.093  13.988 -0.1176 -0.1399  0.4362
15910W        W32044  10.010   1.483   1.711 -0.0175  0.2675  0.1843
15911W        W32045  17.727   9.237   0.715 -0.0423 -0.0001 -0.2252
15912W        W32046   4.309  18.111  11.419  0.0209 -0.1689  0.1296
15913W        W32047  10.691   6.897  12.981 -0.2364  0.0722 -0.0295
15914W        W32048   8.057  13.209  14.403  0.4022 -0.1725  0.2683
15915W        W32049   5.976  15.006  11.322  0.1334 -0.2317 -0.1690
15916W        W32050   3.008   1.801  12.555  0.0872  0.1671  0.2428
15917W        W32051   6.676  12.155   2.709  0.1726 -0.3516  0.0305
15918W        W32052  18.117  11.124  11.971  0.2463  0.1347 -0.1648
15919W        W32053   7.054   9.269  11.436 -0.1799 -0.2167 -0.0645
15920W        W32054  12.551   5.836  13.217 -0.0036  0.2745 -0.0853
15921W        W32055   1.754  16.689  12.354  0.0334 -0.0676 -0.4389
15922W        W32056  10.292  16.716   3.349  0.0143 -0.0898 -0.1293
15923W        W32057   2.044   3.487   0.433  0.0138  0.2758  0.1394
15924W        W32058  13.969   6.334  14.033  0.1297 -0.0955  0.1225
15925W        W32059   8.213   1.843  11.566  0.0420  0.1116  0.1636
15926W        W32060  14.252   1.984   1.273 -0.1497  0.0795  0.0705
15927W        W32061  17.651   1.689   1.266 -0.1123  0.0831  0.2548
15928W        W32062  11.875   3.018  14.066 -0.0744  0.0648 -0.1421
15929W        W32063   1.109   4.143  13.611  0.2587 -0.0877  0.0294
15930W        W32064   4.768  16.628  14.766  0.1359  0.1125 -0.3152
15931W        W32065  14.102  14.779  11.196  0.2131  0.0894  0.1243
15932W        W32066   5.959   4.956  11.788 -0.1551 -0.0525 -0.0258
15933W        W32067   7.948   0.975   5.069 -0.0899  0.1123  0.0065
15934W        W32068  15.048  16.868  12.748 -0.1795  0.1301  0.0691
15935W        W32069  10.333   9.125  14.619 -0.0367 -0.1801  0.1416
15936W        W32070  15.409   1.075  15.223  0.0890  0.1182 -0.0391
15937W        W32071   4.094   8.361   3.174  0.2964 -0.2228 -0.0595
15938W        W32072   0.043   5.884   5.531  0.3985  0.0168 -0.0394
15939W        W32073   0.651  11.469  15.764  0.1451  0.1390  0.0282
15940W        W32074   6.831   2.098   4.324 -0.0283 -0.0871  0.1050
15941W        W32075   5.518   8.864   3.917 -0.0040  0.0664 -0.0019
15942W        W32076   9.849  13.424   3.556 -0.2781 -0.2862  0.2277
15943W        W32077  10.279   3.293  11.561  0.1275  0.1314 -0.0630
15944W        W32078  16.756   5.857  15.344 -0.0345  0.1359 -0.0472
15945W        W32079   1.296  14.427   9.700 -0.2030 -0.2355 -0.1365
15946W        W32080  11.272   0.275  14.329  0.2213 -0.0010  0.0725
15947W        W32081   2.548  16.822   3.416  0.2691  0.2453 -0.1057
15948W        W32082  10.684  12.802   3.189  0.0328 -0.0777  0.1158
15949W        W32083   1.970  18.237   5.146  0.1251  0.1017 -0.1741
15950W        W32084  15.077   2.063  15.729 -0.0499 -0.0357 -0.0555
15951W        W32085   2.203   8.339  11.421 -0.0103  0.1501  0.0707
15952W        W32086   3.202   3.646   3.035 -0.0823  0.2324 -0.1263
15953W        W32087  12.804   0.453   4.282  0.0695  0.0128 -0.1004
15954W        W32088   5.991  11.797  12.785  0.1396 -0.2363  0.1639
15955W        W32089  13.211   1.834  10.867  0.0698 -0.2530  0.3215
15956W        W32090   9.409  11.002   3.160 -0.2907  0.0659  0.0455
15957W        W32091  17.408   3.232  14.764 -0.0131  0.1445  0.1233
15958W        W32092   3.356  16.991  15.665 -0.1304 -0.3325 -0.0909
15959W        W32093  10.387  17.685  14.288  0.1072  0.0313 -0.1865
15960W        W32094   0.130   2.941  14.909 -0.1385  0.2369 -0.1890
15961W        W32095   6.002   1.348   1.923  0.3356 -0.1095 -0.1526
15962W        W32096   2.369  17.164   0.855 -0.1203 -0.1997  0.0226
15963W        W32097   3.641   2.934  12.074  0.0773  0.2615  0.0424
15964W        W32098  15.666   8.110   3.197 -0.1787  0.1385 -0.1077
15965W        W32099  14.691   8.821   0.143 -0.2408 -0.0779 -0.0068
15966W        W32100   8.769  16.944   2.069  0.0966  0.0667 -0.1015
15967W        W32101  14.549   0.213  11.597 -0.1742  0.0734 -0.0542
15968W        W32102   2.054   0.694  13.346 -0.0032  0.0374  0.1207
15969W        W32103  14.463   7.852  12.056  0.2568  0.1007 -0.0277
15970W        W32104   9.108  15.005  15.076 -0.1946  0.0492 -0.0173
15971W        W32105   3.357   6.652   3.611  0.3012  0.0818 -0.0706
15972W        W32106   2.236  16.240   2.105 -0.0382  0.1548  0.0378
15973W        W32107   8.205  17.530  11.619  0.3201  0.0618  0.4187
15974W        W32108   4.504   3.537  11.839  0.2543  0.0704 -0.1293
15975W        W32109   2.706  17.165   5.806  0.2293  0.0183 -0.1073
15976W        W32110   2.365   8.299  14.611  0.2697 -0.3416  0.1095
15977W        W32111   5.108   0.614  12.514 -0.1770  0.0458  0.0801
15978W        W32112  10.060  10.308   2.892 -0.0449 -0.0607 -0.0677
15979W        W32113  14.622  12.830  11.529 -0.1769  0.1973 -0.1372
15980W        W32114  12.249  16.458   4.628  0.3305 -0.0636 -0.2364
15981W        W32115  15.909  11.902  11.153 -0.0248  0.1250 -0.0964
15982W        W32116   9.031  17.317  11.641  0.3304  0.1354  0.2090
15983W        W32117  12.192  14.823  10.863 -0.0327  0.2770  0.0054
15984W        W32118  12.662   7.497   1.195 -0.3263 -0.1332 -0.2005
15985W        W32119  17.996  16.713   2.517 -0.1570 -0.1649  0.0226
15986W        W32120   3.075   3.295   3.451 -0.1957  0.1418  0.1394
15987W        W32121  14.284  14.180   5.632  0.1175 -0.2744 -0.0397
15988W        W32122   9.976   7.292  14.140  0.1367  0.1680 -0.0840
15989W        W32123  10.072   3.613   2.430 -0.1921 -0.0676 -0.2003
15990W        W32124  17.575  16.960  14.600 -0.1372  0.2696  0.2465
15991W        W32125  15.817  17.632   1.537 -0.1405  0.3003 -0.3684
15992W        W32126   0.544  15.155  12.378 -0.1033 -0.0245 -0.3947
15993W        W32127   3.273   5.946  12.721  0.0154 -0.0425  0.0412
15994W        W32128   1.227   8.990  14.291 -0.0755 -0.2770  0.1442
15995W        W32129   4.393   7.079   5.599 -0.3164 -0.1763  0.3373
15996W        W32130   8.614  12.484   3.231 -0.0702  0.2346  0.2566
15997W        W32131   2.086  10.695  11.312  0.0567  0.4097  0.1302
15998W        W32132   8.721  17.003  15.796 -0.2942 -0.0772  0.0151
15999W        W32133   9.573   2.754   2.438 -0.0517 -0.2240 -0.0155
16000W        W32134  12.576   6.860   4.873  0.1506  0.2498 -0.0269
16001W        W32135   8.782   9.445   3.109 -0.0223  0.1118 -0.2126
16002W        W32136   8.350  14.802  15.644  0.1459  0.1369 -0.2147
16003W        W32137   9.797   7.005   1.398  0.1734 -0.0272  0.1269
16004W        W32138   5.931  15.323  14.344 -0.1161 -0.1654 -0.1251
16005W        W32139   7.391   8.115  14.512  0.1828 -0.2911  0.0465
16006W        W32140   2.819  17.368  12.423 -0.0278 -0.1300  0.2153
16007W        W32141   6.563  16.822  14.523  0.2170  0.2626 -0.1402
16008W        W32142  17.117  16.374  14.128  0.1180  0.1140  0.0601
16009W        W32143  15.202  13.619   2.904  0.3745 -0.3397  0.1721
16010W        W32144   4.436   7.073   4.252 -0.1109  0.0375  0.1078
16011W        W32145   1.219   0.126   0.044  0.3416  0.1140  0.0227
16012W        W32146   6.453   8.364   4.455 -0.0497 -0.1147 -0.2584
16013W        W32147  13.965   3.741  15.118  0.2348 -0.0286 -0.2082
16014W        W32148  11.014  12.194  11.594  0.0980  0.1180  0.3848
16015W        W32149  17.236  11.051   0.408  0.0140  0.3633 -0.3545
16016W        W32150   5.721   6.538   0.638  0.0620  0.2634 -0.1723
16017W        W32151  15.098   1.094  10.816 -0.0298  0.1827 -0.0317
16018W        W32152   1.781   0.726   1.361 -0.2616  0.0009 -0.1082
16019W        W32153   4.542  10.077  14.862  0.1519  0.1546 -0.0957
16020W        W32154  11.836   6.990   3.008 -0.1318  0.2140  0.2039
16021W        W32155  14.023   3.847  11.868 -0.0516  0.0597  0.1747
16022W        W32156   8.552  11.096   2.036 -0.1218 -0.4504 -0.3201
16023W        W32157   6.283  17.386  13.234 -0.0974  0.1075  0.2604
16024W        W32158   5.980   9.841  14.904  0.2117 -0.4203 -0.2388
16025W        W32159  17.788   4.677  15.793  0.0091 -0.1047 -0.2920
16026W        W32160   1.391   7.727  11.560 -0.3521  0.0491 -0.0223
16027W        W32161  17.052   1.169   3.412  0.0033 -0.2206 -0.0007
16028W        W32162  11.573  15.591  13.898  0.0435 -0.0707  0.1064
16029W        W32163  15.693  18.064  14.475  0.0017 -0.0589  0.0345
16030W        W32164  14.301   0.696   5.994  0.0259  0.0959 -0.0957
16031W        W32165   0.299   4.661  13.609  0.3637 -0.4443  0.3838
16032W        W32166   2.152  17.748   0.407 -0.1592  0.0183 -0.0670
16033W        W32167  15.299   7.882   3.431  0.2388 -0.2085  0.0414
16034W        W32168   0.056  16.985  14.890  0.1972  0.0653  0.0811
16035W        W32169  15.258  10.512  11.319  0.1068 -0.0610  0.3236
16036W        W32170   0.344  10.723   4.219 -0.0325  0.1070 -0.1292
16037W        W32171   0.508  16.842   1.482 -0.1035  0.0275  0.1407
16038W        W32172  17.204   4.661   3.747 -0.4953 -0.3512  0.2279
16039W        W32173  13.952  12.185  14.156  0.0796 -0.0958 -0.0418
16040W        W32174   4.449   1.400  13.517  0.1025 -0.1810  0.0068
16041W        W32175  11.406   1.472   3.806 -0.2833  0.3074  0.0199
16042W        W32176   1.223   8.759   2.975 -0.2666 -0.0150 -0.4016
16043W        W32177   4.806   5.345  11.335 -0.1023  0.0512  0.1213
16044W        W32178  16.639  13.671   0.309  0.0448  0.2801  0.1433
16045W        W32179   4.791   2.310  11.321 -0.1156 -0.0560 -0.1018
16046W        W32180  11.944   4.663  13.868  0.2525 -0.2618  0.3085
16047W        W32181  11.810   4.756   2.390 -0.0982 -0.0279  0.2276
16048W        W32182   8.327   8.558   4.264 -0.2891  0.0777 -0.1189
16049W        W32183   9.207   8.715  12.848  0.0437  0.1199  0.1975
16050W        W32184   6.713  10.342  12.249  0.1713  0.1164 -0.3207
16051W        W32185  15.090  16.843   4.007  0.0155  0.2479 -0.2108
16052W        W32186   4.499  13.564  15.752  0.1805 -0.0683  0.0330
16053W        W32187  13.052  17.871   2.241  0.0644  0.2836 -0.0381
16054W        W32188   3.704  17.265  11.146  0.1723  0.0877 -0.0600
16055W        W32189   9.154  11.461  14.727 -0.0426  0.2792  0.2044
16056W        W32190  12.578   3.997  12.511  0.0084  0.1686 -0.0296
16057W        W32191  16.188   8.822  11.956 -0.1955 -0.1425  0.1738
16058W        W32192  16.153   8.235  12.980 -0.1940  0.1060  0.0622
16059W        W32193  15.107   2.003   4.223 -0.2721 -0.0566 -0.1451
16060W        W32194   3.725   4.543   9.908  0.4102  0.2966 -0.1566
16061W        W32195   1.449   1.157  11.183 -0.1595  0.1977 -0.1433
16062W        W32196  18.291  12.459   2.719 -0.0673  0.1301 -0.1328
16063W        W32197  12.954  10.491  15.176  0.2660 -0.2544  0.0298
16064W        W32198   3.565   8.557   4.855 -0.2562  0.1445  0.0370
16065W        W32199  18.454   5.772   1.479 -0.0071  0.0412  0.3303
16066W        W32200   4.739   5.796   2.043 -0.0882  0.2285  0.3694
16067W        W32201  10.750  14.456   1.014 -0.1525  0.1888 -0.0605
16068W        W32202   4.057   8.886  12.933 -0.0285  0.3158  0.0140
16069W        W32203   1.522   1.821   5.629  0.2000 -0.2268  0.1126
16070W        W32204  10.334  12.435  15.697 -0.4430  0.0021  0.0870
16071W        W32205  14.004   3.100   5.359 -0.0746 -0.3438  0.3474
16072W        W32206  14.424  14.742  12.025 -0.1190 -0.1721  0.1913
16073W        W32207   0.918   5.160   3.041  0.0891  0.1058  0.2255
16074W        W32208  17.835  10.547  11.225  0.0264 -0.1168 -0.0452
16075W        W32209  13.242  10.002   4.654 -0.0530 -0.3469  0.2585
16076W        W32210  11.149   5.585   0.348 -0.0332 -0.2468  0.1156
16077W        W32211   6.433  18.112  15.637 -0.1955 -0.2214  0.0002
16078W        W32212   1.584  16.972   2.292  0.2287 -0.1748 -0.2041
16079W        W32213   4.331   3.419   5.318  0.1878  0.1237  0.0094
16080W        W32214   9.024   1.604  14.206 -0.1011  0.1856 -0.2832
16081W        W32215   2.825   3.107  12.386  0.1648 -0.0833 -0.1956
16082W        W32216   5.115  10.111   5.396  0.0293  0.1444 -0.0169
16083W        W32217  18.125   4.649   3.627  0.2107 -0.1103 -0.1717
16084W        W32218   4.171  16.389  12.999 -0.1731 -0.1004 -0.0798
16085W        W32219  11.064   0.967  12.461  0.1408 -0.0685 -0.0402
16086W        W32220  14.527   6.728  13.268 -0.5085  0.0371  0.2087
16087W        W32221  10.985   8.529  12.090 -0.1691  0.0459  0.0640
16088W        W32222   2.778   0.635   4.404  0.0359 -0.0073 -0.0127
16089W        W32223  12.582   9.939   2.745 -0.1855 -0.1587  0.1877
16090W        W32224  13.006   2.219   1.873  0.1512  0.1598 -0.0429
16091W        W32225   0.318   3.938   4.232 -0.1623  0.0474 -0.2788
16092W        W32226  14.383   8.237   5.240 -0.0318 -0.0035  0.0459
16093W        W32227   3.168   7.307   1.389 -0.1893 -0.0985 -0.0680
16094W        W32228   5.416   7.185   0.269 -0.2969  0.4099  0.0113
16095W        W32229   5.604   2.859   0.590  0.0580 -0.0942  0.1191
16096W        W32230   3.191   5.953   2.825 -0.1339 -0.0269 -0.1315
16097W        W32231  14.607  13.671   1.493 -0.1678 -0.1323 -0.0402
16098W        W32232  16.988  11.541   1.549  0.4098 -0.3212 -0.1202
16099W        W32233  12.096   6.020   4.988 -0.0390  0.2699  0.1434
16100W        W32234   3.754   2.787  14.219  0.0650  0.3084 -0.2141
16101W        W32235  15.630   6.564  14.638 -0.0659 -0.1409 -0.0479
16102W        W32236   2.494   7.135   5.226  0.2864  0.1591  0.1036
16103W        W32237   3.157   9.346   4.194  0.0269  0.0562 -0.1695
16104W        W32238  10.470  11.945   3.760  0.3298 -0.1189  0.1153
16105W        W32239  13.080   6.411  14.951  0.2566 -0.2650  0.1766
16106W        W32240  12.682   8.038  13.773  0.2980  0.1605  0.1410
16107W        W32241  16.641   1.836  11.991  0.0914 -0.0717  0.1984
16108W        W32242  14.841  10.697   2.875  0.0638 -0.1236 -0.0894
16109W        W32243  13.685  10.581   4.774  0.2963  0.1535 -0.0926
16110W        W32244  17.986   7.927   4.466  0.3077 -0.0395  0.2513
16111W        W32245   9.825   1.989   3.290  0.0030 -0.2246 -0.1776
16112W        W32246  13.291  10.725   5.362 -0.1217 -0.2138 -0.1248
16113W        W32247   8.560  13.196  14.867  0.1507  0.1546  0.0294
16114W        W32248   9.944   3.711  10.829 -0.2520  0.0453 -0.0019
16115W        W32249   9.260   8.773   0.993  0.0625 -0.0847  0.0452
16116W        W32250  14.910   3.848  12.473  0.1810 -0.2054 -0.1987
16117W        W32251  17.924  16.682  15.680 -0.0089 -0.0660 -0.2861
16118W        W32252  13.201  10.953   3.813 -0.0176  0.2699 -0.1430
16119W        W32253   0.096   6.993  14.513  0.0343  0.0256 -0.0820
16120W        W32254  14.336   9.630  12.952 -0.0295  0.0300  0.4151
16121W        W32255  15.630  17.913  14.960  0.0658 -0.3301  0.0509
16122W        W32256   3.010   7.842   4.719 -0.1803 -0.1502  0.0491
16123W        W32257   7.182   4.720  15.833 -0.1494 -0.2312 -0.1535
16124W        W32258   9.356  14.073   5.877  0.2395 -0.2451  0.0578
16125W        W32259  16.645   9.383  15.578 -0.0229 -0.1708  0.0081
16126W        W32260   7.671  13.151   1.463  0.3625 -0.0448  0.1617
16127W        W32261  10.104   3.039  15.629  0.2438 -0.1949 -0.1548
16128W        W32262  15.371  13.520  13.753 -0.0386 -0.3548  0.0806
16129W        W32263   7.812  16.975   6.438 -0.1932 -0.1660 -0.3795
16130W        W32264   9.925   4.787  11.513  0.0378 -0.2039  0.2202
16131W        W32265   3.674  12.696   0.486  0.0573  0.1723  0.1492
16132W        W32266   0.824  14.705  15.728 -0.1792  0.1134  0.3253
16133W        W32267   6.311   7.101   3.857  0.0419 -0.0974  0.0635
16134W        W32268   9.781   1.905  11.090  0.1222  0.0602 -0.1847
16135W        W32269  13.522   4.497  11.436  0.0214  0.1450 -0.0577
16136W        W32270   5.922  13.027   1.382 -0.0029  0.2597 -0.0808
16137W        W32271  13.115   4.565  15.698  0.2936  0.3855  0.3624
16138W        W32272  16.641   3.516   1.964  0.1567 -0.3057 -0.1387
16139W        W32273  10.097   5.951   2.873  0.2571  0.1754  0.0235
16140W        W32274   5.994  11.160   1.306  0.0229 -0.3485 -0.0182
16141W        W32275  15.511  13.455  10.151  0.0168  0.0538  0.1662
16142W        W32276  11.452   2.869  14.968  0.3275 -0.0697 -0.3159
16143W        W32277  14.762   7.899   3.659  0.1850 -0.1674 -0.0007
16144W        W32278  14.914   7.904  13.022 -0.2090 -0.1180  0.0814
16145W        W32279   2.239   1.012  13.014 -0.2273  0.1604 -0.2785
16146W        W32280  16.739   8.391   0.239 -0.1111  0.1421  0.1231
16147W        W32281  17.261   5.560  12.085 -0.0087  0.1358  0.3198
16148W        W32282   3.085   7.874  10.719  0.1143  0.0340 -0.0644
16149W        W32283   7.598   5.371   4.466 -0.1759 -0.1321 -0.1171
16150W        W32284  10.810   7.508   2.690 -0.3320 -0.0634  0.0865
16151W        W32285   1.370   6.740   5.526 -0.1468 -0.0864  0.1498
16152W        W32286   9.994   8.524  12.498  0.0759  0.3335 -0.0945
16153W        W32287   2.831  11.200   3.182  0.1849 -0.1344  0.0752
16154W        W32288   5.315  14.395   0.546 -0.2264 -0.0313 -0.1383
16155W        W32289   7.896   9.248  15.697 -0.0759 -0.0565  0.0433
16156W        W32290  13.724  18.182   3.345  0.0443 -0.1292  0.1406
16157W        W32291   5.457   9.159  12.427  0.0467  0.0580 -0.1701
16158W        W32292  14.788  12.962   5.914  0.1634 -0.1530 -0.0438
16159W        W32293  10.788   8.394  10.970  0.2409  0.0062  0.0540
16160W        W32294  16.485  14.893   1.088 -0.0574  0.0137 -0.2235
16161W        W32295   0.127  17.321  15.753  0.1951 -0.4220  0.1628
16162W        W32296  11.473   5.030   1.977 -0.2541 -0.0262  0.1347
16163W        W32297   3.425   7.463   3.374 -0.0806  0.0145 -0.0661
16164W        W32298  10.662   2.316   1.772 -0.0259 -0.1378 -0.0439
16165W        W32299   6.926   4.425   3.320  0.3751 -0.0942  0.3505
16166W        W32300   8.964   5.340   2.723 -0.1427 -0.2148 -0.0594
16167W        W32301  10.116  15.837  13.357  0.0752 -0.1017  0.0064
16168W        W32302  18.118   4.859   5.631 -0.3186 -0.1440 -0.1803
16169W        W32303  17.212  17.760   2.467 -0.1089  0.0918  0.2858
16170W        W32304   2.850  17.053  15.788 -0.1512 -0.3431  0.1407
16171W        W32305   9.647  16.007  13.535 -0.1391 -0.0293 -0.0634
16172W        W32306  15.613  15.791  11.283 -0.1365 -0.1279  0.0033
16173W        W32307   7.934  15.391   1.752  0.2020 -0.2688  0.1291
16174W        W32308   0.023  17.971   2.251 -0.1862 -0.1774  0.2977
16175W        W32309   8.522   3.102  14.899  0.1105  0.1113  0.0407
16176W        W32310  15.607   1.307   4.102  0.2115 -0.2819 -0.1784
16177W        W32311   4.738  11.923   0.242  0.1718 -0.0156  0.2375
16178W        W32312   7.331   7.972   4.194  0.0785 -0.0370 -0.3189
16179W        W32313  16.355   7.002  13.977  0.0385  0.2164  0.3800
16180W        W32314  13.482  11.373  13.875 -0.0745  0.1318 -0.0655
16181W        W32315   7.232   3.274   0.591  0.3765  0.1982  0.0563
16182W        W32316  14.933  10.863   4.426  0.1476  0.1379 -0.1204
16183W        W32317   3.338  17.129   0.331  0.1316 -0.0431  0.2290
16184W        W32318  11.020   7.078   0.169  0.0795  0.3737 -0.3784
16185W        W32319  18.116  17.174  15.581  0.0636  0.2547 -0.1892
16186W        W32320   5.540  10.379   0.951 -0.1725 -0.1528  0.1718
16187W        W32321  15.611  11.584  15.764  0.2986  0.2123  0.0826
16188W        W32322   0.053  17.500   3.407 -0.1041 -0.0795 -0.0667
16189W        W32323  11.545   1.871   3.131  0.1193 -0.1291  0.0934
16190W        W32324   7.621  11.439   0.686  0.1422  0.0375 -0.0190
16191W        W32325   8.039  13.754  14.897 -0.1140 -0.1539 -0.0658
16192W        W32326  17.137   6.838   4.690 -0.1064 -0.1212  0.0987
16193W        W32327  14.527   5.672  11.234  0.2862  0.1105 -0.2097
16194W        W32328   7.005   4.898  11.260  0.3838 -0.0947  0.1792
16195W        W32329   9.689   6.698   0.460 -0.2079  0.0663 -0.2604
16196W        W32330   0.625   0.654   0.736  0.0585 -0.1818  0.0594
16197W        W32331  14.320   7.410  15.768  0.1726 -0.0142  0.1750
16198W        W32332  13.323  17.504  14.763  0.1844  0.0721 -0.2382
16199W        W32333   8.923   2.058   3.548  0.0536  0.3118  0.0994
16200W        W32334   4.729   1.369   3.078 -0.1266  0.0032 -0.0991
16201W        W32335  15.334   3.878   4.948 -0.1535  0.3729  0.2821
16202W        W32336  14.616  16.424  15.459 -0.1780  0.1299 -0.2766
16203W        W32337  16.207  14.357   2.168 -0.0539 -0.2592 -0.2901
16204W        W32338   5.167  17.330  15.010  0.1139  0.0780 -0.1556
16205W        W32339  17.495   6.408  11.763 -0.0305 -0.1525  0.1106
16206W        W32340   7.537  15.480  12.535 -0.1129 -0.4377  0.1234
16207W        W32341   1.251   7.253  11.832 -0.0577  0.0671 -0.3360
16208W        W32342  11.121   1.917  15.654  0.4004 -0.2454  0.0331
16209W        W32343  17.745  16.925   0.564  0.1521  0.1880 -0.3562
16210W        W32344  18.071  15.610  11.813 -0.0608 -0.1715  0.2510
16211W        W32345   7.429  11.927   3.391 -0.2688 -0.0231  0.1657
16212W        W32346   1.785  13.922  14.162  0.0734  0.0634 -0.1464
16213W        W32347   2.257   1.120  10.070  0.0354  0.0830  0.0481
16214W        W32348   8.392  14.785  12.019  0.0330 -0.1633  0.0897
16215W        W32349   3.382  13.607  15.057 -0.0732  0.2294  0.4166
16216W        W32350  15.781  12.163   2.317  0.2472  0.0992  0.2115
16217W        W32351   3.312   2.647   5.116 -0.2580  0.0153  0.2156
16218W        W32352  15.152   3.654   9.934 -0.2664 -0.0096 -0.1624
16219W        W32353   3.510   1.464   3.338  0.0761 -0.0503  0.0343
16220W        W32354   5.634   9.148   1.339  0.1426  0.0432 -0.0816
16221W        W32355  10.607   8.897  12.049  0.4047  0.0729  0.0040
16222W        W32356  14.779  13.357  11.070  0.0272 -0.2447 -0.1333
16223W        W32357   6.998  10.776   0.137  0.0846  0.0310  0.1167
16224W        W32358  10.927   3.540   0.876 -0.4258 -0.0900 -0.1546
16225W        W32359   5.388  12.170  14.531  0.1189 -0.3334  0.0656
16226W        W32360  10.108  10.981  13.949 -0.1310 -0.1314  0.1209
16227W        W32361  18.103   3.397  11.075  0.1164  0.0930  0.0559
16228W        W32362   9.584   9.899   4.805  0.1066 -0.2097  0.1986
16229W        W32363   6.406  13.038  12.487  0.1007 -0.0654 -0.2300
16230W        W32364   6.489  15.650  13.013  0.1127  0.1505 -0.0861
16231W        W32365   6.568   5.456   0.545 -0.0795 -0.1935 -0.0344
16232W        W32366   7.831  18.450  12.520  0.0531  0.0132 -0.2441
16233W        W32367   1.422   4.206  15.155  0.3746  0.0115  0.2091
16234W        W32368   1.597  12.979  14.727  0.1697  0.1646  0.2033
16235W        W32369  14.005  15.919   4.047 -0.0620  0.2941 -0.4160
16236W        W32370   0.037  11.297  12.173  0.0616  0.0303 -0.0728
16237W        W32371   4.325  12.237   5.232  0.1378  0.2980 -0.2488
16238W        W32372   9.730   3.551  12.765  0.0493 -0.4037  0.3290
16239W        W32373   6.428  18.372   4.038 -0.0509  0.1016 -0.1502
16240W        W32374   1.124  10.232  14.745  0.0317  0.0546 -0.0376
16241W        W32375  13.189   4.468  11.064  0.3307  0.1271 -0.1759
16242W        W32376  12.242   9.309  14.818  0.0847 -0.1150  0.0943
16243W        W32377  13.100  18.292   3.939 -0.3969 -0.0753  0.0861
16244W        W32378   9.613   6.922  12.755  0.1458  0.0768 -0.0258
16245W        W32379  18.121   0.964   4.301  0.2306 -0.2238  0.3253
16246W        W32380   8.136   0.212  10.776  0.0313 -0.2761  0.0114
16247W        W32381  10.894   7.022  10.231 -0.1932  0.0140 -0.0690
16248W        W32382   3.008  15.670   0.080 -0.0926  0.1011 -0.2544
16249W        W32383  13.993  12.137   0.622 -0.1852 -0.0461  0.0404
16250W        W32384   6.212  14.037  13.836 -0.1184 -0.0950 -0.0624
16251W        W32385   1.706  15.564   3.584  0.1237 -0.2756  0.3276
16252W        W32386  11.569  10.511   6.318  0.1089  0.1766  0.0256
16253W        W32387   6.911  17.582  14.972  0.1340 -0.5183 -0.1067
16254W        W32388  14.228  14.300  13.562  0.1674 -0.3779 -0.3393
16255W        W32389   7.334  15.646  12.084 -0.3894  0.0997  0.2219
16256W        W32390   4.119   3.931  12.127 -0.0660 -0.1016  0.0264
16257W        W32391  17.244  16.974   0.509 -0.0844 -0.1795  0.0638
16258W        W32392   7.595   3.093  11.273 -0.0230  0.0913  0.3079
16259W        W32393  17.500  17.649  14.730  0.0243  0.2137 -0.0219
16260W        W32394  17.189  18.332  11.255  0.1438  0.0834 -0.1281
16261W        W32395  17.276  11.190  12.515  0.1447  0.0160 -0.1709
16262W        W32396  13.086   1.904  11.748 -0.0680  0.1226  0.1986
16263W        W32397   1.111   9.576   2.467 -0.1021 -0.0536 -0.0103
16264W        W32398  16.081   9.971   2.150 -0.3788  0.3906  0.0104
16265W        W32399  14.539   4.401  12.995 -0.2900  0.1538  0.1413
16266W        W32400   5.616   0.117   1.659  0.2450  0.2055  0.0120
16267W        W32401  15.039   2.949   2.165 -0.1250 -0.0217  0.1105
16268W        W32402  13.688  16.371  13.072 -0.0215  0.2575 -0.0749
16269W        W32403   8.676   6.447  15.555  0.0636 -0.0050 -0.0445
16270W        W32404   3.682   4.864  14.160 -0.1179 -0.0603 -0.1737
16271W        W32405   9.735   5.448  13.659 -0.3289 -0.1505  0.0563
16272W        W32406  10.891   1.662  13.401  0.0809  0.2988 -0.0015
16273W        W32407  18.351   6.003  15.338  0.0743  0.1509 -0.1288
16274W        W32408  12.480  11.076  12.904 -0.0771 -0.1189  0.0981
16275W        W32409  16.215  15.588   1.040  0.0350  0.0220 -0.0296
16276W        W32410   7.559   1.576   3.025 -0.0309  0.2952  0.1954
16277W        W32411  16.290   9.360   5.584 -0.0838 -0.0955 -0.0114
16278W        W32412  11.603   3.919   2.487  0.0048 -0.1504 -0.0421
16279W        W32413   9.575   5.322   3.561  0.0964  0.2975 -0.0687
16280W        W32414   6.431   1.835   4.443  0.0327 -0.1777  0.1857
16281W        W32415  17.504   0.503   5.353  0.0959 -0.1249 -0.3804
16282W        W32416  15.043  16.667   5.236  0.0431  0.0621  0.0889
16283W        W32417  10.222  11.909   0.105  0.0683 -0.0645 -0.0046
16284W        W32418   4.136   3.128  15.162 -0.2289 -0.1731 -0.0377
16285W        W32419   1.645  18.053  10.979  0.1961  0.3729  0.3162
16286W        W32420  13.956   2.222  14.307  0.0273 -0.1372  0.2893
16287W        W32421   2.649   6.465   0.075  0.2367  0.1495 -0.0026
16288W        W32422  18.016  16.868  15.106 -0.0277 -0.2712 -0.2671
16289W        W32423   7.072   6.092  14.655  0.0991  0.0008 -0.1883
16290W        W32424  11.850  12.172  11.211 -0.0589 -0.2610  0.0365
16291W        W32425  10.473  18.009   4.004 -0.0808  0.0375  0.1187
16292W        W32426  12.678  10.641   0.392  0.0511  0.1431  0.3777
16293W        W32427  16.777  15.421  13.370 -0.3269 -0.0147 -0.2978
16294W        W32428  14.546  17.550  13.851 -0.1973  0.1168 -0.0183
16295W        W32429   1.586   5.717   1.998  0.3004 -0.2303  0.2074
16296W        W32430   3.268  11.560   5.336  0.1762  0.0665 -0.0694
16297W        W32431   1.286   2.477   4.963  0.2201  0.0997 -0.1571
16298W        W32432   0.934   8.964   5.517 -0.4656  0.0301  0.2686
16299W        W32433   5.272   7.075   3.781  0.0265  0.0012 -0.0983
16300W        W32434  13.116   3.068   4.704 -0.0117  0.0830 -0.0567
16301W        W32435  13.231  16.038  11.405  0.2126  0.0170 -0.1548
16302W        W32436  18.042   1.326  14.025 -0.1148  0.0221 -0.0447
16303W        W32437  17.576   7.144  10.709 -0.1102  0.1327  0.0232
16304W        W32438   4.345   7.925   2.578 -0.2527  0.1582 -0.4173
16305W        W32439   6.832  13.893  11.659  0.2745 -0.4152  0.1226
16306W        W32440  11.090  16.255  12.245  0.1457  0.1579 -0.2409
16307W        W32441  16.450   6.569  14.306  0.0734  0.0743  0.1341
16308W        W32442   4.305   5.408   0.696 -0.1393  0.0325 -0.2127
16309W        W32443   3.053   4.545   3.058  0.1569  0.0729  0.2868
16310W        W32444  11.728  18.239   4.198  0.2591  0.1428 -0.2119
16311W        W32445   1.479   4.064   3.519 -0.0816 -0.2359  0.4121
16312W        W32446  12.413   0.740  10.203 -0.2080 -0.1468  0.0157
16313W        W32447  13.091  16.035   1.465 -0.0096  0.0769  0.1158
16314W        W32448   3.331   5.210   1.163  0.1963 -0.1669  0.1687
16315W        W32449  15.890   3.318   3.537  0.0670 -0.1386 -0.2944
16316W        W32450   0.383   4.863   3.894  0.0068  0.1597 -0.2102
16317W        W32451  12.791   9.277  11.847 -0.0970  0.2264  0.0799
16318W        W32452  14.794   9.644  13.149  0.0363  0.1029 -0.4696
16319W        W32453  11.603   3.266   2.614 -0.0742 -0.0357  0.3465
16320W        W32454   4.518   6.336  11.017 -0.2259 -0.0452  0.1188
16321W        W32455  12.630  16.836   1.763 -0.0904 -0.0290 -0.0678
16322W        W32456  15.433  16.258  15.287  0.0080 -0.0491 -0.0470
16323W        W32457   3.520  15.133   3.189  0.1432 -0.1487 -0.1147
16324W        W32458   7.990   1.183  14.354  0.0362 -0.0393  0.1749
16325W        W32459   6.253  17.239   2.466  0.0491  0.0321  0.2345
16326W        W32460   0.303   2.875  12.107 -0.2019  0.0541  0.0502
16327W        W32461  16.924   0.685  13.462 -0.0416  0.2317 -0.2485
16328W        W32462   1.256   9.433   4.145  0.3067 -0.1976 -0.1390
16329W        W32463   5.896   7.808   2.761 -0.1484 -0.0773 -0.2091
16330W        W32464  10.762  12.974   0.407  0.0957  0.0440  0.0150
16331W        W32465   0.711  10.197  14.521  0.0133 -0.0036  0.3314
16332W        W32466   3.261   0.485  12.626 -0.0181 -0.2809 -0.0652
16333W        W32467   4.656   8.683  13.891  0.0597 -0.4358  0.1637
16334W        W32468  13.154   2.754   3.428 -0.1825  0.0298  0.1952
16335W        W32469   9.146  13.609   4.465  0.5039  0.2099  0.1256
16336W        W32470  17.025   4.129   1.382  0.2568 -0.2227  0.0611
16337W        W32471  12.153  16.137   2.488 -0.1952 -0.3140 -0.2585
16338W        W32472   8.766  16.081   0.925 -0.2088  0.0827 -0.2436
16339W        W32473   4.697   1.791  12.320  0.0856 -0.1562  0.1509
16340W        W32474   5.200   9.377  11.159 -0.0012  0.0659 -0.1273
16341W        W32475  12.584   8.640   0.098 -0.0997  0.4229 -0.1393
16342W        W32476   1.672  16.233  12.796 -0.2831 -0.1989  0.0106
16343W        W32477  16.785   2.809   0.168  0.1778  0.0691  0.5229
16344W        W32478  17.549  16.615  11.086 -0.0164  0.0169  0.1153
16345W        W32479   8.559   6.996  14.792  0.0016 -0.2710 -0.0842
16346W        W32480  11.997   5.396  14.375 -0.2215  0.1187 -0.0045
16347W        W32481  12.422  13.251   1.204  0.3550 -0.0191 -0.0042
16348W        W32482   7.109  17.873  13.855 -0.0358  0.1525 -0.3751
16349W        W32483  16.856   1.411   4.876 -0.0669 -0.2438  0.1177
16350W        W32484  10.051  15.351   1.767 -0.2112  0.3322  0.1121
16351W        W32485   7.986   5.794  15.321  0.0344 -0.1219 -0.2574
16352W        W32486  10.072   4.712   4.971 -0.0388  0.0123  0.0352
16353W        W32487  17.947  14.545   1.145  0.1015  0.4079  0.1031
16354W        W32488   6.754   6.414   0.471 -0.0969 -0.0178  0.0167
16355W        W32489  16.194  15.379   4.788 -0.1424 -0.0863 -0.0077
16356W        W32490  15.147  10.412   4.530  0.0145  0.0558 -0.0675
16357W        W32491  16.535  12.953   1.540  0.0697 -0.2641 -0.0273
16358W        W32492  10.124   2.045  15.383 -0.2315  0.0413  0.1834
16359W        W32493  11.076   1.346  12.178  0.0342 -0.3192 -0.0958
16360W        W32494  10.705  12.051  11.196 -0.0536 -0.0451  0.0710
16361W        W32495   2.830   0.496  13.602  0.1654  0.2071 -0.1441
16362W        W32496   9.159  13.347  14.136 -0.0637 -0.2398 -0.0016
16363W        W32497  17.418   8.641  15.848  0.1793 -0.0650  0.0170
16364W        W32498   5.810   9.186  11.941  0.2327  0.3171  0.3431
16365W        W32499   7.988  13.364   5.830  0.0419 -0.2314  0.0500
16366W        W32500  13.850  17.624   4.007  0.0218 -0.1707  0.0325
16367W        W32501  18.080   2.239  12.712 -0.2206  0.0189  0.1725
16368W        W32502   9.733   5.659  11.628 -0.2038  0.0277 -0.2034
16369W        W32503   2.473   8.410  12.725 -0.1381 -0.1630 -0.2460
16370W        W32504   0.273  14.183   4.602  0.0179 -0.4956 -0.0841
16371W        W32505  14.596  10.932  13.270 -0.0694 -0.0471  0.1519
16372W        W32506   2.292  10.783  10.894  0.1878 -0.4276  0.1350
16373W        W32507  11.570  10.022  11.441 -0.3160  0.1401  0.0746
16374W        W32508   3.641   4.723  12.427 -0.2188  0.1313  0.3052
16375W        W32509  13.145   0.763  11.715 -0.0970  0.0312  0.0299
16376W        W32510   5.749  15.143   0.450 -0.2563 -0.2183  0.0100
16377W        W32511  15.260  12.980  13.801  0.1688  0.1141 -0.0149
16378W        W32512  12.349   6.738  14.419 -0.0494  0.2733 -0.0439
16379W        W32513  12.889  11.609   3.256  0.0214  0.2065  0.1762
16380W        W32514   3.110   7.641  13.307  0.0566  0.0600 -0.0630
16381W        W32515   3.201  11.928  15.461 -0.0428 -0.0154  0.3439
16382W        W32516  14.779  11.072   1.032  0.1639 -0.2907 -0.4247
16383W        W32517  13.898  11.127   1.137  0.0341  0.1088  0.1753
16384W        W32518  17.019  16.504   2.609  0.1424  0.0650  0.1378
16385W        W32519  18.363  11.602  11.774 -0.1113  0.1393 -0.5230
16386W        W32520  11.790   9.624   3.761  0.0956  0.1287 -0.5102
16387W        W32521  10.154  17.844   2.630  0.3235 -0.1361 -0.4743
16388W        W32522  12.994  15.444   5.149 -0.0346  0.0786 -0.2333
16389W        W32523   2.027   9.148   1.730  0.1461  0.0128  0.0774
16390W        W32524  18.431  17.133   1.271  0.0433  0.0067  0.0950
16391W        W32525   8.259   6.753   3.301  0.0211 -0.2654  0.0219
16392W        W32526   7.210   8.792  13.661 -0.0827 -0.2670  0.0046
16393W        W32527  12.044  12.697  15.621 -0.0276  0.0053 -0.0022
16394W        W32528  16.234   1.161   1.518  0.0715 -0.1415 -0.3072
16395W        W32529  11.408  17.989   0.083 -0.1206  0.1380 -0.1110
16396W        W32530  11.086  11.931   3.178  0.0871 -0.2103  0.0683
16397W        W32531  12.631   3.832   4.310 -0.3682  0.1808  0.2068
16398W        W32532  17.303  13.956  14.622  0.1336 -0.3754 -0.1872
16399W        W32533   8.117  17.213   0.076 -0.2235 -0.2343  0.2796
16400W        W32534   6.838   5.476   5.846  0.1557 -0.1136  0.0332
16401W        W32535  17.765   3.141  15.641  0.2064  0.1441  0.1545
16402W        W32536   5.468  14.632   2.094 -0.0518 -0.0082  0.2626
16403W        W32537   2.686   6.263  13.974  0.1789  0.1009  0.1437
16404W        W32538  16.891   9.274   4.989  0.2777 -0.0231 -0.5289
16405W        W32539  10.394   0.978   2.533  0.1656 -0.0316 -0.2357
16406W        W32540  10.506   5.823  11.020 -0.1051 -0.0042 -0.0932
16407W        W32541   5.961   6.131  13.165  0.0218 -0.0409 -0.4324
16408W        W32542  16.943  10.110   3.950  0.2105 -0.2409  0.2718
16409W        W32543   5.291  14.917   4.328  0.0685 -0.0090  0.0594
16410W        W32544   8.558  17.184  11.702 -0.3357  0.0520 -0.0046
16411W        W32545   2.577  15.987  10.855 -0.4113  0.1396  0.1492
16412W        W32546   5.854   7.841  11.871 -0.1884  0.0112  0.0455
16413W        W32547   0.194   6.695   2.547 -0.0786 -0.2105  0.0693
16414W        W32548  14.652   1.649   2.124  0.1691  0.2006  0.2034
16415W        W32549  16.019   1.568   4.341 -0.1589  0.4044  0.0427
16416W        W32550  15.812   3.441  14.118  0.2643  0.1927 -0.2564
16417W        W32551   0.893  15.683   0.138  0.0474  0.1034  0.0437
16418W        W32552   1.566  13.355   2.127  0.0470 -0.1778  0.1009
16419W        W32553  10.159   3.104  12.023  0.2310  0.0107 -0.2088
16420W        W32554   0.414   8.373  11.983  0.2431  0.1487  0.1772
16421W        W32555   4.874  11.311  12.678 -0.0113 -0.1419 -0.0274
16422W        W32556   2.731  15.273   3.815  0.1004  0.1817 -0.0335
16423W        W32557  13.977   0.251  14.872  0.1628 -0.0954 -0.3486
16424W        W32558  13.505   5.747  11.557 -0.3340  0.0002 -0.0493
16425W        W32559   2.816   8.372   0.726 -0.1676  0.1629  0.0605
16426W        W32560   9.469   0.843  12.481 -0.0596 -0.1872  0.3013
16427W        W32561  16.673   9.809   1.500  0.4334  0.0713 -0.1856
16428W        W32562  12.280   8.763   3.374 -0.1200 -0.1549  0.2401
16429W        W32563  18.252  16.570   4.232  0.0302 -0.0167 -0.0091
16430W        W32564  14.601   3.112   1.320 -0.1466  0.0483  0.1106
16431W        W32565   7.812   1.060   2.453 -0.0871 -0.2410  0.0120
16432W        W32566   9.215   0.743  14.458 -0.1652  0.1183 -0.3026
16433W        W32567  13.971  17.738  13.133 -0.3400 -0.1900  0.1167
16434W        W32568  11.981   7.301  12.883 -0.3369 -0.0927 -0.0390
16435W        W32569   9.711  16.844   2.505  0.0975  0.1401  0.2318
16436W        W32570  18.073   7.106  13.144  0.1761 -0.2242 -0.1852
16437W        W32571  11.713  17.506  15.905 -0.0567  0.0529 -0.3214
16438W        W32572  16.560  10.442   4.303  0.0187 -0.2800 -0.0155
16439W        W32573  13.241  16.549   2.295  0.3371 -0.1590 -0.2754
16440W        W32574  13.947  11.727  11.570  0.2760  0.0975 -0.0236
16441W        W32575   6.248  15.956  13.827 -0.0296 -0.0443 -0.1866
16442W        W32576   1.828  17.300   1.347 -0.0145  0.0246  0.0060
16443W        W32577  11.200  14.655   4.735  0.1194 -0.0898  0.0195
16444W        W32578  17.447  17.460  12.903 -0.1792 -0.0028 -0.2290
16445W        W32579  16.812   7.617   1.929  0.0045 -0.2281 -0.0044
16446W        W32580  14.572  16.224  13.480 -0.0548 -0.3292  0.0945
16447W        W32581  15.811  12.232  15.898  0.1290  0.0057 -0.0034
16448W        W32582   5.705   0.484   5.095 -0.0575  0.1136  0.1257
16449W        W32583   5.562   0.005  12.782 -0.0896 -0.0887  0.0170
16450W        W32584   2.234   1.958  12.784  0.2258  0.0734 -0.1819
16451W        W32585  18.275   0.626  11.427  0.0124  0.0141  0.0809
16452W        W32586   8.156   7.072  15.622  0.3185  0.0594  0.1193
16453W        W32587  12.969   7.443   4.115  0.1120 -0.2359  0.1282
16454W        W32588  17.606  12.242   4.516  0.0571  0.0329  0.2806
16455W        W32589   6.513  17.167  15.460 -0.2847 -0.0859  0.2298
16456W        W32590   8.366   2.282   2.194  0.0794 -0.0837 -0.0868
16457W        W32591  10.477  17.134   0.762 -0.4453  0.0163 -0.2257
16458W        W32592  14.025   0.471   1.168  0.1585  0.0137  0.2360
16459W        W32593   1.041  10.854   0.457  0.4995  0.2101 -0.2022
16460W        W32594   4.630  10.231   3.625 -0.0487  0.1614 -0.1999
16461W        W32595   1.307  10.540  10.558 -0.2117 -0.2838  0.0623
16462W        W32596   8.021   0.289   5.923  0.1175  0.2321  0.0168
16463W        W32597   3.964  10.652   3.020  0.1524  0.0140  0.0438
16464W        W32598   5.233   5.897  14.924 -0.0801  0.2479 -0.0474
16465W        W32599   3.818   0.754  12.429  0.1529  0.1728  0.0321
16466W        W32600  11.432  15.015  15.870 -0.1110 -0.1500 -0.1761
16467W        W32601   3.054  11.539   4.809  0.3812  0.1861 -0.0936
16468W        W32602   3.618   4.561  15.903 -0.0141 -0.1524  0.1081
16469W        W32603   3.837   0.946  14.470 -0.0119  0.2867  0.1208
16470W        W32604  12.600   9.317  13.669  0.1027  0.1695  0.0331
16471W        W32605   3.483   7.517  12.572 -0.0057  0.1308  0.1369
16472W        W32606   6.406   7.681   2.665  0.1193 -0.0297  0.0622
16473W        W32607  16.355   2.118   3.362  0.1026 -0.1284  0.2266
16474W        W32608   9.906  17.733   5.258 -0.0435  0.1385 -0.3062
16475W        W32609   9.401   8.282   5.573  0.1308  0.0757 -0.0329
16476W        W32610  18.104   1.531  11.100  0.1572 -0.1144  0.1446
16477W        W32611  16.791   4.511   2.110 -0.1648 -0.1504  0.1062
16478W        W32612  10.499  10.514   0.661 -0.2145 -0.1394  0.0219
16479W        W32613  18.152   8.209   1.647 -0.0147 -0.0999  0.3407
16480W        W32614  16.224   0.940  12.529  0.1670 -0.1051  0.1542
16481W        W32615  18.224   4.530  13.547  0.0799 -0.1000  0.1023
16482W        W32616  14.614  12.486  15.335 -0.0519  0.0702 -0.2303
16483W        W32617  16.575   1.083   6.003 -0.1231  0.0857  0.0418
16484W        W32618  13.042  11.068   2.595  0.0902 -0.0918  0.2170
16485W        W32619   2.660  15.263  13.400  0.4032  0.3953 -0.0736
16486W        W32620  14.448  18.099  11.084  0.0899 -0.1664  0.1434
16487W        W32621  14.009   2.020   5.916  0.2361 -0.2546  0.3866
16488W        W32622   0.826   5.353   1.721 -0.0038 -0.0424 -0.0480
16489W        W32623   1.287  11.515  13.583 -0.0046 -0.1242  0.0550
16490W        W32624  11.588   9.916   4.172  0.2459 -0.0631  0.2782
16491W        W32625   3.846  14.473  11.025  0.0634  0.1629 -0.1881
16492W        W32626  17.923   5.232   4.714  0.1234 -0.0526 -0.2146
16493W        W32627   3.622   3.694   5.061 -0.0630 -0.2700  0.0713
16494W        W32628   0.055  14.487   1.332  0.1207  0.0127  0.2286
16495W        W32629  10.106   2.737   1.146  0.3471  0.2413  0.3703
16496W        W32630  17.585  14.451   3.284  0.3378  0.3307 -0.0914
16497W        W32631   5.982  12.873  12.224  0.3845 -0.1474 -0.1004
16498W        W32632  11.433   1.917  14.924  0.1327 -0.2975 -0.0639
16499W        W32633  10.021  10.795   0.496 -0.2611 -0.2546 -0.1267
16500W        W32634   6.473   7.234  13.886  0.0251 -0.2758 -0.0869
16501W        W32635  16.568  14.268   3.457  0.0735 -0.2589  0.1636
16502W        W32636   9.155   8.334   3.248 -0.0004 -0.2666  0.1145
16503W        W32637   0.829   4.578  13.405  0.0599 -0.0539 -0.0048
16504W        W32638  16.277  17.171   3.831  0.0113  0.0814  0.0418
16505W        W32639  10.035   2.375  14.984 -0.0629  0.0622 -0.3019
16506W        W32640   3.137   3.581   4.998  0.3954  0.3888  0.1127
16507W        W32641  16.607  12.982  11.151 -0.0039 -0.0841 -0.0035
16508W        W32642   7.885  11.282   2.923  0.0775  0.0415  0.0926
16509W        W32643   1.510   9.110   1.742 -0.2103  0.1554  0.0740
16510W        W32644   5.805  16.855   3.417  0.2177 -0.1880  0.1240
16511W        W32645  12.631  12.676   0.602  0.0770  0.1303  0.1168
16512W        W32646  15.685   6.728  12.164 -0.1899 -0.0993  0.1838
16513W        W32647   7.467  13.053   4.446  0.2132 -0.0652 -0.2169
16514W        W32648   5.940   7.139   9.805  0.0419  0.0199  0.1118
16515W        W32649   2.173  14.737   0.840  0.3599 -0.0185 -0.1555
16516W        W32650   9.727   5.162   1.760  0.1273  0.0649 -0.1713
16517W        W32651  14.620   8.190  11.708  0.1643  0.2282  0.1795
16518W        W32652  16.029  15.113   0.933 -0.0407  0.4484 -0.1933
16519W        W32653   1.152  12.133   4.375 -0.2465  0.0980  0.0142
16520W        W32654   2.022  10.860   0.935  0.0985  0.4761  0.2234
16521W        W32655  12.071   1.977   1.858  0.2373  0.1002  0.2626
16522W        W32656  17.386  16.049  15.214  0.2331  0.2426 -0.0662
16523W        W32657   8.272   1.455   2.602  0.0898 -0.3512  0.0016
16524W        W32658   0.775   7.062   3.290  0.1459  0.1221 -0.0944
16525W        W32659  18.426   6.277  11.368  0.0624  0.0035  0.1966
16526W        W32660  14.859   8.899  12.443 -0.2253  0.1163  0.3888
16527W        W32661   8.725  12.853  13.398 -0.1978  0.0423 -0.0103
16528W        W32662   9.385   7.423  13.414 -0.2194  0.1580  0.0614
16529W        W32663   1.246   7.281  10.597  0.2401 -0.0933  0.2779
16530W        W32664  11.535   3.157  11.168  0.1563 -0.3132  0.1216
16531W        W32665  13.444  15.574   4.698 -0.0403 -0.3230  0.0078
16532W        W32666  13.549   7.273  15.257 -0.2166  0.1778  0.1360
16533W        W32667   4.902  13.207  11.804  0.2124 -0.0224 -0.1637
16534W        W32668   5.873   4.402  11.741 -0.0123 -0.0697  0.0831
16535W        W32669   9.608   6.436   1.241  0.2431 -0.2540  0.0744
16536W        W32670  15.003  11.478  10.793 -0.1478  0.0333 -0.0563
16537W        W32671  17.388  14.383  12.254  0.2875 -0.1386  0.0579
16538W        W32672   7.369   1.070   3.723 -0.2529  0.2093 -0.0281
16539W        W32673  14.752  15.442  15.861  0.3172  0.1028 -0.0687
16540W        W32674   9.854   8.678   4.824 -0.2147  0.0124  0.1076
16541W        W32675   5.792   3.825   0.421 -0.0663  0.3043  0.2465
16542W        W32676   7.387   2.357  14.311  0.2965 -0.1261 -0.5200
16543W        W32677  16.377  15.369  12.704 -0.1170  0.0154 -0.2508
16544W        W32678  10.406   1.898   4.045 -0.0715 -0.3237 -0.1109
16545W        W32679  17.908   0.436  15.536  0.3012 -0.0994 -0.3150
16546W        W32680   1.466  15.837   1.685  0.0136 -0.1572  0.0807
16547W        W32681   6.671   6.358   1.408  0.2183 -0.0382  0.0144
16548W        W32682   9.272  10.655   5.306  0.1515 -0.0959 -0.3145
16549W        W32683   5.598  12.515   0.696  0.0528 -0.2346  0.0613
16550W        W32684  12.502   1.093  11.116  0.0733 -0.1248 -0.2803
16551W        W32685  15.224   1.114  12.719  0.0989 -0.1472 -0.2947
16552W        W32686  11.195  17.162   2.860 -0.2780 -0.2313 -0.0422
16553W        W32687  17.162   3.647   1.306  0.3127  0.3128  0.3324
16554W        W32688   0.597  12.302  12.534  0.0493  0.0175  0.0202
16555W        W32689   8.243  16.890   2.744 -0.0811  0.0885  0.1196
16556W        W32690   4.770  13.844  11.787  0.0217 -0.0346  0.2640
16557W        W32691  12.077   8.090  15.434 -0.1397 -0.3411 -0.0570
16558W        W32692  13.028   6.321  12.585  0.1592 -0.2223  0.2437
16559W        W32693   0.156   1.954   4.789  0.1640  0.1576 -0.0666
16560W        W32694  15.678  17.966  11.307  0.0855  0.1985 -0.0037
16561W        W32695  12.705  16.302   0.610 -0.1223 -0.1089  0.1733
16562W        W32696   7.926  10.256  14.148  0.0011  0.0228  0.2087
16563W        W32697  13.829  14.880  12.499  0.4040 -0.0227  0.0931
16564W        W32698   8.954  14.905  13.468 -0.0632  0.1683 -0.0987
16565W        W32699   1.258  10.639  15.585 -0.3842 -0.2391  0.1618
16566W        W32700  15.682   0.692   4.617 -0.1162  0.2003  0.1151
16567W        W32701   7.654  15.188  12.149  0.1208 -0.1248  0.2338
16568W        W32702  10.750  13.074   1.781  0.0561  0.1875 -0.0613
16569W        W32703   3.530   0.255  13.299  0.3917 -0.1793 -0.0239
16570W        W32704   6.915   6.637   0.942  0.1341 -0.5442  0.0919
16571W        W32705  13.423   8.223  15.120  0.0451  0.2017  0.2024
16572W        W32706   6.986  12.858   5.264  0.0698  0.0507 -0.0273
16573W        W32707   8.501   9.657   1.175  0.2165  0.3447 -0.0554
16574W        W32708   8.198  12.656   3.967 -0.2078  0.1378 -0.0178
16575W        W32709   4.853   0.792   1.231 -0.0527 -0.2329  0.0483
16576W        W32710  10.667   6.688   3.254  0.0341 -0.0551  0.3809
16577W        W32711   1.432   2.030  15.352 -0.0091 -0.1165 -0.1483
16578W        W32712  16.749   6.796   1.638 -0.0309 -0.0595  0.2086
16579W        W32713   9.870  12.196  15.774 -0.1632 -0.0472  0.1314
16580W        W32714   2.447  12.658   2.983  0.0075 -0.0333  0.0083
16581W        W32715  13.660  11.543  12.801  0.0044 -0.0989 -0.4023
16582W        W32716   8.795  16.100   3.328  0.0681 -0.1413  0.0510
16583W        W32717   3.184  15.899  15.474 -0.2409 -0.1154  0.0157
16584W        W32718   1.623   0.618   0.115 -0.0507  0.2291  0.3133
16585W        W32719   1.728  11.823  10.175 -0.3585  0.0682 -0.4582
16586W        W32720   8.465   7.737  15.343  0.1529 -0.0327  0.0833
16587W        W32721   7.144  10.951   4.761  0.1626  0.1627  0.0200
16588W        W32722   7.020  10.112   0.789  0.0586 -0.2788  0.2678
16589W        W32723   3.173   5.621   2.062  0.0107 -0.1442 -0.0692
16590W        W32724   1.160  13.553  11.206 -0.1956 -0.1650  0.0039
16591W        W32725   3.021   7.295   4.593 -0.1989  0.2036  0.0907
16592W        W32726   8.967  13.403  14.965  0.0588  0.0718 -0.1819
16593W        W32727   5.432   4.956   0.246  0.2824 -0.1167 -0.0436
16594W        W32728  14.396   3.579   6.068  0.0629 -0.0059  0.1621
16595W        W32729  18.226   8.603   2.751 -0.0415 -0.0596  0.0280
16596W        W32730   2.734   0.778   4.970  0.1175 -0.0236  0.1624
16597W        W32731  11.302  16.513   4.471  0.0302 -0.1227 -0.3155
16598W        W32732   7.467  15.382  15.832  0.0695 -0.0552 -0.0510
16599W        W32733  15.595  12.218  14.771  0.0946 -0.0828 -0.1962
16600W        W32734  13.880   8.119   0.174 -0.0847 -0.1313  0.2090
16601W        W32735  13.306   0.574   2.617 -0.1043  0.2415  0.0145
16602W        W32736  16.367   5.141   3.285  0.1216  0.0525  0.1274
16603W        W32737  11.778  17.014   1.377 -0.1186  0.1844 -0.1711
16604W        W32738  18.188  11.798   2.839  0.2160 -0.0219  0.3901
16605W        W32739  17.534   1.385   3.125 -0.0777  0.0006 -0.0118
16606W        W32740  13.130  16.431  10.620  0.1823  0.2133  0.1093
16607W        W32741   9.658  10.331   5.736  0.3957  0.0568  0.2112
16608W        W32742  10.443   8.388  12.196  0.4580  0.1875  0.3264
16609W        W32743   8.126   8.843  10.850  0.0590 -0.0824  0.0554
16610W        W32744   9.321  11.137  10.520  0.0895 -0.0178 -0.0782
16611W        W32745   2.144  13.873  13.746  0.0436  0.2039 -0.2474
16612W        W32746   5.485   3.319   1.863  0.3607  0.0690 -0.2255
16613W        W32747   1.651  13.925  14.946 -0.1567  0.2494  0.0821
16614W        W32748   3.326   8.882   4.481 -0.0277  0.0303 -0.3476
16615W        W32749  16.293  14.537   2.995 -0.2351  0.0699 -0.0494
16616W        W32750  12.590  13.567   1.619 -0.0922  0.1221 -0.1187
16617W        W32751   9.443  14.570   4.639  0.0260  0.2595  0.0505
16618W        W32752  13.883   6.238  13.228 -0.0692 -0.0238 -0.2219
16619W        W32753  17.715  15.909   5.215 -0.0283  0.0967 -0.3156
16620W        W32754   5.889  12.385   3.823 -0.2042 -0.1299 -0.3832
16621W        W32755   6.803   0.055   2.341  0.3146  0.0115  0.0864
16622W        W32756   0.063  15.819   2.342 -0.1708  0.0232  0.5288
16623W        W32757  16.531   4.588  13.928 -0.1097 -0.0788 -0.1255
16624W        W32758   1.602   7.984   2.519  0.0491  0.2611 -0.0244
16625W        W32759   7.784   6.305   4.285 -0.1796 -0.1041  0.0050
16626W        W32760  18.285   7.552  13.654 -0.2197 -0.1274  0.0108
16627W        W32761  10.463   4.689   2.717 -0.0864  0.1455  0.1391
16628W        W32762   2.944  10.003   0.100 -0.1822 -0.1492  0.0540
16629W        W32763  15.944   2.522  15.328 -0.1078 -0.4875 -0.0906
16630W        W32764   6.136   2.389  13.814  0.0352 -0.0336 -0.2267
16631W        W32765   1.253   3.275  15.218 -0.3597 -0.0020  0.0199
16632W        W32766   6.799  16.852  11.509  0.1431 -0.2223 -0.3167
16633W        W32767  16.538  13.697  13.971 -0.0703  0.2592 -0.0359
16634W        W32768   5.425  15.282  14.586  0.0892 -0.0946 -0.0790
16635W        W32769   5.451  10.168  13.309 -0.4178  0.0271  0.2499
16636W        W32770   7.927  14.120   5.088  0.0425  0.1009 -0.0854
16637W        W32771  14.107  13.441   0.887  0.1643 -0.0575 -0.1731
16638W        W32772   6.370  18.057   2.145  0.0361  0.1665  0.1771
16639W        W32773   2.450   9.843   4.851  0.0470 -0.0873  0.0006
16640W        W32774   6.426   3.774  11.655 -0.2152 -0.1103  0.3118
16641W        W32775  17.793   1.305   0.177  0.0728  0.1045  0.1256
16642W        W32776  15.450  15.763  14.023  0.0070 -0.0684 -0.0033
16643W        W32777   4.004  12.267   3.363  0.1637  0.0727  0.0831
16644W        W32778   2.619  12.795  12.383 -0.0429 -0.1385 -0.1041
16645W        W32779   6.934  12.958   6.116 -0.2117 -0.2481 -0.0064
16646W        W32780   2.673  17.490  10.868 -0.0177 -0.0718  0.1041
16647W        W32781   7.332   9.393   2.346 -0.5684  0.1484  0.1556
16648W        W32782  10.079   2.327   2.953 -0.0643 -0.1561 -0.2350
16649W        W32783   9.207   9.981  14.080  0.0039  0.0290 -0.0379
16650W        W32784   2.930  15.017   5.049  0.0818 -0.1378  0.0926
16651W        W32785   9.388   5.660  12.443 -0.1828  0.1246 -0.0495
16652W        W32786   8.540  17.792  15.703 -0.1651  0.1308  0.0031
16653W        W32787  16.449  18.082   4.692  0.1586 -0.3224 -0.1267
16654W        W32788  13.056   1.265   2.213  0.3700  0.1639 -0.3985
16655W        W32789  16.682  14.132   4.521 -0.0341 -0.0302 -0.3223
16656W        W32790   5.227  16.793   2.528  0.1268 -0.1356 -0.1010
16657W        W32791   2.966   4.186  12.310 -0.1639  0.2781 -0.0934
16658W        W32792   3.401   1.824  11.269  0.0873 -0.3784 -0.1452
16659W        W32793   3.164   7.298   0.876  0.3966  0.2218  0.1656
16660W        W32794  13.478   0.318   4.748  0.0179 -0.2455 -0.1314
16661W        W32795  14.441   4.522   4.347  0.1281 -0.4517  0.1790
16662W        W32796  12.773   0.307   1.220  0.2916 -0.1634 -0.2461
16663W        W32797   1.115  12.000  12.385  0.0345  0.0098 -0.1066
16664W        W32798   8.783  18.080  14.423  0.2642 -0.1121  0.2633
16665W        W32799   4.705   8.060  13.094 -0.1248 -0.0969  0.1221
16666W        W32800   8.016  18.198  13.951 -0.1185  0.0052 -0.0251
16667W        W32801   2.303   3.608   2.933  0.0473  0.0555 -0.1642
16668W        W32802   5.994   2.285  15.264  0.3127  0.0698  0.2433
16669W        W32803   5.682  16.804  15.738 -0.3641  0.5752  0.0403
16670W        W32804   3.680  17.795   4.346  0.0026 -0.1020 -0.2957
16671W        W32805   5.547   2.040  15.153 -0.0028  0.0709 -0.1772
16672W        W32806  15.413  15.849   4.412  0.1075 -0.0020 -0.1813
16673W        W32807   4.320  15.293  14.130  0.0403 -0.0966 -0.0394
16674W        W32808  11.948   1.496   2.257  0.1247 -0.0137  0.1478
16675W        W32809  10.445   1.260   1.455  0.1762 -0.0773 -0.0811
16676W        W32810   4.333   3.662   4.367 -0.1832  0.2638  0.2547
16677W        W32811   5.786  10.398  11.763  0.0785  0.0830 -0.1200
16678W        W32812  12.038  11.625   4.027  0.0150 -0.1048 -0.3626
16679W        W32813   0.921   3.352   2.509 -0.2221 -0.0212 -0.3755
16680W        W32814   1.577   1.070  14.972  0.4573 -0.4525 -0.1603
16681W        W32815   3.207  17.828   4.651 -0.0429  0.0552 -0.3622
16682W        W32816  11.801  13.069   5.786 -0.3330  0.4482 -0.0677
16683W        W32817   5.676   9.101   1.790 -0.3334 -0.2748  0.1562
16684W        W32818   1.715   7.276   3.128  0.1533 -0.5001 -0.0749
16685W        W32819   6.325   3.620   3.694  0.1610 -0.0336  0.4003
16686W        W32820   3.717   6.711  15.020  0.0774  0.1517  0.1765
16687W        W32821   7.254  12.939   3.424 -0.0180  0.0275 -0.0714
16688W        W32822  13.620   8.613   5.920  0.1132 -0.0465  0.0431
16689W        W32823   8.395  15.120   0.129 -0.0846 -0.0561 -0.0667
16690W        W32824   8.001   0.231  14.013  0.2167 -0.0178 -0.0263
16691W        W32825  17.899   9.872   4.507  0.2081 -0.1498  0.0368
16692W        W32826  18.398  16.764  14.045  0.1236  0.3048  0.1006
16693W        W32827   6.880   2.730   0.922  0.0772 -0.0013  0.1522
16694W        W32828  12.463   0.200   4.554 -0.3311  0.2622 -0.3138
16695W        W32829   9.132   3.750  11.599 -0.0173 -0.0826 -0.2653
16696W        W32830  11.030   6.342   3.242  0.1227 -0.1746 -0.3078
16697W        W32831  12.438  17.163   2.106 -0.0278  0.2719 -0.0598
16698W        W32832   5.935  12.009  13.207  0.0858  0.0781  0.1635
16699W        W32833  14.928   2.733   4.156 -0.0409  0.0878 -0.1484
16700W        W32834  18.197   8.745   4.658  0.1681 -0.1232 -0.1585
16701W        W32835  15.740   5.121  14.482 -0.3136  0.1164 -0.1290
16702W        W32836  14.282  15.139   3.907  0.1433  0.0196 -0.1524
16703W        W32837   9.348   9.621  13.779  0.0573  0.0286 -0.0153
16704W        W32838  10.702  10.490  14.349 -0.0337 -0.2611 -0.2842
16705W        W32839  11.170  15.072  14.370  0.1032 -0.2216  0.2569
16706W        W32840  13.501  17.252  15.111  0.2054  0.0557  0.2474
16707W        W32841  16.943   1.353   1.088 -0.0075 -0.3165  0.0989
16708W        W32842  12.567   7.200  13.430 -0.4929  0.0304  0.0645
16709W        W32843   5.508   8.323  13.534  0.2263  0.1180  0.0918
16710W        W32844   7.813  13.771  11.508 -0.0447 -0.1031  0.2550
16711W        W32845  17.031   0.305   5.122 -0.3294  0.0942 -0.0674
16712W        W32846   1.812  18.139  12.114 -0.1150 -0.0108 -0.0700
16713W        W32847  17.985   2.384   3.968 -0.1440  0.0594  0.1101
16714W        W32848   1.386   9.819  14.188 -0.3026 -0.2138  0.1410
16715W        W32849   7.807  18.287   2.128 -0.0963 -0.0121  0.1363
16716W        W32850   6.030  12.572   2.449 -0.2118  0.0396  0.1564
16717W        W32851   6.566   2.585  13.921 -0.0198  0.1190  0.1644
16718W        W32852   1.710   7.311  12.756 -0.3373  0.1110 -0.0232
16719W        W32853   6.967  11.473   0.800  0.1399 -0.2864 -0.0992
16720W        W32854  12.832   5.191   3.678 -0.2588  0.2017 -0.2086
16721W        W32855   0.716  18.128   3.865  0.0870 -0.3743 -0.4264
16722W        W32856   7.908   5.130   2.796 -0.1181  0.1165  0.1765
16723W        W32857  11.928  14.159   3.804 -0.2251  0.2253  0.0209
16724W        W32858   0.103  16.017  13.404  0.3019 -0.0437  0.2660
16725W        W32859   3.177   4.130   0.008  0.2191  0.0160  0.0705
16726W        W32860   0.700   3.289   0.119 -0.0789 -0.0423 -0.0317
16727W        W32861   0.450   6.819  12.659 -0.1616  0.1323  0.2543
16728W        W32862  12.757  16.913   1.234  0.0898 -0.3696 -0.0844
16729W        W32863   5.176   7.156  12.323 -0.0273  0.0176  0.0451
16730W        W32864   8.344   9.085   0.612 -0.2294  0.1325 -0.0504
16731W        W32865  15.204   2.552   1.804 -0.2275 -0.0370 -0.1708
16732W        W32866   7.389   2.966  14.352  0.0868 -0.1410 -0.0691
16733W        W32867  13.097   6.236   3.373  0.0257 -0.2409 -0.2891
16734W        W32868   1.538  14.903  12.697  0.0034  0.0679  0.0836
16735W        W32869  14.190   4.236  13.760 -0.1044  0.0621  0.1612
16736W        W32870  15.061   4.835  14.571  0.2844  0.0856  0.3950
16737W        W32871   2.052  16.094   3.103 -0.2149 -0.0851 -0.0244
16738W        W32872   1.344   1.469   5.204 -0.0628  0.2597  0.0906
16739W        W32873  17.269  16.092   5.019 -0.0445  0.0735 -0.0875
16740W        W32874   7.075  16.355  15.418  0.1961  0.0813  0.0971
16741W        W32875   0.949   5.069   0.180  0.1069 -0.0733 -0.1414
16742W        W32876  10.513  13.736  14.728  0.1474  0.3291 -0.0651
16743W        W32877  12.827  16.086  13.146 -0.2443  0.1093  0.1940
16744W        W32878   7.191  12.609   2.044 -0.0722 -0.0355 -0.0264
16745W        W32879  16.100  15.712  11.170 -0.3289  0.0091 -0.2159
16746W        W32880  11.947   8.711   0.174 -0.3191  0.0072  0.3186
16747W        W32881   9.617  18.330   2.529 -0.1026  0.2799 -0.1293
16748W        W32882  12.017  18.260  15.736  0.1931  0.0643 -0.1628
16749W        W32883   0.215   1.364  12.764 -0.0850 -0.1597  0.0614
16750W        W32884   9.536   6.408   5.425  0.0863 -0.1550  0.0524
16751W        W32885  17.947   0.107  14.492  0.0657  0.1499 -0.0890
16752W        W32886  13.292  12.013  12.118  0.2803  0.1274  0.4506
16753W        W32887  13.309  16.279  15.493  0.3481 -0.2470  0.1760
16754W        W32888   8.461   7.845   5.439  0.1677  0.0756 -0.2162
16755W        W32889   6.207  14.855  14.389  0.0776  0.1078 -0.1903
16756W        W32890   8.760  15.819   1.380 -0.0111  0.2778 -0.2835
16757W        W32891   6.558  13.640  15.401  0.1299  0.1463  0.1001
16758W        W32892  16.641   0.982  15.227 -0.0118  0.1168 -0.0890
16759W        W32893  10.712  13.791   5.173 -0.2303  0.3283  0.0950
16760W        W32894  14.451   3.211  14.286 -0.3087  0.0925 -0.1038
16761W        W32895  10.270   9.476  13.420  0.1644  0.2476 -0.2093
16762W        W32896  11.382   2.368  12.263 -0.0278  0.1153 -0.0787
16763W        W32897   3.382  13.866  11.635  0.1981 -0.3417 -0.0141
16764W        W32898  15.190   7.032  15.425 -0.1341 -0.0523  0.2507
16765W        W32899  13.911  14.825   3.527  0.2812  0.0034 -0.2191
16766W        W32900   6.845   5.301  11.597  0.0370 -0.1885  0.0309
16767W        W32901   9.978   1.572  13.041 -0.0685  0.1631  0.1314
16768W        W32902   4.288  12.502   5.774 -0.2785  0.1294 -0.1549
16769W        W32903   2.871  10.680   3.080 -0.1381  0.2055 -0.0965
16770W        W32904   0.802  17.205  14.219 -0.0240 -0.0076  0.3362
16771W        W32905   0.067  16.244  14.525 -0.1989  0.3698 -0.1915
16772W        W32906  14.334   8.340  10.606  0.2311 -0.1790 -0.1293
16773W        W32907   3.779   2.730  15.166 -0.5530 -0.1310 -0.3246
16774W        W32908   6.294   9.034  11.988  0.3078 -0.1558 -0.3149
16775W        W32909  13.202  16.504  13.552 -0.0277  0.0248  0.1313
16776W        W32910  11.484   5.148   4.651 -0.0061  0.1121 -0.0663
16777W        W32911  12.899   0.530  13.299  0.2100  0.2574 -0.2213
16778W        W32912   1.766   4.783  11.051  0.1811 -0.0930 -0.1195
16779W        W32913   4.045   0.961  15.384 -0.1540  0.2922 -0.1342
16780W        W32914   5.351  14.612   3.718 -0.0696 -0.0680  0.0618
16781W        W32915   0.064   3.125   2.457 -0.1806 -0.0729 -0.0668
16782W        W32916   2.259  16.623   2.953  0.0540 -0.0187 -0.1078
16783W        W32917  18.332  15.555   3.667  0.0140 -0.0356  0.1359
16784W        W32918  17.788  13.408   1.710  0.0057 -0.1260 -0.3132
16785W        W32919  12.243   8.722   3.896  0.1796 -0.1912 -0.2517
16786W        W32920  12.360   1.554  13.527  0.3329  0.0420 -0.2047
16787W        W32921   0.658  11.031   3.918  0.1157  0.2789  0.1112
16788W        W32922  11.704  17.984   5.171  0.1057  0.3298 -0.0038
16789W        W32923   5.396   7.410   4.136  0.0169  0.0554  0.0456
16790W        W32924   0.003   4.322  11.000  0.0237 -0.1182 -0.0519
16791W        W32925  11.997   1.278  11.033  0.1963 -0.2342  0.0506
16792W        W32926   2.603   4.257   4.815  0.0174  0.0968  0.1179
16793W        W32927   7.591   3.348  12.924  0.0289  0.0030 -0.0292
16794W        W32928   4.840  16.924   2.196  0.2087 -0.3960  0.0372
16795W        W32929   2.532  15.776   1.926 -0.2136  0.0432 -0.1782
16796W        W32930   9.131   5.258   4.033  0.0861 -0.0684 -0.2094
16797W        W32931   4.563  12.777  12.532 -0.0983 -0.1794  0.1291
16798W        W32932   1.751  12.670  11.406 -0.4403 -0.2651  0.0605
16799W        W32933   5.796   0.894  10.846  0.1641 -0.0501  0.1223
16800W        W32934  14.123   5.999  12.546  0.2272 -0.0224 -0.0571
16801W        W32935  10.505  16.514   4.190 -0.1106  0.0782  0.0781
16802W        W32936   7.545  10.063   4.700  0.1435 -0.2585 -0.0815
16803W        W32937   2.193   3.743   3.848 -0.0832 -0.0613 -0.1483
16804W        W32938   3.758  18.033   3.385 -0.3340  0.0994  0.1374
16805W        W32939  17.227   7.606   4.611 -0.2914 -0.2700 -0.2206
16806W        W32940  10.455   6.504   1.092 -0.2865  0.2224 -0.1013
16807W        W32941  16.845  10.049  14.841  0.0425  0.2331 -0.1811
16808W        W32942  13.393  16.435   5.055 -0.0059  0.0924 -0.0718
16809W        W32943   6.989   5.157   1.686 -0.0028  0.1712 -0.0937
16810W        W32944   0.742   0.323  13.489  0.0390  0.1636  0.1764
16811W        W32945   5.354  16.480  12.291 -0.1425  0.2321 -0.2892
16812W        W32946   8.032   9.227   3.172  0.3105  0.3117 -0.0911
16813W        W32947   8.713  16.796   2.556 -0.0431  0.0846  0.0193
16814W        W32948   4.853  11.538   3.658  0.2215 -0.0578 -0.0420
16815W        W32949  17.984   2.991   3.530  0.0404 -0.0908 -0.0169
16816W        W32950   5.504   4.359   4.618  0.0324 -0.2741  0.1458
16817W        W32951   8.369   5.824  12.638 -0.1558 -0.0620  0.0074
16818W        W32952   7.830  16.413  14.558 -0.2605  0.0186  0.3142
16819W        W32953  16.941  15.278   2.997 -0.0194  0.0275  0.0299
16820W        W32954   0.385  13.174  12.080 -0.0432 -0.2247  0.3200
16821W        W32955   2.311   8.484  15.578 -0.1285 -0.1056  0.0029
16822W        W32956   9.503   9.069   0.645  0.0847  0.0524  0.3582
16823W        W32957   1.692  11.616  13.892  0.2912  0.2703 -0.3534
16824W        W32958  14.604   8.448  15.540 -0.2090  0.1953 -0.2175
16825W        W32959  17.330   6.672  15.709  0.1620  0.1464  0.2762
16826W        W32960   0.366   2.771   0.772 -0.2347 -0.0572 -0.0420
16827W        W32961  17.297   9.264   5.390 -0.1274  0.0693 -0.3663
16828W        W32962  15.874  15.535   4.295  0.1103  0.3573  0.0663
16829W        W32963  11.143   4.623  10.542  0.0906 -0.2748  0.0887
16830W        W32964  17.140   6.292   0.124  0.0072 -0.3321 -0.1171
16831W        W32965  10.468   3.001  11.183  0.3111 -0.1382 -0.1373
16832W        W32966   4.111   9.640  12.038 -0.1117  0.3237  0.2414
16833W        W32967   2.161  12.492   5.658  0.2920  0.0170  0.0009
16834W        W32968   6.033   4.150  14.614  0.0696 -0.0197  0.0720
16835W        W32969   6.972   5.428   4.259 -0.2023  0.2134  0.2289
16836W        W32970   5.417  11.248   1.990  0.0099 -0.0864 -0.2250
16837W        W32971  17.375  10.369   2.639 -0.0461 -0.0537  0.0429
16838W        W32972  18.330   9.235   1.371  0.1377  0.1342 -0.1839
16839W        W32973  14.925  12.033   2.692 -0.3075 -0.0829 -0.2455
16840W        W32974   7.656  10.974  12.664  0.0275 -0.1438  0.2131
16841W        W32975   8.357  16.335   3.477 -0.2761 -0.2959 -0.0033
16842W        W32976  10.484  11.468   0.278 -0.0665 -0.0841  0.0967
16843W        W32977   4.753   2.508  15.699 -0.3570 -0.0275  0.0938
16844W        W32978  11.985  16.873  14.155 -0.1440  0.1094  0.2595
16845W        W32979  18.265   7.920   4.886 -0.0751 -0.2374  0.1226
16846W        W32980  16.391  12.791   3.412 -0.0456 -0.1195 -0.1678
16847W        W32981   3.572  11.747  11.573 -0.0786  0.1319  0.1868
16848W        W32982   8.951   2.637  13.414 -0.1773  0.1391  0.1896
16849W        W32983  12.631   0.070  12.868 -0.2572  0.1981 -0.0917
16850W        W32984   7.846   0.267   1.336 -0.3790  0.1404 -0.1321
16851W        W32985  12.023  16.112   5.089  0.0558  0.1210 -0.0480
16852W        W32986   6.173  10.039   2.508  0.1706 -0.0337  0.0949
16853W        W32987  15.716  11.747   4.881 -0.3124  0.1250 -0.1826
16854W        W32988  14.564   9.217   4.084  0.2933 -0.0354  0.0135
16855W        W32989   7.300  16.659   3.979  0.2438 -0.1437 -0.0235
16856W        W32990   6.543   7.585  11.243 -0.1173  0.1614 -0.1668
16857W        W32991   3.684  13.222   0.478  0.1692 -0.0771  0.3543
16858W        W32992  16.890  12.976  15.539 -0.1567  0.3830 -0.0904
16859W        W32993   0.044   3.689  14.098 -0.4938  0.0753 -0.1653
16860W        W32994   6.150   7.097   4.403 -0.0515  0.0073  0.3495
16861W        W32995  14.395  10.468  13.159  0.4868 -0.2955  0.1876
16862W        W32996   8.450   3.273  11.781 -0.2744  0.0761 -0.0275
16863W        W32997   7.743  12.627  12.347 -0.1684 -0.2262 -0.0508
16864W        W32998  17.105   0.679   3.039  0.2272  0.0956  0.1422
16865W        W32999   7.223   3.564  13.782  0.3538  0.3014  0.1537
16866W        W33000  10.102   5.789  15.590  0.1497  0.2541 -0.0818
16867W        W33001  10.633  18.221  11.935 -0.1365  0.0154  0.1385
16868W        W33002   6.458  11.265   2.153 -0.0728  0.4034  0.0716
16869W        W33003   0.971   3.740   1.900 -0.0245 -0.2433  0.0936
16870W        W33004   5.838   0.340  14.069  0.0012  0.3320  0.1014
16871W        W33005  17.594   7.882   0.269 -0.3096  0.2641  0.0444
16872W        W33006   7.158  15.154   0.270  0.0811  0.0599 -0.2175
16873W        W33007   1.578  16.116   4.305 -0.1054 -0.1529 -0.0277
16874W        W33008  17.725  10.332   9.478  0.0508 -0.3149 -0.1259
16875W        W33009  10.318   5.060  12.808  0.1389 -0.0772  0.1876
16876W        W33010  17.750   5.073  13.951 -0.4438  0.0747 -0.2757
16877W        W33011  12.201   1.615  15.178 -0.2841 -0.0032 -0.0764
16878W        W33012   2.853   9.979  14.492 -0.3952  0.0342 -0.0187
16879W        W33013  17.483   4.480   1.528  0.0573  0.2731 -0.1229
16880W        W33014  12.259  16.556   1.077 -0.0606  0.2874 -0.0935
16881W        W33015   8.853   6.719  13.415  0.1139 -0.0249  0.0670
16882W        W33016   1.810   4.719   3.499  0.0723  0.1537 -0.2476
16883W        W33017   9.914   3.068  13.624 -0.0096 -0.1944 -0.0750
16884W        W33018  12.196  13.496  13.711 -0.0944  0.1909 -0.1631
16885W        W33019   5.254   6.851   3.331 -0.1915 -0.2545  0.0700
16886W        W33020  16.108  11.810   1.864 -0.1663  0.0486  0.2994
16887W        W33021   2.892   5.837   2.416 -0.1971 -0.1014 -0.2299
16888W        W33022   1.712   7.999  10.964  0.0074  0.0411 -0.0016
16889W        W33023   5.942  16.428  11.554 -0.0523  0.4282 -0.1222
16890W        W33024  10.120  13.978   1.497 -0.1318 -0.1563  0.0569
16891W        W33025   5.306   4.498   0.198 -0.0513 -0.1140 -0.1667
16892W        W33026  17.470   0.386   2.530 -0.0077 -0.0961  0.0604
16893W        W33027   8.149   3.960   5.329 -0.1308  0.1234 -0.1704
16894W        W33028   5.907   3.325  14.179  0.0628  0.0163 -0.1704
16895W        W33029   3.225  18.318   0.055 -0.0150  0.1524  0.1679
16896W        W33030   9.754  15.345   3.722  0.3751 -0.0888  0.1582
16897W        W33031  13.412  11.779  15.410 -0.0009 -0.0931 -0.1130
16898W        W33032  15.156  13.406   2.409  0.3255  0.3949 -0.2304
16899W        W33033  15.448  11.701  14.749  0.2596 -0.1031 -0.0809
16900W        W33034   7.187  13.430  10.974  0.0429  0.0061  0.0607
16901W        W33035  16.672   6.425  12.148  0.0067  0.0729 -0.0553
16902W        W33036   0.403  17.476  14.095 -0.0909 -0.0828 -0.0998
16903W        W33037  10.269  16.652  11.939  0.3298 -0.0556 -0.0059
16904W        W33038   2.743  18.260  15.898  0.1964  0.0641  0.0505
16905W        W33039   6.175  16.106  12.951  0.2363 -0.1070  0.0757
16906W        W33040  14.632   7.280   5.449 -0.0713 -0.2895  0.0863
16907W        W33041  10.742   1.691   3.240 -0.1397 -0.2397 -0.0216
16908W        W33042   9.651   6.450   3.026 -0.3146 -0.2976 -0.1059
16909W        W33043  16.864  10.449   2.522  0.4869 -0.2181  0.0994
16910W        W33044   0.622  16.755  12.818  0.0727  0.0510 -0.2009
16911W        W33045   5.118   3.683   2.313 -0.0289 -0.2910  0.3794
16912W        W33046   6.525   1.645   1.212 -0.2122 -0.0526  0.0734
16913W        W33047   9.025   3.582   0.315  0.1045 -0.1178  0.0181
16914W        W33048  13.070   1.266  14.815  0.0052 -0.0188  0.2389
16915W        W33049  14.658  16.409   1.149 -0.0952  0.3639 -0.3534
16916W        W33050   7.806   5.249   3.638  0.0513  0.4673  0.2416
16917W        W33051   4.570  15.348  13.356 -0.1079  0.3377 -0.0062
16918W        W33052  17.905   3.758  14.690 -0.0719  0.0192  0.1047
16919W        W33053   3.167  13.695  15.526 -0.0299 -0.0553  0.1002
16920W        W33054  18.397   2.287   1.011  0.0464 -0.1032 -0.0316
16921W        W33055   1.208   6.245   5.070 -0.1269 -0.0453 -0.1933
16922W        W33056  18.432   3.287   5.173 -0.2762  0.1933 -0.0369
16923W        W33057   7.068   2.274   1.705 -0.0486  0.0155 -0.0325
16924W        W33058  16.101   4.756  15.496 -0.0342  0.1222 -0.1450
16925W        W33059   6.434   7.635   3.151 -0.2144 -0.2474  0.1296
16926W        W33060   7.942  18.129  12.142 -0.1530  0.2005 -0.1628
16927W        W33061  10.895   0.658   5.307 -0.0754  0.0007 -0.3011
16928W        W33062  14.645   9.345  14.846 -0.0569 -0.1784  0.1314
16929W        W33063   0.576   4.497   2.280 -0.1341  0.0142  0.0581
16930W        W33064  14.320  13.115  11.198  0.1204 -0.1938  0.0344
16931W        W33065  13.920  10.644  14.988 -0.0249 -0.1358  0.1212
16932W        W33066   7.749   0.874  11.533 -0.1121 -0.3005 -0.2395
16933W        W33067  11.006   6.028   5.715  0.0205  0.0438  0.2905
16934W        W33068  10.845  17.498  14.427 -0.1720  0.5677 -0.3036
16935W        W33069   4.922  16.026   1.176 -0.1348  0.3419  0.4714
16936W        W33070  11.708   6.400   5.027 -0.1506  0.1501  0.0179
16937W        W33071  14.541   3.553   4.617 -0.0844 -0.0370  0.1560
16938W        W33072   9.914  16.944   0.155  0.0529  0.2267 -0.0104
16939W        W33073   2.904  12.836   2.488 -0.2075  0.0116  0.1357
16940W        W33074  12.057  10.019   4.276  0.0825 -0.1730 -0.0132
16941W        W33075  12.900   2.270  15.477 -0.3028  0.0482 -0.0533
16942W        W33076   2.619   3.717   0.391 -0.0129 -0.1351  0.0778
16943W        W33077   4.041  11.337  13.381 -0.1788 -0.1720 -0.0550
16944W        W33078  12.559   8.890  11.518 -0.1435 -0.2097 -0.0632
16945W        W33079  18.067   0.944   2.324 -0.2452 -0.1024 -0.0288
16946W        W33080  16.565  15.887   3.761 -0.1367  0.1789  0.0762
16947W        W33081  14.178   9.748   4.884 -0.0419  0.1607  0.1267
16948W        W33082  17.099  15.126   0.460  0.0729 -0.2680  0.3269
16949W        W33083   3.742  18.206  14.564  0.2121 -0.3354 -0.2068
16950W        W33084  14.463  16.879  12.002 -0.0641 -0.2690  0.0123
16951W        W33085   2.422   1.533  11.278  0.1762 -0.2170  0.2246
16952W        W33086   1.496  13.209  13.007 -0.1691 -0.2185 -0.0198
16953W        W33087  14.906  15.429   5.524 -0.3127 -0.1332 -0.4729
16954W        W33088  16.046   2.969  13.938  0.1590  0.1510 -0.1807
16955W        W33089   7.417   5.978   3.174 -0.0293 -0.1695  0.1608
16956W        W33090   0.833  14.086   2.075  0.0950 -0.1077 -0.3131
16957W        W33091  17.694  14.414   4.908  0.0802 -0.0129 -0.1647
16958W        W33092   8.629   1.227   3.728  0.0930  0.0391  0.1143
16959W        W33093   7.390  14.576  12.549 -0.0662 -0.0242  0.2232
16960W        W33094   5.705   1.273  11.175 -0.0783  0.0058  0.1153
16961W        W33095  14.427  11.083  14.005  0.4013  0.2973  0.2722
16962W        W33096   7.834  15.407   3.230  0.0963  0.1686 -0.0964
16963W        W33097   3.426   5.977   2.342 -0.1166  0.0939 -0.1842
16964W        W33098   2.948   5.890  12.288 -0.2296 -0.0802 -0.1141
16965W        W33099   9.465  16.311   1.668  0.0508 -0.1148  0.1607
16966W        W33100  18.018   3.948   2.327  0.3125 -0.0412  0.0985
16967W        W33101   1.980   0.807   3.558 -0.1319 -0.0048 -0.1652
16968W        W33102  12.427   2.550   0.722  0.0610  0.0533  0.0055
16969W        W33103   7.140   2.277   0.626  0.4159  0.0140 -0.2369
16970W        W33104  12.355   4.491   4.295 -0.0367  0.0855 -0.4198
16971W        W33105  15.023  15.623  12.713  0.0777 -0.0129 -0.0666
16972W        W33106   0.271  10.459  10.528 -0.0656 -0.0380  0.3511
16973W        W33107   0.229   1.910   4.278  0.0070  0.0283  0.0327
16974W        W33108   9.850  15.836   3.576 -0.5886 -0.0726 -0.0387
16975W        W33109   9.240  15.190   4.926  0.0404  0.1047  0.0412
16976W        W33110   3.452   8.388  14.052  0.2927  0.0658  0.1370
16977W        W33111  14.212  14.718  14.748 -0.0539  0.0092 -0.0555
16978W        W33112   9.118   1.924   0.576  0.1534  0.1004 -0.1854
16979W        W33113   5.561   1.309  12.599  0.1999  0.2536  0.0278
16980W        W33114  18.043   0.835   2.831 -0.0576  0.1964  0.0464
16981W        W33115   6.926   7.584   2.585  0.0626 -0.4007 -0.0870
16982W        W33116   5.975  17.754  11.763  0.1560 -0.0463  0.1483
16983W        W33117   0.782  11.952  14.931  0.3028  0.0002  0.2411
16984W        W33118  15.684  16.471  12.927 -0.0434  0.1687  0.1859
16985W        W33119  17.783   3.493  11.770  0.3001  0.1224  0.0598
16986W        W33120  12.051  14.519   5.423 -0.1178  0.1233 -0.0902
16987W        W33121  14.889   7.783   3.139  0.1666  0.1804 -0.0789
16988W        W33122  12.327  11.930  15.132 -0.2384  0.0305  0.0440
16989W        W33123  13.034   4.199  13.001 -0.5047 -0.1551 -0.0305
16990W        W33124   3.309  16.486   4.377 -0.0328  0.1582  0.0081
16991W        W33125   4.134  15.284  15.615  0.1640  0.2660 -0.1620
16992W        W33126  15.145  12.237   1.186  0.1342  0.2417  0.1098
16993W        W33127  12.567   7.121  14.810 -0.0208  0.0673  0.3100
16994W        W33128   3.583  15.584   4.613 -0.1245  0.0664  0.0082
16995W        W33129  15.026   9.705   3.844 -0.0254 -0.1988  0.0228
16996W        W33130  18.381   6.999   0.257 -0.1060  0.0441 -0.2490
16997W        W33131  13.620   9.739   1.935  0.4934  0.2148 -0.1633
16998W        W33132  15.219   5.850   4.612  0.0033  0.2281 -0.1933
16999W        W33133   1.608   2.372  15.743 -0.3250 -0.3234  0.0294
17000W        W33134  13.498   7.865  12.125 -0.1654  0.0108  0.1570
17001W        W33135  18.302   1.085  14.815 -0.1378 -0.2231 -0.5067
17002W        W33136  13.180  13.111  12.021 -0.1419 -0.2034  0.2190
17003W        W33137  14.887   5.136   1.920 -0.2610 -0.3054  0.0279
17004W        W33138  11.406   3.656   0.720  0.0276  0.2109 -0.0617
17005W        W33139  13.417   3.101   1.634  0.2467  0.2862  0.1827
17006W        W33140  17.129  10.050   2.335 -0.3792 -0.3510  0.0262
17007W        W33141   0.130  12.974   5.162  0.2024  0.0724  0.1935
17008W        W33142   7.707   3.850  11.799 -0.3773  0.1584 -0.1576
17009W        W33143  15.786  16.662   3.297 -0.0499 -0.0237 -0.1581
17010W        W33144  14.188  17.208   2.300  0.1004  0.2690  0.0051
17011W        W33145  16.417   5.734   2.116  0.0616 -0.3812  0.0143
17012W        W33146   9.542   7.362  11.603  0.0831 -0.1756  0.1167
17013W        W33147   0.020   4.393   1.761  0.0404 -0.0339  0.0153
17014W        W33148   7.460  17.973  11.897 -0.1104  0.1158 -0.0515
17015W        W33149  11.349  17.561  15.143 -0.0977 -0.1100 -0.0807
17016W        W33150   9.402  12.212  12.707 -0.2068  0.0449  0.1858
17017W        W33151   0.785   9.380   0.428 -0.1259 -0.1657 -0.3461
17018W        W33152   4.606  14.637   4.091  0.0347  0.2349  0.0145
17019W        W33153   3.087   4.231   5.586 -0.0433  0.1903 -0.1321
17020W        W33154   8.534  10.423   5.053 -0.4455 -0.5947 -0.0258
17021W        W33155  14.846  12.954  12.022  0.1544 -0.2321 -0.2798
17022W        W33156   2.886  13.257  15.719  0.0290  0.0496  0.1056
17023W        W33157  13.023   6.403   1.379 -0.2767  0.0699  0.1891
17024W        W33158  10.051  11.765   5.244 -0.1309 -0.2304 -0.0567
17025W        W33159  16.153  13.695   4.685  0.1100 -0.1241  0.2800
17026W        W33160   1.568   7.569  13.376  0.1107  0.1453  0.2263
17027W        W33161   5.115   1.494  12.899  0.0410  0.1607  0.0588
17028W        W33162   7.001   0.223  15.037  0.5213  0.1784  0.0689
17029W        W33163  16.655  17.561   1.054  0.0380  0.1783 -0.1013
17030W        W33164   6.093   2.729  11.241 -0.0226  0.1130  0.1483
17031W        W33165  10.039  16.254  12.091 -0.2704  0.2065 -0.1336
17032W        W33166   9.307   6.444  14.247 -0.0063  0.1183  0.2484
17033W        W33167  16.449   6.832  15.671  0.5216  0.1021 -0.0784
17034W        W33168   9.248   3.038  14.296 -0.4438 -0.4373 -0.0045
17035W        W33169   8.927   9.177  14.777 -0.1182  0.0481  0.2131
17036W        W33170   7.375   8.481   4.085 -0.1749  0.0096 -0.0320
17037W        W33171  17.713   2.949   2.617 -0.2063  0.2319  0.1512
17038W        W33172   3.923   4.258  12.502  0.1778 -0.0352 -0.1632
17039W        W33173  10.895  15.753  15.121 -0.1019  0.0853 -0.1368
17040W        W33174  14.620   3.390  12.873  0.0834  0.1500  0.2019
17041W        W33175   1.428   1.529  14.682  0.1015 -0.2025 -0.0315
17042W        W33176   8.940  11.579   1.131 -0.1781 -0.3248  0.1306
17043W        W33177   5.005   7.629  13.219  0.3069 -0.0258  0.1205
17044W        W33178  15.786  15.505  14.785 -0.0687  0.1961 -0.0222
17045W        W33179  13.929   0.003   3.014 -0.0114  0.0175 -0.1543
17046W        W33180   0.788   3.009   0.893 -0.1372 -0.3345  0.0111
17047W        W33181   3.487   0.113  12.334  0.1733 -0.0527  0.1380
17048W        W33182  18.424  11.164   1.298 -0.1384  0.0299 -0.1750
17049W        W33183   7.314   1.814  11.356 -0.0398  0.2449  0.0496
17050W        W33184  18.071   1.233   0.575  0.1524 -0.1102  0.1486
17051W        W33185   2.776   4.580  12.537  0.1887  0.3790 -0.2848
17052W        W33186  13.713  15.311   1.915  0.1399  0.0879  0.1994
17053W        W33187   7.277  11.812   4.441  0.1465  0.1555 -0.4007
17054W        W33188  16.783   3.664  13.952  0.0618  0.0835 -0.1828
17055W        W33189   3.400   2.430  15.338  0.0152 -0.2151 -0.0907
17056W        W33190  12.949  10.285   0.652 -0.0754  0.0114 -0.1336
17057W        W33191  14.006  16.128   1.860  0.0847  0.1139  0.0249
17058W        W33192   9.636  17.451  12.472 -0.0012  0.0195 -0.0167
17059W        W33193   8.887   4.828  11.270  0.3497 -0.0172  0.1551
17060W        W33194  18.350  16.014  11.599 -0.1779  0.4886 -0.0338
17061W        W33195  16.220   0.859   4.728 -0.0729  0.3071 -0.2948
17062W        W33196  17.581   1.841   4.658  0.0824  0.1929 -0.0838
17063W        W33197  15.623   3.768   4.570  0.0388 -0.0952  0.0378
17064W        W33198   7.461   9.445  15.267 -0.1184  0.0231 -0.0274
17065W        W33199   4.117  14.028  14.537 -0.1228  0.2884  0.0812
17066W        W33200  12.977  11.890  11.679 -0.0105 -0.1069  0.0855
17067W        W33201   1.176   9.484  14.976  0.4371  0.0842  0.0454
17068W        W33202   6.934  10.947   5.251  0.0416  0.2207 -0.2970
17069W        W33203  17.628   4.686  11.436  0.3470  0.2708  0.2795
17070W        W33204   7.671  15.991  14.926 -0.2581 -0.3154 -0.0410
17071W        W33205   5.313   8.448  13.078  0.0365  0.0503  0.0474
17072W        W33206   3.605   7.227   4.528 -0.0895 -0.1314 -0.0073
17073W        W33207  10.560  15.895  11.378  0.0503 -0.0603 -0.3901
17074W        W33208   2.288  11.009  12.272 -0.1165  0.0635 -0.2452
17075W        W33209   2.499   7.475  12.977 -0.0440 -0.2222 -0.0090
17076W        W33210   7.796   5.058   4.088 -0.0677  0.0631  0.2470
17077W        W33211   0.624  17.194   4.205  0.1989 -0.1149 -0.1351
17078W        W33212   6.289  12.136   6.100 -0.0584 -0.1016  0.3529
17079W        W33213   2.097   9.073  14.175 -0.1042  0.3030 -0.1903
17080W        W33214   9.671  14.751  14.596  0.1516  0.3267  0.0698
17081W        W33215   5.874  13.725  11.149 -0.0379 -0.1762 -0.0882
17082W        W33216  15.766   1.192   4.585  0.5179 -0.0013  0.2976
17083W        W33217  17.412   2.992   1.827  0.0826 -0.0744 -0.2075
17084W        W33218   3.808   1.716  15.274 -0.0593  0.1355  0.0941
17085W        W33219   3.888  18.351   5.082 -0.4193 -0.1070 -0.0156
17086W        W33220   0.659   3.497   1.046  0.0858 -0.5037 -0.2680
17087W        W33221   2.089  11.601   0.372  0.0380 -0.0426 -0.1605
17088W        W33222   2.534  16.608  15.401 -0.1939 -0.2342  0.1089
17089W        W33223  17.029   6.180   1.491  0.1439 -0.4357  0.1220
17090W        W33224   5.336   6.577  12.256 -0.1263  0.0193 -0.0364
17091W        W33225  14.844  17.652  11.877  0.3886  0.1488 -0.2493
17092W        W33226   5.247   2.249   1.034  0.1026 -0.1257 -0.0732
17093W        W33227  10.787   0.560   2.919 -0.0566 -0.0374 -0.0824
17094W        W33228  11.204   6.922  11.351  0.2944  0.1128  0.1250
17095W        W33229  17.017   7.334  13.336 -0.1306 -0.0139  0.0716
17096W        W33230  14.538  18.186  12.100  0.1396  0.2078  0.1224
17097W        W33231  17.289   2.898   0.192 -0.2342 -0.0914  0.1124
17098W        W33232   7.525   4.478  15.089  0.0472  0.1302  0.0200
17099W        W33233   7.585   5.307   2.437 -0.1315  0.0652 -0.1954
17100W        W33234  12.851   8.720   5.736 -0.1681 -0.2559  0.4639
17101W        W33235   7.893  15.326   5.055 -0.0406  0.1929  0.1133
17102W        W33236   5.358  14.321   4.749  0.0037 -0.0328  0.0480
17103W        W33237   8.445  12.394   0.954 -0.0406 -0.1766  0.0759
17104W        W33238  16.090   5.308  15.445  0.0689  0.1437  0.4000
17105W        W33239   9.024   8.286  15.146 -0.3542  0.1452  0.0508
17106W        W33240   3.411   5.913   4.958  0.0850 -0.0135 -0.1096
17107W        W33241   6.966  18.412   5.047 -0.1403 -0.2404 -0.0774
17108W        W33242  15.412   2.311   0.120 -0.1135  0.0755  0.0244
17109W        W33243   4.008  10.040  10.477 -0.0119 -0.0194  0.1459
17110W        W33244  15.891  11.403  12.344 -0.1019  0.2130  0.2457
17111W        W33245   0.375   7.129   0.785 -0.0338 -0.2756  0.0112
17112W        W33246  14.074   7.266  14.400  0.0208 -0.0852  0.1781
17113W        W33247  12.879  10.138   0.128 -0.0294  0.0288  0.1921
17114W        W33248  15.857  15.119   2.701  0.0861 -0.2875 -0.0719
17115W        W33249   5.371   6.712  14.850 -0.1087  0.2428  0.0373
17116W        W33250   7.642   5.822  11.142 -0.2051  0.1340 -0.2544
17117W        W33251  16.773   3.052  11.920 -0.3307  0.0128  0.0602
17118W        W33252   0.503   1.677  13.879 -0.0151 -0.2357  0.0328
17119W        W33253  16.029   6.945  14.821 -0.0173 -0.0301 -0.1092
17120W        W33254  11.668  15.745   3.520  0.2001 -0.1210  0.2333
17121W        W33255  14.972  17.362   4.903  0.0605  0.1020 -0.1437
17122W        W33256   0.155   7.945  11.150  0.0274  0.1124  0.3974
17123W        W33257  13.927  10.884   2.856 -0.0247 -0.1022 -0.1740
17124W        W33258   1.295   8.992   4.425 -0.1049  0.0949  0.1373
17125W        W33259   8.564   5.498  12.063 -0.0101 -0.2169  0.1867
17126W        W33260  17.525  15.689  14.700 -0.0841 -0.0025 -0.0532
17127W        W33261  17.837  11.285  15.528 -0.1173 -0.1936 -0.1414
17128W        W33262   8.585  11.344   5.575  0.0374 -0.1476  0.0019
17129W        W33263  13.040   7.101  13.518 -0.2634 -0.0886 -0.1608
17130W        W33264  15.378   9.667  12.081  0.1448 -0.0862  0.0986
17131W        W33265  13.746  11.734  12.068  0.2813  0.1694  0.2070
17132W        W33266   5.416  15.597   2.108  0.1677  0.0539  0.0522
17133W        W33267  11.765   3.305   4.803  0.2093  0.0878  0.3577
17134W        W33268  11.174   8.227   2.948  0.2420 -0.0389  0.1742
17135W        W33269  11.941   7.429   5.181 -0.0111 -0.0566  0.0073
17136W        W33270  16.649  10.606   1.162  0.2303 -0.1639 -0.1857
17137W        W33271   3.167  17.627  11.426 -0.2332 -0.1521 -0.1063
17138W        W33272   3.390   4.664   3.967 -0.0152  0.0756  0.2038
17139W        W33273  15.473  14.806  14.340  0.3133 -0.2218  0.0816
17140W        W33274   0.438  12.991   4.405 -0.0722  0.0106  0.2059
17141W        W33275   1.131  14.301  11.238 -0.1472 -0.1852 -0.1623
17142W        W33276   8.938   8.764   4.447  0.0730  0.0491 -0.1658
17143W        W33277  17.773   7.588   4.752 -0.0647  0.1528  0.0922
17144W        W33278   6.825  16.834  12.575  0.0991  0.0866 -0.2097
17145W        W33279  13.331   0.578  15.340 -0.1105  0.2157 -0.4511
17146W        W33280   2.074   8.643  11.008 -0.3475  0.2921  0.1215
17147W        W33281  13.755   4.236  14.139  0.1417  0.3420  0.0711
17148W        W33282   6.150   0.219   1.539  0.1404  0.3952 -0.1536
17149W        W33283  13.574   0.648   3.482 -0.0675  0.0227  0.0553
17150W        W33284  12.002   1.901  15.537 -0.0140  0.1098 -0.1699
17151W        W33285  17.750   2.170  11.454  0.1466 -0.1626  0.0986
17152W        W33286  14.213  16.168   5.993 -0.1231  0.3784  0.0809
17153W        W33287   2.381   2.035  13.262 -0.3881 -0.4205  0.0181
17154W        W33288   8.382  14.826   2.021  0.1958  0.0134  0.1549
17155W        W33289  18.222  17.272  11.531 -0.1588 -0.0653 -0.1664
17156W        W33290  11.702  14.502   3.466 -0.1166  0.2105 -0.0526
17157W        W33291   3.861  15.579  12.686  0.1726 -0.0085 -0.5097
17158W        W33292   8.401  13.677  12.725 -0.1121  0.2154 -0.1676
17159W        W33293   0.267  12.885  15.899  0.2795 -0.2193 -0.2308
17160W        W33294   4.036  18.437   3.072  0.1164 -0.0604 -0.1534
17161W        W33295   5.370  14.773  14.522  0.1402 -0.0177 -0.0077
17162W        W33296  12.370   4.226   0.805 -0.0931 -0.1913  0.1551
17163W        W33297   5.470   7.490   5.150 -0.0811  0.0208  0.0915
17164W        W33298   0.818   1.979   2.979  0.0230 -0.0124  0.2821
17165W        W33299   5.497   1.681  14.821 -0.1298  0.1721 -0.0228
17166W        W33300  12.522  18.064   4.123  0.0336  0.1413  0.1846
17167W        W33301  11.263  10.329   3.853  0.3997  0.2423 -0.2183
17168W        W33302  12.833  14.920  11.946  0.0260 -0.0240  0.3467
17169W        W33303   6.016   4.758   4.765 -0.0585  0.2289  0.0457
17170W        W33304  10.116   7.300  15.785 -0.2637  0.2714  0.0337
17171W        W33305  11.958   5.679  11.099 -0.1667  0.0693  0.2709
17172W        W33306   1.908  13.609  13.347 -0.1460  0.0953 -0.1109
17173W        W33307  11.229   1.193   1.945 -0.3170  0.1518 -0.0508
17174W        W33308   5.757  17.926   2.835  0.1126 -0.2473 -0.3146
17175W        W33309  13.972   4.492  15.621 -0.0642 -0.2231  0.0825
17176W        W33310   2.579   0.775   0.756 -0.1568 -0.1231 -0.1889
17177W        W33311  10.627   2.655   4.604  0.1273  0.0931  0.1781
17178W        W33312  16.651  12.665   5.404  0.2788  0.2710 -0.2773
17179W        W33313  13.504   7.952   4.758 -0.2955  0.0581 -0.3623
17180W        W33314  14.737  12.476  13.320  0.0755 -0.0790  0.0571
17181W        W33315  13.765  14.334   4.872 -0.1155 -0.1631  0.2009
17182W        W33316  13.316   1.674   2.645  0.0639 -0.1852 -0.1328
17183W        W33317   4.248  13.624   0.359 -0.2273 -0.0819  0.0227
17184W        W33318  10.212  14.790   2.104 -0.0175  0.0167 -0.1400
17185W        W33319  12.579   8.546   2.042  0.2159  0.1576 -0.0458
17186W        W33320   8.774  14.843  12.893  0.0964 -0.0394  0.1023
17187W        W33321   5.314   2.696   5.748 -0.3124  0.0462 -0.0899
17188W        W33322  15.610  12.598  13.800 -0.1990 -0.0987 -0.0528
17189W        W33323   4.095   1.581  13.085 -0.0888 -0.1306  0.0920
17190W        W33324  18.103  14.642   0.590  0.0792  0.2123 -0.1222
17191W        W33325  15.650   4.780  11.005 -0.3019 -0.2785  0.3090
17192W        W33326  10.492  15.277   3.047 -0.2982 -0.0572  0.0493
17193W        W33327   2.138   9.253   2.593 -0.0931  0.2036 -0.1379
17194W        W33328  16.910  10.766  13.312  0.1554 -0.3554 -0.1320
17195W        W33329   8.196  14.293  11.613 -0.1914  0.0739 -0.2743
17196W        W33330   0.904   0.742  12.665  0.0639  0.0616 -0.1217
17197W        W33331  12.692  15.100  11.158 -0.1568 -0.0731 -0.3335
17198W        W33332   7.188   5.491  11.227  0.0564  0.3339 -0.2265
17199W        W33333  11.304  12.086   2.605  0.1992 -0.0619 -0.1631
17200W        W33334  16.746  10.932  13.740 -0.3110  0.1679 -0.1852
17201W        W33335   2.846  10.694   2.175  0.0695  0.1882 -0.0454
17202W        W33336  12.964   3.104  12.968 -0.0587 -0.1152  0.0877
17203W        W33337   9.234   6.521   0.159  0.0357  0.0430  0.1645
17204W        W33338   4.672   4.279   1.326  0.1445 -0.0351  0.1962
17205W        W33339  18.124   9.620   3.669  0.3230  0.1601  0.0446
17206W        W33340  18.076   8.398   4.338  0.1703 -0.1771  0.2653
17207W        W33341   3.596   8.311   3.524  0.0816  0.3249  0.0694
17208W        W33342   5.636   7.021   4.344 -0.0613  0.2012  0.0943
17209W        W33343  13.336   0.253  11.358  0.1826 -0.0572 -0.2614
17210W        W33344   1.603   4.413   3.964 -0.0113  0.2046  0.0886
17211W        W33345   0.764   3.587  11.442 -0.0922  0.1698  0.2106
17212W        W33346   6.648  13.534   4.022 -0.2610  0.0766  0.0724
17213W        W33347   1.200  17.859  12.774 -0.0837  0.0338 -0.1709
17214W        W33348   6.456   9.140  13.057 -0.2797 -0.0625 -0.0948
17215W        W33349   2.157  12.606   1.951 -0.1248  0.3709 -0.0466
17216W        W33350   5.689   2.563  13.831  0.2169 -0.2800  0.0123
17217W        W33351   4.772   6.853  11.039 -0.1460  0.2588  0.0455
17218W        W33352   6.084   1.711   0.911  0.1804 -0.1365 -0.0024
17219W        W33353   3.351   3.494  13.411  0.0786  0.0324  0.0204
17220W        W33354   0.401  11.485   2.031 -0.2359 -0.1566  0.1692
17221W        W33355   5.691   8.359   3.119  0.3053  0.1269 -0.0299
17222W        W33356   3.826  15.021   2.752  0.0923 -0.0620  0.0600
17223W        W33357  17.959   5.967   1.532  0.2198  0.0441 -0.0451
17224W        W33358   7.183   2.409   3.158 -0.3257 -0.3167 -0.0541
17225W        W33359   5.106   7.170  15.736 -0.2106  0.0266 -0.0093
17226W        W33360  12.807  14.106  12.315  0.0925  0.0381  0.2323
17227W        W33361  10.328   0.356  14.479 -0.3264 -0.0563 -0.2589
17228W        W33362   1.602  16.364  14.080 -0.0458 -0.0340 -0.0063
17229W        W33363  11.945   6.934  14.104  0.2379 -0.2838  0.3643
17230W        W33364  11.132   4.454   3.544  0.2150  0.0320  0.1935
17231W        W33365  15.908   9.266   5.190  0.1454 -0.2026 -0.1955
17232W        W33366  12.436   8.559   2.678  0.0295  0.1721 -0.2216
17233W        W33367  11.055   2.995   6.009 -0.4836 -0.2523 -0.0798
17234W        W33368   2.953   9.469  14.384 -0.0524  0.0276  0.1270
17235W        W33369  14.222   1.120  11.055 -0.0631  0.1266 -0.0819
17236W        W33370   1.035   4.810   4.643 -0.1481 -0.2545  0.0516
17237W        W33371  12.644  14.339  12.752 -0.0748  0.2128 -0.0260
17238W        W33372  15.692   1.250  14.770  0.1792  0.3205  0.1517
17239W        W33373  17.499   7.178   4.742  0.0187 -0.1119  0.0512
17240W        W33374   2.539   1.540  12.621  0.1038  0.1743  0.1537
17241W        W33375   1.225  17.031  13.385 -0.0696 -0.0220 -0.0937
17242W        W33376   8.766   6.572  14.343 -0.0423 -0.0497 -0.0733
17243W        W33377   9.144   0.630  12.807 -0.0955  0.2142  0.0209
17244W        W33378   9.115   3.753   9.888 -0.0802  0.0055 -0.3308
17245W        W33379   6.883   3.587   2.412  0.0475 -0.1244 -0.1517
17246W        W33380   3.834  10.341   1.382 -0.2510 -0.0712 -0.2166
17247W        W33381   2.566  16.480  11.413 -0.1641  0.0368 -0.1033
17248W        W33382  14.727   5.267  13.656  0.1252 -0.1996  0.0129
17249W        W33383   2.373   9.722  14.428  0.2332  0.1430 -0.0092
17250W        W33384  10.967  12.801  12.727  0.1084  0.2168 -0.0027
17251W        W33385  14.760  17.630   1.436 -0.1201  0.0070 -0.0297
17252W        W33386  16.712  16.991   1.225 -0.4687 -0.1356  0.2289
17253W        W33387   2.747   0.290   3.517  0.1837 -0.0759 -0.0313
17254W        W33388   5.805   1.368   4.200 -0.2119  0.2121  0.1361
17255W        W33389   9.023   0.396   3.893 -0.0850 -0.0383 -0.0275
17256W        W33390   6.608  18.020   5.649 -0.3132  0.0436 -0.0209
17257W        W33391   2.302  16.717   4.660 -0.0513  0.1312 -0.2951
17258W        W33392  11.116   4.888   3.305  0.1666  0.3253 -0.0742
17259W        W33393   7.424  11.937   5.329 -0.1798 -0.2983  0.2341
17260W        W33394   5.371   9.985  14.690  0.1236 -0.0105 -0.1354
17261W        W33395  15.436  16.442  12.394  0.0544 -0.2511  0.1290
17262W        W33396   8.032   5.304  11.080  0.0256  0.2527  0.1356
17263W        W33397  14.740  11.275   1.932 -0.2048  0.1877 -0.0167
17264W        W33398   9.199  11.243  12.068  0.2112  0.0457  0.2186
17265W        W33399   0.752   4.856  12.897  0.0036 -0.3900  0.1248
17266W        W33400   9.810   4.978  13.905 -0.1109 -0.1167  0.0650
17267W        W33401  12.447   6.981  11.058 -0.0651  0.2105  0.1106
17268W        W33402  15.061   6.659  15.747 -0.0553 -0.2225 -0.0011
17269W        W33403  13.405   1.589   3.392 -0.4624  0.1366 -0.0585
17270W        W33404  16.500  15.768  13.568 -0.0033 -0.3050  0.2871
17271W        W33405   0.746   6.384  12.276  0.2084 -0.0539 -0.0676
17272W        W33406  12.605  15.441  12.100 -0.0104  0.1003  0.0364
17273W        W33407  11.792  11.415  13.982  0.0558 -0.0382  0.1212
17274W        W33408   5.053  12.802  14.216  0.3425 -0.3949  0.0071
17275W        W33409  18.160   3.474   3.602 -0.2190  0.2777 -0.2044
17276W        W33410   0.928   4.772  12.066  0.2536  0.0297 -0.0079
17277W        W33411   4.229  17.291   3.104 -0.0513  0.1306 -0.0620
17278W        W33412  13.955  11.491  15.706 -0.4612  0.1509 -0.0704
17279W        W33413  10.135  10.373  12.230  0.5513 -0.0557  0.1231
17280W        W33414   5.416  17.163   4.699 -0.0958  0.2206  0.0523
17281W        W33415   6.557   6.255  15.456 -0.0372  0.1515 -0.3344
17282W        W33416   9.008   2.976   5.236 -0.0770  0.1120  0.3122
17283W        W33417   4.567  13.826  13.651  0.1876  0.0443 -0.0318
17284W        W33418   7.975  15.705   4.634 -0.0189  0.0689 -0.1844
17285W        W33419   8.253   5.171  11.970  0.1211  0.0731  0.1378
17286W        W33420   5.682   5.026   3.907  0.0159 -0.2657  0.0867
17287W        W33421   3.649  10.136  12.433 -0.1331  0.2305  0.2427
17288W        W33422   2.110  18.099   2.848  0.2712  0.2320 -0.0576
17289W        W33423  16.191   2.758   3.058 -0.1298  0.0573  0.2077
17290W        W33424  10.526  16.384   2.455 -0.1045 -0.1282  0.0736
17291W        W33425  17.063   8.472   0.723 -0.0265 -0.2271 -0.1898
17292W        W33426  14.190   7.359   5.796 -0.1482  0.1621  0.3234
17293W        W33427  17.304   4.375  12.948  0.0923  0.0843  0.0513
17294W        W33428   5.647  14.162   0.148 -0.0480  0.0933  0.3148
17295W        W33429   2.406   1.556   5.479  0.1244  0.0498 -0.0474
17296W        W33430   0.018  13.362   2.759  0.0410 -0.1978  0.2273
17297W        W33431   1.399   5.569   2.433 -0.1469  0.2359  0.4235
17298W        W33432   8.130  17.647   4.858  0.0564 -0.0362 -0.2419
17299W        W33433   5.148  13.994   1.444 -0.0320  0.0268 -0.0344
17300W        W33434   4.640  12.568   3.748  0.1711 -0.0541  0.2115
17301W        W33435   8.318  16.958  15.143  0.1666  0.3115  0.0821
17302W        W33436   1.016  12.446   3.510  0.0361  0.0651  0.1429
17303W        W33437   0.789  16.185   0.115  0.0397  0.1176 -0.1716
17304W        W33438   8.723   3.969  14.930 -0.3979 -0.0778  0.1376
17305W        W33439  12.936   3.559  12.076 -0.1819  0.0920  0.1441
17306W        W33440   8.244   9.160  12.524  0.0407 -0.2250 -0.0009
17307W        W33441   9.016   8.547   0.496  0.0957 -0.2679 -0.1574
17308W        W33442   0.192   1.171  13.502  0.1985  0.1554  0.1169
17309W        W33443   3.606   5.553   3.561  0.1997 -0.1886 -0.1486
17310W        W33444   1.142  13.707  14.684  0.1477  0.1086  0.0422
17311W        W33445   5.668   2.028  13.694 -0.0236  0.1993 -0.0861
17312W        W33446  16.990   6.107   5.153 -0.2276  0.0116 -0.1015
17313W        W33447   7.355  17.121   0.674 -0.2156 -0.0507 -0.0151
17314W        W33448   6.992   9.871   2.873  0.3250  0.3008  0.2413
17315W        W33449   2.635  10.691  13.127  0.0243 -0.0950  0.2184
17316W        W33450  16.252  11.006   0.390  0.1135  0.0371  0.3079
17317W        W33451   4.134   1.295  14.708 -0.1442 -0.1322 -0.0182
17318W        W33452  16.345  13.811  14.410  0.0854  0.0637 -0.0537
17319W        W33453   2.135   6.060   2.801  0.0467 -0.0496 -0.0669
17320W        W33454  11.411  16.053  12.602 -0.0585 -0.2505  0.1676
17321W        W33455   1.759   3.487  12.440  0.1006  0.1975 -0.2579
17322W        W33456   1.063   1.145   4.714 -0.1313 -0.1387 -0.1254
17323W        W33457   7.301   5.593   1.135 -0.0330 -0.1815  0.0040
17324W        W33458   2.923  12.484   2.860  0.1959 -0.1550 -0.2898
17325W        W33459  10.253   0.368  13.566 -0.2317  0.3640 -0.1366
17326W        W33460   6.812   3.195   0.806 -0.2471 -0.1999  0.0359
17327W        W33461  11.790  17.210  14.907 -0.1162  0.0787  0.1459
17328W        W33462  12.093  13.549   1.443 -0.0231  0.0160 -0.1695
17329W        W33463   0.319   1.439   3.618 -0.1894  0.0220  0.3056
17330W        W33464   6.124   1.331  12.685  0.0344  0.1828 -0.4428
17331W        W33465   5.474   2.386   2.640 -0.0959 -0.2045  0.0082
17332W        W33466   4.119   6.980  12.469  0.1641 -0.0489  0.1679
17333W        W33467  12.686   5.567   1.634 -0.2053 -0.0381  0.2560
17334W        W33468   9.153   2.004  13.967  0.0644 -0.2355  0.2158
17335W        W33469  12.236   3.185  14.586 -0.1137 -0.1212  0.1958
17336W        W33470  16.584   5.640   4.031 -0.3844 -0.0796  0.1674
17337W        W33471   4.452   7.374  14.483  0.3950 -0.2621  0.0878
17338W        W33472  14.683   1.703  12.634  0.1473  0.1274  0.0212
17339W        W33473   7.762  16.336   3.523 -0.0495 -0.1326 -0.2236
17340W        W33474   0.219  14.155  14.981  0.2452  0.1087 -0.0806
17341W        W33475  15.247  13.631  13.139  0.1949 -0.1371  0.2669
17342W        W33476   7.430  16.810  12.029 -0.1278 -0.1066  0.5301
17343W        W33477   4.202  12.900  15.157 -0.1490  0.0170 -0.0478
17344W        W33478   0.902  16.491  13.137  0.0112  0.1571 -0.1279
17345W        W33479   8.068  14.858   3.394 -0.0349  0.0674 -0.0120
17346W        W33480  11.117  14.707   0.339 -0.0140 -0.3452  0.1699
17347W        W33481   4.124   3.383  15.562  0.0741 -0.1592 -0.0459
17348W        W33482   0.047  10.775  14.118 -0.1315  0.0716 -0.0955
17349W        W33483  13.152   8.667  13.109 -0.0347  0.0261 -0.0740
17350W        W33484  10.945   4.639  15.818  0.0234  0.2047  0.0143
17351W        W33485   8.765   5.675   1.131 -0.1043 -0.1481  0.2059
17352W        W33486   1.328  10.789  10.999  0.0562  0.0865 -0.1115
17353W        W33487  12.287  10.284  13.854 -0.1541  0.2178 -0.1592
17354W        W33488   8.569  16.504   1.854 -0.1025 -0.1057 -0.0474
17355W        W33489  16.255   9.386  11.833  0.0484 -0.1555  0.1588
17356W        W33490   6.150   2.823   3.319  0.1809  0.2135 -0.2046
17357W        W33491   5.370   1.809   2.268  0.1402  0.3222 -0.0420
17358W        W33492   5.099  14.450   4.223 -0.2006  0.6231 -0.0719
17359W        W33493   2.955  11.209  11.216  0.1094  0.0051  0.1107
17360W        W33494  13.778  14.753   0.277  0.1443 -0.4160  0.0323
17361W        W33495  13.493  13.575  10.840 -0.1176 -0.0888 -0.3328
17362W        W33496  10.599   4.237  15.695  0.0961  0.1121  0.1516
17363W        W33497  14.117  16.714   3.411 -0.1251 -0.1948  0.0419
17364W        W33498  15.560   5.070   2.901 -0.0906  0.2669 -0.0109
17365W        W33499   0.747  14.673   2.949  0.0506  0.0743 -0.3700
17366W        W33500  18.214   6.903   2.698 -0.3545 -0.0670 -0.0634
17367W        W33501  18.253  15.743   0.810  0.1622  0.0829 -0.0939
17368W        W33502  15.570   4.600  11.719 -0.0200 -0.1789  0.0332
17369W        W33503  16.376  14.590  12.323  0.2083  0.2360  0.0897
17370W        W33504  18.328   5.944  13.720 -0.1043 -0.0064 -0.0781
17371W        W33505   8.345   2.792  11.144  0.0160  0.1319  0.0302
17372W        W33506   7.134  15.326  12.876  0.0059  0.0011  0.2129
17373W        W33507   3.919  16.880   1.925  0.0391  0.1639  0.2225
17374W        W33508   5.623  13.999   5.110 -0.0655 -0.0355  0.1543
17375W        W33509   8.818  17.289   2.481 -0.0914 -0.0808  0.1344
17376W        W33510   8.338   8.084   0.483  0.1196  0.1375  0.5118
17377W        W33511   5.211   9.648  13.238  0.0728  0.1174 -0.0718
17378W        W33512   7.773   9.560   3.551 -0.2124  0.0830  0.1036
17379W        W33513   0.339  13.609  11.326  0.1795  0.1163 -0.1543
17380W        W33514   6.990   5.983   0.434 -0.1128 -0.1539  0.1777
17381W        W33515  11.669  12.452   2.422  0.0169  0.2134 -0.0005
17382W        W33516   3.687  12.642   1.724 -0.1859 -0.1027 -0.1690
17383W        W33517  10.020   0.435   4.405 -0.1415  0.1335  0.1521
17384W        W33518  16.211  12.632  11.389 -0.2062  0.0196  0.2465
17385W        W33519  11.024   8.485   1.384  0.0261 -0.3359  0.1608
17386W        W33520   4.710   7.998   9.644 -0.0603 -0.2107  0.0217
17387W        W33521   9.449   7.707  12.788  0.3279 -0.0379 -0.1766
17388W        W33522  16.773  13.141  13.344  0.0186 -0.0319  0.2173
17389W        W33523   5.844  13.215   0.079 -0.1466 -0.4361 -0.0154
17390W        W33524   0.923   6.758  13.989 -0.0819  0.0128  0.1225
17391W        W33525   8.040  12.483   5.128  0.5392  0.1683  0.1425
17392W        W33526   0.658  13.815   2.446 -0.1001  0.2838  0.0155
17393W        W33527   6.859  13.554   3.543  0.0778  0.0609  0.2654
17394W        W33528  16.290  14.297  13.557 -0.1232  0.2416 -0.0747
17395W        W33529   0.221   6.862   1.755 -0.1730 -0.0601  0.1905
17396W        W33530   0.268  18.356   4.045  0.0768 -0.0485  0.0746
17397W        W33531  11.831  17.470  11.227 -0.1722 -0.1906  0.1346
17398W        W33532   0.388   8.103   3.006 -0.0481 -0.1551 -0.0881
17399W        W33533  16.257  16.657   0.388 -0.0050  0.1737  0.0955
17400W        W33534  13.531   9.116  13.995 -0.2569  0.1133  0.0796
17401W        W33535   7.088   1.912   3.911 -0.2929  0.2654 -0.2602
17402W        W33536  11.329  17.967   4.128  0.1533 -0.2851 -0.2404
17403W        W33537  11.084   9.995  11.289 -0.1705  0.1014  0.2471
17404W        W33538   8.089   3.769  14.431  0.1629  0.0895  0.3304
17405W        W33539   1.656   9.392  14.102 -0.1622  0.2972 -0.2721
17406W        W33540  11.638  13.940  11.567  0.0170 -0.0530 -0.1005
17407W        W33541   4.663  16.350  12.867  0.1912 -0.0291  0.2793
17408W        W33542  12.129   2.542   1.730 -0.0926 -0.2544  0.0656
17409W        W33543  14.452   9.975  11.220  0.0948  0.0180 -0.1202
17410W        W33544   4.624   7.620   9.961 -0.1200 -0.1229  0.5226
17411W        W33545  14.109  17.600   4.834 -0.2235  0.1162  0.2304
17412W        W33546  11.999  15.678   0.716  0.2231 -0.1210 -0.0943
17413W        W33547  18.082   6.069  11.070  0.3082 -0.0622  0.0319
17414W        W33548  11.448  14.127   4.121 -0.0732 -0.1243 -0.1256
17415W        W33549   3.066   1.812   1.426 -0.1428  0.1190  0.0762
17416W        W33550   0.110  16.478  11.774 -0.1732  0.0850  0.0504
17417W        W33551  14.965  16.173  15.218 -0.0387 -0.0299  0.1732
17418W        W33552   7.396   8.598   3.572 -0.1079  0.3624 -0.0100
17419W        W33553   2.669  13.726  15.589  0.0116  0.0766 -0.5602
17420W        W33554  15.278   1.684   0.670 -0.1043 -0.0390 -0.0826
17421W        W33555  10.997  16.512   3.043  0.0762 -0.1554  0.0083
17422W        W33556   9.112  14.692   5.027 -0.2082 -0.0315  0.2065
17423W        W33557   1.356  14.013   1.964 -0.0344 -0.0797 -0.1528
17424W        W33558  16.714   2.333  14.758  0.1043 -0.0261 -0.0733
17425W        W33559   5.459   4.530   3.333 -0.2279  0.4297  0.0556
17426W        W33560   0.765  13.453   5.025 -0.0335 -0.0418  0.1488
17427W        W33561   9.954   6.836  12.417 -0.0255  0.3865  0.0151
17428W        W33562  16.038   0.187   1.225 -0.0795 -0.1187  0.1755
17429W        W33563  16.014  11.047   1.383  0.2117 -0.0407 -0.3143
17430W        W33564  15.469  17.504  10.498  0.1823  0.0633  0.0935
17431W        W33565   3.277   5.456   3.123 -0.0965 -0.2546 -0.0609
17432W        W33566  11.803   8.636  10.445 -0.0499  0.4153 -0.1502
17433W        W33567  13.512   4.980   4.673 -0.0710 -0.2217  0.0780
17434W        W33568   4.399   2.779   4.365  0.0569 -0.3734 -0.2133
17435W        W33569  17.691  14.308  13.756 -0.1271 -0.1458  0.1430
17436W        W33570   6.306   5.963  10.941  0.4207  0.3713  0.1148
17437W        W33571   3.104  11.006   1.845 -0.1491  0.0059  0.3279
17438W        W33572   0.202  10.587  13.651 -0.0955 -0.0971 -0.1899
17439W        W33573   7.282   0.403  11.696  0.0331 -0.0648 -0.0782
17440W        W33574   7.415  12.703   0.940 -0.0257  0.0648 -0.0053
17441W        W33575   1.209   1.493  13.186  0.0232  0.2966  0.3047
17442W        W33576   5.063  15.668  13.891 -0.0923 -0.0351 -0.1102
17443W        W33577   8.597   3.803   5.108 -0.0622 -0.1248 -0.1839
17444W        W33578  13.661  15.466   4.205  0.1064 -0.1851  0.1407
17445W        W33579   6.471   5.659  14.085  0.0560 -0.2462  0.2168
17446W        W33580  13.464  17.588   4.339  0.1781 -0.0567 -0.0922
17447W        W33581  13.815   1.158  14.242  0.0623 -0.3283  0.1955
17448W        W33582   5.826   8.010   0.834  0.1244  0.1737  0.0411
17449W        W33583   8.048   0.140   3.006 -0.2346  0.1297  0.1680
17450W        W33584   8.228  10.309   5.478  0.1344  0.2601 -0.0563
17451W        W33585   9.324  16.891   0.732  0.1005  0.0599 -0.0498
17452W        W33586   2.137   1.195  15.232  0.2282  0.2367 -0.3191
17453W        W33587  10.999   7.598   1.825  0.0937  0.0690  0.3377
17454W        W33588  15.533  17.207   1.367  0.0922  0.4396  0.1072
17455W        W33589   6.921  11.209  14.695 -0.0652 -0.3704  0.2127
17456W        W33590  12.849   8.896  13.424  0.0703 -0.2967 -0.0275
17457W        W33591   9.711   7.559   0.009  0.1991 -0.1518 -0.0846
17458W        W33592  18.275  16.619  11.445 -0.1264  0.3278  0.3104
17459W        W33593  11.886   5.486   4.831  0.0999  0.0755  0.0129
17460W        W33594  13.234   8.131  10.999  0.2177 -0.1889 -0.0151
17461W        W33595   3.771   6.080  14.438 -0.0486  0.0167  0.0377
17462W        W33596   9.220   1.867   1.243  0.0319  0.1327 -0.0305
17463W        W33597   4.502   1.337   1.257 -0.3082  0.2445  0.2749
17464W        W33598  16.200   5.789  13.095  0.1682 -0.0372 -0.0665
17465W        W33599   9.319  14.656   5.466  0.0111 -0.2042 -0.0620
17466W        W33600  11.356   3.109  15.517  0.0089  0.1159  0.2016
17467W        W33601  17.125  12.378   1.921  0.1119  0.1011  0.1535
17468W        W33602  11.466   4.526   1.155 -0.0033  0.2181  0.1070
17469W        W33603  17.246   9.456  15.517  0.1149  0.0097  0.0164
17470W        W33604  11.216   9.751  15.429  0.3197  0.1113  0.1330
17471W        W33605   6.411   4.124  15.654 -0.0757  0.2997  0.0634
17472W        W33606  18.397  14.859   0.984 -0.4886  0.1588  0.1054
17473W        W33607  16.650   8.475   4.587  0.1749 -0.0098  0.0611
17474W        W33608  10.322   6.698  11.359  0.1121  0.2544  0.0138
17475W        W33609   3.199  13.547   4.541  0.0198  0.0667 -0.2183
17476W        W33610  15.919  10.823   4.754  0.1029 -0.1870  0.0176
17477W        W33611   6.247   2.343  11.986 -0.1256  0.0825  0.0779
17478W        W33612   9.169  17.249  12.522 -0.1554  0.1030 -0.0369
17479W        W33613  17.605  11.996  13.356  0.0973 -0.0258 -0.1390
17480W        W33614   8.142   3.233  10.999 -0.0964 -0.2253  0.1583
17481W        W33615   1.684   3.360  13.744 -0.1776 -0.0247  0.2026
17482W        W33616   8.142   1.612  14.607  0.4986  0.1012 -0.0690
17483W        W33617   1.719   2.965  13.250  0.1827  0.0907  0.0526
17484W        W33618  12.196   9.456   3.428  0.3359 -0.1214 -0.2842
17485W        W33619   1.466  16.351   4.735  0.0460 -0.0551  0.0664
17486W        W33620  16.540   1.145   5.130  0.1303 -0.1955  0.0419
17487W        W33621  17.382   6.518   2.876  0.0040 -0.0643  0.2171
17488W        W33622  12.156   7.326   1.202 -0.0331 -0.3228  0.0038
17489W        W33623  13.925  12.459   1.569  0.0894 -0.2854 -0.4291
17490W        W33624   3.377   5.074   0.135 -0.0271  0.0415 -0.2167
17491W        W33625  15.310  12.969   2.358  0.0945 -0.1107 -0.2681
17492W        W33626   5.947   2.910   3.775  0.1560 -0.1843 -0.0446
17493W        W33627  18.053   5.753   2.790  0.1086  0.2518  0.0687
17494W        W33628  11.349  11.879  14.637  0.0380  0.1173  0.2667
17495W        W33629   4.680   2.665  14.000 -0.1928 -0.0102 -0.2470
17496W        W33630   4.109   1.175  12.284 -0.1499 -0.2765 -0.1197
17497W        W33631  12.956  17.807   5.787 -0.1361  0.3644 -0.1441
17498W        W33632   6.465  11.248  12.673  0.0065 -0.0981 -0.1528
17499W        W33633  18.024   4.004  13.345 -0.2466  0.1031 -0.0515
17500W        W33634   3.933  13.051   1.990  0.0098 -0.0487  0.0707
17501W        W33635   7.205  10.835  14.799  0.1614 -0.0894  0.2976
17502W        W33636  12.861  15.548  10.919 -0.1369 -0.0978 -0.1011
17503W        W33637  14.253   5.587   5.423  0.1151 -0.2413  0.1366
17504W        W33638   9.815  14.414  12.512 -0.0202 -0.0042 -0.2165
17505W        W33639   9.102   0.494  13.719 -0.2398 -0.2699  0.0283
17506W        W33640   9.926  12.231  11.411 -0.1116  0.0477 -0.1954
17507W        W33641   3.742   2.342  11.540 -0.2108  0.0110  0.1522
17508W        W33642   4.508  13.337   3.407 -0.1100 -0.2540 -0.2022
17509W        W33643  17.578  13.712   0.073  0.3120  0.0175 -0.1104
17510W        W33644  12.422   1.198   0.051  0.1312  0.0536 -0.3156
17511W        W33645  13.523   7.501  13.561 -0.0123 -0.1515  0.1105
17512W        W33646   9.687  15.509   3.173  0.1819  0.0613 -0.2207
17513W        W33647  16.830   7.105   2.584  0.1503  0.4310  0.1775
17514W        W33648   2.016  17.716   5.017 -0.2372  0.0835  0.0901
17515W        W33649   1.570   8.054  13.480  0.1338 -0.1198  0.0749
17516W        W33650   0.749   7.658  13.566  0.0870  0.0653  0.0668
17517W        W33651   9.729  18.264  10.417 -0.2049  0.0980  0.1491
17518W        W33652  13.767   7.728   5.670 -0.2285 -0.1036 -0.0435
17519W        W33653   0.220   3.416  14.918  0.3287 -0.0669 -0.0847
17520W        W33654   3.175  17.426  13.918  0.2252 -0.1105  0.2026
17521W        W33655   0.643   8.663   5.168 -0.1295  0.1370 -0.1153
17522W        W33656  14.474  14.518   2.950  0.2239  0.2537  0.0002
17523W        W33657  13.876   4.616   4.615  0.0921 -0.3320 -0.1141
17524W        W33658   8.641   4.361   1.250  0.1889  0.3290  0.1734
17525W        W33659  12.756  16.448   1.262 -0.0428  0.0035  0.2950
17526W        W33660   5.901   4.864  13.085 -0.1628  0.3638  0.0393
17527W        W33661  13.624   2.474   0.229 -0.1728 -0.1278  0.1020
17528W        W33662   6.071  11.958   3.583  0.0961  0.1302  0.1865
17529W        W33663   1.877   8.874   0.426  0.2103 -0.2355 -0.2059
17530W        W33664   5.039   3.830   5.027 -0.3268  0.1802  0.2403
17531W        W33665  12.497   0.189  11.350  0.0125  0.1998  0.0999
17532W        W33666   0.951   6.543   9.349 -0.0339  0.1410 -0.4903
17533W        W33667   2.507   6.252   2.503  0.2224  0.1015  0.0886
17534W        W33668  16.495   0.468   4.485 -0.4309  0.2348  0.0105
17535W        W33669   6.706   6.635   3.035  0.0629 -0.1082 -0.1559
17536W        W33670   8.377  12.159   5.395 -0.0720  0.1809 -0.0315
17537W        W33671  11.145   5.865  13.154 -0.1582  0.2055 -0.3180
17538W        W33672   4.331  14.991   4.592  0.0241 -0.0094  0.0618
17539W        W33673  16.631   7.221  15.444 -0.0212  0.0108 -0.1510
17540W        W33674  18.403  11.797  13.431 -0.1756  0.0303 -0.0219
17541W        W33675  15.950  17.223   4.403 -0.0465  0.2069  0.1610
17542W        W33676  13.749   3.987  13.168  0.1271  0.0884  0.2914
17543W        W33677   8.213  17.522  14.431  0.4001 -0.0582  0.0135
17544W        W33678   4.114  11.856  11.283  0.3377  0.2077  0.1494
17545W        W33679   9.762   0.542  12.829 -0.1796 -0.0524  0.0484
17546W        W33680  13.078  15.481   4.213 -0.1225  0.2468  0.0470
17547W        W33681   8.422   4.022   2.126 -0.0306  0.1424  0.0166
17548W        W33682  15.823   0.422   2.038 -0.2079 -0.3716  0.1546
17549W        W33683  15.111   0.908   0.042  0.0418  0.3718 -0.0043
17550W        W33684  13.951   6.935   5.994  0.0396  0.1070  0.0160
17551W        W33685  13.814   6.428   6.127 -0.1126 -0.4410 -0.4132
17552W        W33686   3.021   1.408   2.432 -0.1261 -0.1382  0.0423
17553W        W33687   1.291   9.630  15.795 -0.3424  0.0548  0.1358
17554W        W33688   8.972  11.439   4.450  0.0880  0.1835 -0.0080
17555W        W33689   4.899  16.249   0.073 -0.0004  0.1870 -0.1654
17556W        W33690  16.523  12.521   0.596 -0.0161 -0.2926 -0.0375
17557W        W33691   2.877  12.242   0.422 -0.1152 -0.1014 -0.2916
17558W        W33692   3.552  12.061   0.003 -0.1046  0.3653 -0.4307
17559W        W33693  16.189   1.368  13.733  0.2930  0.2366  0.1248
17560W        W33694  14.907   9.789  11.301  0.1464  0.0183  0.0232
17561W        W33695   7.250   1.159   0.199  0.1966 -0.1667 -0.1131
17562W        W33696   9.596  13.308  11.420  0.0776  0.1637 -0.0535
17563W        W33697  16.763   1.341  11.819 -0.0384  0.2103  0.1018
17564W        W33698   4.723  17.754  15.698 -0.0504  0.1259  0.1288
17565W        W33699   9.756  16.751  13.214 -0.2099  0.1803  0.0131
17566W        W33700   4.359   9.091  15.106 -0.1449  0.3050  0.1066
17567W        W33701  15.534   3.599  15.419 -0.2367  0.0076 -0.0862
17568W        W33702  11.800   3.062  12.573  0.0547  0.3980  0.0334
17569W        W33703  11.461  11.661  15.064 -0.1160  0.0752 -0.0995
17570W        W33704  12.268   7.251  14.421 -0.0256  0.2919  0.0046
17571W        W33705  14.437  11.797   2.018 -0.0088  0.1993  0.1405
17572W        W33706   4.615   0.288   6.187  0.1641  0.1353  0.0897
17573W        W33707   9.188   6.147  14.638  0.0924 -0.1025 -0.0859
17574W        W33708  14.447  12.566   0.552  0.0670  0.0848 -0.0897
17575W        W33709   5.406   7.864  13.350  0.1310  0.1813 -0.1600
17576W        W33710  16.733  12.457  11.331 -0.1671  0.2447 -0.1509
17577W        W33711  16.742   3.725   4.491 -0.0758  0.1270 -0.3597
17578W        W33712  18.149   5.684  11.955 -0.0320 -0.1602 -0.1622
17579W        W33713  13.385   2.184   3.312 -0.1787  0.1222  0.2062
17580W        W33714   0.556  10.197  15.896  0.3590  0.0739  0.0461
17581W        W33715   2.560   1.109  11.484 -0.0714  0.2243 -0.1207
17582W        W33716  12.897   9.311   1.176  0.1708  0.0344  0.1571
17583W        W33717  15.371  17.299  13.715  0.0458 -0.2491 -0.1368
17584W        W33718   5.002  15.081  15.859  0.0139 -0.3050  0.0044
17585W        W33719   0.298   6.699  11.442  0.0733 -0.5115  0.0492
17586W        W33720  15.998   3.950   1.351 -0.0563 -0.2794  0.1123
17587W        W33721  14.401  10.814   2.514  0.0602 -0.0387  0.0403
17588W        W33722   6.191   6.929   1.476  0.2512 -0.1652  0.5322
17589W        W33723   9.831   9.134   4.570  0.3011  0.1811 -0.0897
17590W        W33724  13.217   9.693   3.418  0.0152 -0.4091 -0.1783
17591W        W33725   3.814   4.372  10.930  0.0048 -0.0856  0.0999
17592W        W33726  13.643   7.095   4.684 -0.2622 -0.1908  0.0283
17593W        W33727  14.192  13.508  14.016 -0.0387 -0.2187 -0.3320
17594W        W33728  10.300   3.659   1.380 -0.0188  0.2707 -0.1059
17595W        W33729   2.305  10.755   1.983 -0.0318 -0.0431 -0.0419
17596W        W33730   2.750  10.036  12.074 -0.0147 -0.1100 -0.2410
17597W        W33731  12.935   2.862  15.024  0.1618 -0.1388 -0.0711
17598W        W33732   6.304   5.143  11.413  0.2015  0.1829  0.0127
17599W        W33733   6.843   6.681  11.080  0.1444  0.0412 -0.0828
17600W        W33734   8.683   0.876  14.892  0.3597  0.1511  0.0375
17601W        W33735   2.811   7.404  13.711 -0.4017 -0.2539  0.1134
17602W        W33736  11.696  13.436  13.970 -0.0090 -0.1265 -0.2848
17603W        W33737   0.293   3.727  11.629  0.4526 -0.2615 -0.3465
17604W        W33738   2.741  10.749   0.260  0.1191  0.0296  0.3547
17605W        W33739   8.622   0.075   4.498  0.0056 -0.0862 -0.1800
17606W        W33740   6.185   0.929  11.907 -0.3917 -0.2418  0.2402
17607W        W33741   6.244   1.121   2.950 -0.1490  0.2139 -0.1202
17608W        W33742   8.977   1.478  11.123  0.0093  0.0104  0.0518
17609W        W33743   1.660   6.511   1.839 -0.1600  0.0417 -0.3636
17610W        W33744  13.494  13.339  12.347  0.0051  0.0878 -0.1726
17611W        W33745  12.369   5.416   3.522 -0.1065 -0.1407 -0.0400
17612W        W33746   2.622  14.924  15.367  0.0723  0.1777 -0.2394
17613W        W33747   3.958  11.938   2.615  0.2844 -0.1859  0.1059
17614W        W33748  10.860   9.758   0.750 -0.2217 -0.0471 -0.0496
17615W        W33749   9.521   9.839   0.926  0.0485  0.0287  0.2422
17616W        W33750  15.958   3.084  14.920 -0.1271  0.2989 -0.2234
17617W        W33751  15.598   4.834  15.345 -0.2586  0.2316 -0.0642
17618W        W33752  16.070  10.837  11.607  0.1173  0.1144  0.1714
17619W        W33753   4.776  15.917  12.586  0.0493 -0.0903 -0.0034
17620W        W33754  10.046  10.940   2.381  0.2126  0.3606 -0.1244
17621W        W33755  12.998  15.905   5.871  0.0131 -0.0345  0.2187
17622W        W33756   7.784   9.916  13.798 -0.0381  0.0838  0.0217
17623W        W33757   1.353   0.183  13.409 -0.2830 -0.0432 -0.1219
17624W        W33758  16.770   0.823  14.807 -0.0086  0.3430 -0.1717
17625W        W33759  16.351  10.907  10.140  0.0599  0.2368 -0.0711
17626W        W33760   3.288   4.496  12.749  0.0385  0.0004 -0.0998
17627W        W33761  11.851  17.456   1.050  0.2378  0.2430 -0.2293
17628W        W33762  12.071   6.071   5.950 -0.0681 -0.2140  0.1763
17629W        W33763   7.623   1.110   1.300 -0.1349  0.2098 -0.0081
17630W        W33764   3.106   2.294   0.518 -0.0974 -0.0397 -0.0156
17631W        W33765  14.457  13.687  14.958 -0.0888 -0.1825  0.3249
17632W        W33766  10.475  17.675   1.813 -0.2669 -0.0682  0.1190
17633W        W33767  17.792  15.630   2.065  0.0374  0.0114  0.4330
17634W        W33768  17.784   5.767   4.383  0.0567 -0.0213 -0.1812
17635W        W33769   5.419   2.116  12.424 -0.2053  0.0017 -0.1238
17636W        W33770  17.701   8.565   0.819  0.0037 -0.1028  0.0802
17637W        W33771   1.239   7.026   5.911 -0.0940 -0.0708  0.1181
17638W        W33772   6.221   5.737   1.920 -0.0776  0.2496 -0.3003
17639W        W33773  17.381   6.413   4.372  0.0874  0.1628 -0.1763
17640W        W33774  16.855  12.347  11.786  0.2690  0.0048 -0.1129
17641W        W33775   2.523   4.170  10.707  0.2170  0.0572 -0.0438
17642W        W33776   9.021   7.923  14.475  0.1182  0.3592  0.1533
17643W        W33777   0.523   3.319  12.651  0.5403 -0.2807 -0.2620
17644W        W33778  13.455  15.786  11.975 -0.0464 -0.0087 -0.2060
17645W        W33779   1.733  12.986   1.742  0.2964  0.0376 -0.0121
17646W        W33780   1.340   5.560   9.583 -0.0115 -0.0409 -0.0172
17647W        W33781   7.434  12.029   3.852  0.1575 -0.0758 -0.1000
17648W        W33782   3.294  11.214  12.852  0.0315  0.3079 -0.1738
17649W        W33783   0.063  11.587   3.540 -0.2126  0.0193  0.0137
17650W        W33784  14.849  12.273  14.600 -0.0559  0.0066 -0.4736
17651W        W33785   3.264  10.804   0.269  0.0996 -0.0023  0.1802
17652W        W33786   8.797   4.137   0.600 -0.1030 -0.0312 -0.0336
17653W        W33787   1.015  12.261   2.999  0.2295 -0.0486  0.0048
17654W        W33788  18.231  15.112  11.809  0.2646  0.1091  0.2602
17655W        W33789   4.897   9.356  15.393  0.3456  0.1991  0.1573
17656W        W33790  12.036   3.346   1.753  0.0779  0.0014  0.0352
17657W        W33791   3.827   4.940   1.293 -0.0085  0.0620 -0.2005
17658W        W33792   5.221  16.965  14.628  0.1660  0.2951  0.2556
17659W        W33793  14.444  11.451   4.802  0.0507 -0.0431  0.1686
17660W        W33794   5.247  13.327  15.206  0.0642  0.0675  0.1524
17661W        W33795  14.450   7.843  13.251 -0.2074 -0.3087  0.4070
17662W        W33796   5.161  14.984   4.829  0.0587 -0.1792  0.0433
17663W        W33797  14.604  17.390   0.944 -0.2120 -0.1868 -0.0756
17664W        W33798   1.319  14.213   2.508 -0.0603 -0.0776  0.0695
17665W        W33799  14.521   1.509   4.769 -0.1945 -0.0700 -0.0666
17666W        W33800  13.535  17.776   2.404  0.0150  0.1374 -0.1331
17667W        W33801  17.833   3.086  13.604  0.0445  0.0659  0.1926
17668W        W33802   8.927  14.785   1.043 -0.0901 -0.2278 -0.1048
17669W        W33803  17.929  14.889   3.077 -0.0100  0.1575 -0.0276
17670W        W33804   2.947   0.794  10.198  0.0699 -0.0868  0.0856
17671W        W33805   9.964  13.375   0.815  0.4340  0.1372 -0.1108
17672W        W33806   1.606  14.208  10.212 -0.0747  0.0825  0.0497
17673W        W33807   8.552   0.718  15.338 -0.2003  0.0478 -0.0943
17674W        W33808   0.204  10.292   5.028  0.1369  0.0030  0.1066
17675W        W33809   9.839  12.394  12.484 -0.1115  0.2727 -0.1206
17676W        W33810   1.875   6.004  15.682 -0.1046  0.0056 -0.1021
17677W        W33811  17.661   2.495  13.708 -0.0507  0.2006  0.0454
17678W        W33812  17.369  14.709   4.600 -0.0777  0.2207  0.1218
17679W        W33813   9.619   2.343   1.136  0.0256  0.1768  0.2837
17680W        W33814  11.315   7.370   0.532  0.1094  0.1225  0.1677
17681W        W33815  14.927   1.135  15.406 -0.1204  0.0865  0.2653
17682W        W33816  13.393  18.372   2.949  0.3657 -0.1073  0.0826
17683W        W33817   0.908   9.183  13.556 -0.2316 -0.1195  0.4356
17684W        W33818   1.011  14.029   1.058 -0.3145  0.1582 -0.2437
17685W        W33819  11.452   5.203   3.998  0.1953  0.1657  0.1483
17686W        W33820  10.385  12.027  11.618  0.2153  0.1605 -0.1423
17687W        W33821   1.160   1.296   5.779 -0.2040 -0.0048 -0.0691
17688W        W33822   0.164   4.895   1.143 -0.1280  0.0149  0.1637
17689W        W33823  13.920   4.986  15.732 -0.0389  0.2397 -0.2416
17690W        W33824   3.763  10.610   0.991  0.2572  0.0768 -0.0576
17691W        W33825   3.875   8.684   0.091  0.0863 -0.1840 -0.0974
17692W        W33826  17.664  15.715   4.764  0.3897 -0.0635 -0.0065
17693W        W33827   0.371  10.185   1.677  0.1848  0.1693  0.2595
17694W        W33828   7.707  12.654   3.683 -0.0358  0.1565  0.1809
17695W        W33829  10.073  15.168   2.461 -0.1376  0.0205  0.3848
17696W        W33830   8.561   2.750   1.835  0.2812  0.0108 -0.1571
17697W        W33831   8.715   6.200  13.416 -0.0462  0.0182  0.2210
17698W        W33832   3.624  15.902   0.494  0.0027  0.2190 -0.1456
17699W        W33833   2.402  16.083   1.152 -0.1090  0.1131  0.2955
17700W        W33834   1.219  12.460   1.883 -0.1880 -0.0754 -0.0537
17701W        W33835  15.418   0.827  11.764 -0.0807 -0.1532  0.3010
17702W        W33836  14.407   2.501  11.456 -0.0279  0.1001 -0.1056
17703W        W33837   3.379   9.051  11.269  0.1544 -0.0325  0.0483
17704W        W33838  13.084  12.875   1.871 -0.2100 -0.1794 -0.1071
17705W        W33839  10.699  15.562   0.056  0.4293 -0.0223 -0.5094
17706W        W33840   1.262   7.016  10.139  0.3046 -0.2430  0.1464
17707W        W33841   1.063  12.019   1.004 -0.0501  0.0266 -0.1948
17708W        W33842   7.519   6.619   0.142 -0.0404 -0.1977  0.0593
17709W        W33843   1.715  12.307  13.166  0.0088 -0.0356 -0.2077
17710W        W33844   8.608  15.679   6.354 -0.2726  0.0078 -0.0730
17711W        W33845   5.213   7.249  12.856 -0.0682 -0.0318  0.1646
17712W        W33846   9.382  11.308   0.109 -0.0485  0.2147  0.3277
17713W        W33847   2.141   6.247  11.627 -0.0865 -0.2569  0.1011
17714W        W33848   0.234  15.992  12.849  0.1708  0.0717 -0.1861
17715W        W33849   7.982  17.781   5.475 -0.0538 -0.1077  0.0700
17716W        W33850  13.862   6.462   4.716 -0.0233 -0.0961 -0.2375
17717W        W33851  13.887   2.241   1.486  0.1848  0.1249  0.0438
17718W        W33852  16.942  11.504  13.257  0.1114 -0.1484 -0.0226
17719W        W33853   3.472  15.701  14.147  0.4085 -0.0200  0.0342
17720W        W33854  14.582  17.957   1.029  0.0724  0.1248  0.3916
17721W        W33855   0.223  16.683   3.263 -0.0286  0.1135  0.1255
17722W        W33856   0.492   1.617  15.639 -0.3246 -0.0294  0.0808
17723W        W33857   6.928   6.881   1.422  0.1527 -0.0314  0.0266
17724W        W33858   1.311   0.384   3.723  0.1789 -0.1880  0.0495
17725W        W33859  14.658   1.044  15.867 -0.0127 -0.1135 -0.0180
17726W        W33860   6.299  18.188  11.667 -0.3233  0.0243  0.1036
17727W        W33861  14.129   8.986  12.698  0.1391  0.1093  0.0378
17728W        W33862  13.317   5.450  13.351  0.1526  0.1075  0.0395
17729W        W33863   6.006   8.542   0.812 -0.1524  0.1342 -0.1926
17730W        W33864  16.510  11.807   4.127 -0.1561  0.1243 -0.2359
17731W        W33865   2.346  14.567  13.063  0.0507 -0.0305  0.1131
17732W        W33866  18.156  15.000  14.148  0.2125 -0.0948 -0.3676
17733W        W33867   7.550   0.470   2.459  0.2180 -0.0326 -0.3196
17734W        W33868  15.986  11.861  12.063  0.0632 -0.0889  0.1397
17735W        W33869  13.352  13.703  14.237  0.2120 -0.1797  0.0909
17736W        W33870   1.368  17.597   0.931  0.1286 -0.0932 -0.0816
17737W        W33871   6.429  12.379  14.680 -0.2288 -0.0054 -0.0994
17738W        W33872  15.285   3.291   3.736 -0.0775  0.2004  0.1771
17739W        W33873   0.665   0.764   1.205  0.0806 -0.0171 -0.3597
17740W        W33874   5.395  12.238   1.083 -0.1345 -0.0835 -0.0147
17741W        W33875  14.816  18.208   3.016 -0.1385  0.1609  0.0060
17742W        W33876   4.468  14.601  11.957  0.1589  0.0489  0.0677
17743W        W33877  12.392  14.451  15.551  0.2949  0.1291 -0.2128
17744W        W33878   4.605  11.935  14.692  0.1587 -0.1671 -0.2185
17745W        W33879   4.128  11.817  15.183  0.0325 -0.1362 -0.1567
17746W        W33880  16.984   6.974   5.211  0.1019 -0.0825  0.1485
17747W        W33881  11.299   0.427   1.477  0.0097  0.0920  0.1381
17748W        W33882  10.995   8.476  11.401  0.1148  0.0567 -0.4105
17749W        W33883   5.107  17.458   0.745  0.0373 -0.2194  0.3083
17750W        W33884   1.730  12.607  15.503 -0.1452  0.0421  0.2325
17751W        W33885   4.028   9.913  11.066 -0.2164 -0.0940 -0.3753
17752W        W33886  16.192  18.015   5.918 -0.0665  0.1226 -0.0908
17753W        W33887   9.759  16.314  14.730  0.0068 -0.1065  0.1570
17754W        W33888   4.248   4.793   3.533  0.2037  0.0293  0.2046
17755W        W33889  11.632   0.407  12.506 -0.0153  0.0529  0.1133
17756W        W33890   7.475   3.506   1.293  0.2333 -0.1623  0.0116
17757W        W33891  14.846   1.119   1.260 -0.0732  0.2401  0.3239
17758W        W33892   2.532   7.839   3.876 -0.0145 -0.1675  0.0401
17759W        W33893   4.753   6.613   3.239 -0.2370  0.0132 -0.1193
17760W        W33894   9.959  11.890  14.234 -0.1328  0.0528 -0.1808
17761W        W33895   7.017  17.536   2.259 -0.0890 -0.0909  0.2366
17762W        W33896  12.620  18.413  14.930 -0.0300 -0.0773 -0.0919
17763W        W33897   8.796   6.337   0.303 -0.1114  0.0048 -0.1221
17764W        W33898  10.693   0.994   5.634 -0.1326 -0.0387 -0.1387
17765W        W33899   6.670   1.514  11.899  0.0360  0.2904 -0.0120
17766W        W33900  13.029   2.420  12.263  0.1085  0.1748  0.0664
17767W        W33901   1.111  14.341   1.471  0.1502 -0.0098 -0.3204
17768W        W33902   7.305  13.404   3.726  0.0924  0.3377  0.0404
17769W        W33903  14.469   2.215   3.367 -0.1518  0.0394 -0.1512
17770W        W33904  15.213   4.312   3.261 -0.0295  0.0366 -0.1688
17771W        W33905  16.332  12.937  13.035 -0.2271  0.1760 -0.0870
17772W        W33906   9.328  10.461  13.786 -0.0954 -0.5768  0.0430
17773W        W33907  13.202  17.109   0.172  0.0302  0.0423 -0.0370
17774W        W33908  18.414  17.608  11.237 -0.3343 -0.1124  0.1229
17775W        W33909   5.930   7.321   0.140 -0.0625  0.0883 -0.2969
17776W        W33910   0.610   2.805   3.313  0.1749  0.0790 -0.0994
17777W        W33911   6.962  18.423  14.539 -0.2477 -0.3308  0.0195
17778W        W33912   0.862  17.207   5.013 -0.0097  0.0120 -0.0791
17779W        W33913   3.119   2.708   1.236  0.0928 -0.2104  0.1631
17780W        W33914  12.473  12.587  13.882  0.0555 -0.0102  0.0382
17781W        W33915   7.221   5.209   4.771  0.2741 -0.3245  0.0813
17782W        W33916  15.223  14.936  11.565 -0.0338 -0.2031 -0.0255
17783W        W33917   3.219  10.136   3.959 -0.1174 -0.2477  0.1106
17784W        W33918  17.479  13.934   4.866 -0.1951 -0.1332 -0.2506
17785W        W33919  15.725  16.372  14.834 -0.0476  0.1599  0.2417
17786W        W33920   4.317   8.963   2.739  0.5081 -0.2035 -0.0540
17787W        W33921  11.674  11.158   0.602 -0.1559 -0.0220 -0.0232
17788W        W33922   5.193   1.050  12.722  0.1889 -0.0546 -0.3048
17789W        W33923  13.856  14.939  14.449  0.1227 -0.0174 -0.0943
17790W        W33924  10.407   8.467   5.001  0.2481 -0.1135 -0.0759
17791W        W33925  14.436   9.058  12.290  0.0309 -0.2018 -0.0408
17792W        W33926   7.666   4.644   0.679 -0.0499 -0.1582 -0.4103
17793W        W33927   2.155   6.146  10.707  0.2302  0.0384 -0.0536
17794W        W33928   0.668   4.730  11.163  0.2728 -0.1383  0.2543
17795W        W33929   8.839  14.603   3.995 -0.1278  0.2872 -0.3280
17796W        W33930  16.701  13.989   1.647  0.2111 -0.1408 -0.2374
17797W        W33931  12.706   1.348   3.956  0.1990 -0.3000 -0.1257
17798W        W33932   6.470   3.192  12.539  0.0209  0.1831  0.1063
17799W        W33933   9.338  16.712   3.667  0.2538  0.0618 -0.2160
17800W        W33934  14.132   9.320   5.126  0.0682  0.0116 -0.1298
17801W        W33935   7.412   9.905  12.495  0.0980  0.1886 -0.0364
17802W        W33936  16.953   7.154  11.594  0.0965  0.1057 -0.0092
17803W        W33937  16.763   2.047   5.007  0.0685 -0.0035 -0.0982
17804W        W33938   2.071   7.924  15.648  0.1928  0.1304 -0.0736
17805W        W33939   2.614   7.453  15.039 -0.0561  0.2717 -0.2359
17806W        W33940  15.231   4.740  15.674 -0.1869 -0.0723 -0.0938
17807W        W33941   8.204   3.140   0.276 -0.0326  0.0361 -0.1405
17808W        W33942   7.836  13.842   4.567  0.1090 -0.0474 -0.0690
17809W        W33943   3.287  14.410  14.240 -0.3816 -0.1895 -0.0183
17810W        W33944   4.018  14.610  14.235 -0.0391  0.0861  0.1441
17811W        W33945   2.417   5.108  10.792 -0.0619 -0.2717 -0.0057
17812W        W33946   9.208  16.242  12.696  0.2547  0.1703 -0.2198
17813W        W33947   6.456   9.999   2.035 -0.1671  0.1338 -0.0636
17814W        W33948  15.445   8.105  10.039  0.0428  0.3425  0.1995
17815W        W33949  11.378  18.321  11.491  0.2170 -0.2049 -0.0299
17816W        W33950   4.635  14.083   5.078  0.1650 -0.3653 -0.1222
17817W        W33951   6.488   7.763   2.108 -0.1457  0.2218  0.0036
17818W        W33952  17.292   1.460  10.896  0.2248 -0.0724  0.1442
17819W        W33953   4.150  14.052   1.085 -0.2247 -0.0240  0.0356
17820W        W33954   0.772  14.504   4.411 -0.1016  0.1473 -0.1110
17821W        W33955  12.374   0.153   3.565  0.0178  0.0309  0.0730
17822W        W33956  16.568   9.153   2.535 -0.0647 -0.0242  0.4800
17823W        W33957   5.008  13.228   1.719  0.1311  0.2240  0.1852
17824W        W33958  13.455  18.231  13.225  0.3459  0.0423  0.1832
17825W        W33959  14.582  10.248   0.122  0.1145  0.2221  0.0479
17826W        W33960  15.820   0.521   3.809  0.0994 -0.0701  0.0286
17827W        W33961  17.276   0.174   0.901 -0.0131  0.1694  0.1614
17828W        W33962   0.048   5.538  15.144  0.1564 -0.0320 -0.1988
17829W        W33963  10.694   8.643  13.821 -0.4492 -0.1117 -0.0069
17830W        W33964  10.734   1.291   1.886  0.2432  0.1223 -0.1710
17831W        W33965  15.709   9.391  13.090  0.0855 -0.4636  0.0034
17832W        W33966  11.672   4.031  12.088 -0.0785  0.0683  0.2305
17833W        W33967  16.416  18.335   3.790 -0.3702 -0.0721 -0.1418
17834W        W33968   7.284   8.375   5.054  0.2602 -0.0535 -0.4962
17835W        W33969  11.584  10.618  12.712  0.0969  0.1194  0.2979
17836W        W33970   9.131  16.369   4.661  0.4732  0.0655  0.1565
17837W        W33971   8.501  12.254   6.329 -0.0060 -0.2546 -0.3724
17838W        W33972   5.994   3.932  12.934  0.2405  0.2533  0.2136
17839W        W33973  11.036   9.404  13.026  0.1523 -0.0193 -0.0447
17840W        W33974  15.554  11.198  14.954  0.0117 -0.3469 -0.2663
17841W        W33975   2.165  18.362  13.761 -0.0806 -0.2402 -0.0793
17842W        W33976  16.183  10.376   4.624 -0.0644 -0.0966  0.0466
17843W        W33977  14.209   1.187  11.576  0.4308 -0.0708 -0.0986
17844W        W33978  13.561   2.948   2.408 -0.1286 -0.0646 -0.1602
17845W        W33979  16.184   6.193  13.391  0.1517 -0.2645 -0.1277
17846W        W33980  14.427  12.410  13.709  0.0293 -0.2113 -0.0397
17847W        W33981   0.156   8.845   5.070 -0.3371 -0.2617  0.0286
17848W        W33982   9.637  18.436  14.561  0.3160  0.0640  0.2928
17849W        W33983   4.210  16.194  13.799 -0.0179 -0.0853  0.1791
17850W        W33984   4.237   2.523   0.577  0.0204 -0.3530 -0.2408
17851W        W33985   6.695   5.909  13.555 -0.0512 -0.4584  0.2195
17852W        W33986   3.888  17.018  14.449 -0.2508  0.2691 -0.1098
17853W        W33987  10.934  10.726  15.701  0.0736 -0.1743  0.3298
17854W        W33988   6.199  17.431   3.134 -0.3680  0.0660 -0.2166
17855W        W33989  11.293  14.570   4.200 -0.1440  0.1820  0.1269
17856W        W33990  16.936  13.835   4.881 -0.1261  0.1902  0.1136
17857W        W33991   7.283   7.015  14.684  0.0087 -0.3734  0.2579
17858W        W33992   8.791  15.488   4.159  0.1232 -0.4801 -0.2989
17859W        W33993   3.589   9.756  12.821  0.1129 -0.0230  0.0662
17860W        W33994  18.447   1.655   5.154 -0.1370  0.1326  0.1652
17861W        W33995   0.049  18.169   5.341  0.0889 -0.2622  0.1974
17862W        W33996  16.909  10.651  14.107  0.1499  0.0640 -0.1981
17863W        W33997   1.305  13.867   1.379  0.0855  0.1248 -0.1590
17864W        W33998   9.533  12.396  11.731 -0.0120 -0.1803 -0.1644
17865W        W33999   1.079  16.877   5.376  0.1191  0.3248  0.0557
17866W        W34000   9.224  10.029   5.789  0.0841  0.0204  0.0236
17867W        W34001   4.564  13.874  15.020  0.0245 -0.1701  0.0957
17868W        W34002  13.820  15.489   2.497  0.0387 -0.1234 -0.2272
17869W        W34003  17.136  13.881  13.942  0.1680  0.0095 -0.3060
17870W        W34004  13.255  12.638  13.291  0.1871 -0.0895 -0.1025
17871W        W34005   6.348   4.501   4.037 -0.0305  0.1694  0.1535
17872W        W34006  16.950  12.858   5.096  0.0601 -0.3177  0.3806
17873W        W34007  13.509   1.177  12.206  0.0879 -0.0950 -0.3032
17874W        W34008  10.704  14.467  15.380 -0.1753  0.3012  0.1053
17875W        W34009  17.955  15.248   2.605  0.0430 -0.2172  0.2400
17876W        W34010   1.411  11.889  13.224  0.3445 -0.0559 -0.1265
17877W        W34011  12.596   7.735  10.439 -0.2938 -0.2609  0.0066
17878W        W34012  17.111   2.095  14.889  0.0141  0.1599 -0.0656
17879W        W34013  16.741  14.543   0.761 -0.0387  0.0530  0.0245
17880W        W34014  10.277   2.870  15.168  0.1594 -0.0024 -0.0329
17881W        W34015  16.132  14.838  12.693  0.4682 -0.1314  0.1852
17882W        W34016   8.358  16.627  14.016  0.1144  0.0046  0.0288
17883W        W34017  10.481  15.666  14.388  0.2178  0.0133  0.0082
17884W        W34018  10.347   7.170   2.835  0.2002  0.3809 -0.1346
17885W        W34019   6.984  16.184  14.256 -0.0212 -0.2900  0.0559
17886W        W34020  16.478   1.228  14.776 -0.2759 -0.1719  0.1434
17887W        W34021  13.132   7.598  13.923 -0.4508  0.0367 -0.0998
17888W        W34022  11.824  14.101  13.143  0.0016  0.0216 -0.1299
17889W        W34023   8.654  14.060  11.520  0.0371  0.0987  0.2548
17890W        W34024   0.980   4.156  14.980 -0.0115 -0.2869  0.1446
17891W        W34025  10.616   6.152   3.035  0.0926 -0.2000  0.2049
17892W        W34026   5.977  14.700   3.189 -0.5500 -0.0505  0.2445
17893W        W34027   3.711  12.142   4.604  0.1576  0.0013  0.0287
17894W        W34028   8.887  15.115   5.235 -0.0024 -0.1158  0.1404
17895W        W34029  16.856  10.160   0.256 -0.1378  0.0255 -0.2643
17896W        W34030   4.667  17.130  13.284 -0.0557 -0.0146 -0.0368
17897W        W34031  10.559   4.967   0.115 -0.1103  0.2108  0.0576
17898W        W34032   5.863   7.868  14.152  0.1404  0.0460  0.0458
17899W        W34033   5.718   2.391   5.593 -0.0946  0.0954 -0.1697
17900W        W34034  17.662  17.940  15.656 -0.0803  0.0647 -0.0919
17901W        W34035   4.176  11.066  12.538  0.3108  0.0245  0.1000
17902W        W34036   2.136  16.424  15.641  0.1082 -0.2684  0.0229
17903W        W34037   4.244  13.211   0.631 -0.0372  0.0608  0.0388
17904W        W34038  12.556   9.300   2.645  0.0973  0.2693 -0.2223
17905W        W34039  11.390   6.313  13.156 -0.0444 -0.0235 -0.1237
17906W        W34040   3.578  16.962  12.715 -0.0034 -0.2867 -0.1145
17907W        W34041   4.021   2.918  15.668  0.0010  0.2222  0.1146
17908W        W34042  12.379  18.131   1.709 -0.2680 -0.1418 -0.0396
17909W        W34043   5.401   3.634  12.338 -0.0458 -0.1683  0.1064
17910W        W34044   8.529  10.863   1.549  0.0559 -0.0926 -0.0607
17911W        W34045   1.588   0.984   3.331  0.0410 -0.0207 -0.0269
17912W        W34046   0.925  17.702   3.320 -0.0212 -0.2335 -0.0680
17913W        W34047  17.993  10.536  10.721  0.2135 -0.2679 -0.0805
17914W        W34048  15.835   9.253   4.220  0.0570  0.0173  0.3719
17915W        W34049  13.798   8.641   4.136 -0.1943 -0.1664 -0.2686
17916W        W34050  14.397   4.206   3.915  0.0888  0.1405 -0.1238
17917W        W34051  13.383  17.199  15.559  0.2205  0.1074  0.0028
17918W        W34052   7.803   8.482  11.065  0.0582  0.3483 -0.0612
17919W        W34053   9.046   3.964   5.339  0.0548  0.0841  0.1775
17920W        W34054  16.544   3.817  13.426  0.0484  0.1835 -0.3298
17921W        W34055   6.902   7.301   3.722 -0.0937  0.0795 -0.1232
17922W        W34056  11.853   3.527  14.621  0.1756 -0.2873 -0.4025
17923W        W34057   7.766   5.456  14.945  0.0620 -0.0397 -0.0025
17924W        W34058   8.403   3.123   4.693 -0.0354  0.2250 -0.0336
17925W        W34059  16.543  11.599   2.025 -0.0152 -0.0632 -0.0409
17926W        W34060  10.810   9.284   0.977 -0.0229 -0.1708 -0.2461
17927W        W34061  17.511   6.234   0.657  0.1009  0.3462  0.0771
17928W        W34062  14.030   2.153  12.864 -0.0378 -0.3254 -0.1775
17929W        W34063  12.310  11.127  11.554  0.1707 -0.2505  0.0584
17930W        W34064  10.941   5.395   2.632 -0.0680 -0.0710 -0.2972
17931W        W34065  15.039  17.669  12.577  0.0394 -0.0583  0.2549
17932W        W34066   8.784   1.391   1.965  0.0715  0.0053 -0.1696
17933W        W34067  12.175   9.649  11.896  0.1379  0.0080 -0.1743
17934W        W34068  10.034   1.787   4.457 -0.0032  0.0251 -0.1130
17935W        W34069  15.642  16.982  14.581 -0.1664  0.3570  0.0925
17936W        W34070   7.442   5.912   4.999 -0.4046 -0.2936  0.1241
17937W        W34071  14.148  15.471   4.327  0.2493  0.1271 -0.1776
17938W        W34072   6.927   9.439   2.605 -0.1156  0.3011  0.2565
17939W        W34073  15.226   3.837   1.018 -0.2276 -0.2935 -0.1973
17940W        W34074  12.963   7.797   4.475 -0.1487  0.0836 -0.0394
17941W        W34075   0.333   3.759   3.076  0.1098 -0.1639 -0.0621
17942W        W34076  11.099  14.710  10.101  0.1918 -0.0237  0.2713
17943W        W34077   3.411   7.885   3.745  0.1513 -0.0630  0.2330
17944W        W34078  12.171  14.496  10.404 -0.1118  0.1263  0.2054
17945W        W34079  17.262  17.374   1.318  0.1301  0.3570 -0.0264
17946W        W34080   1.797   2.154  12.018 -0.1689 -0.1942  0.0256
17947W        W34081   4.738   3.738   5.440  0.0232 -0.3921 -0.0012
17948W        W34082  16.108  11.392  12.826  0.1099  0.0478  0.1249
17949W        W34083   8.586   9.475  14.810 -0.1426 -0.6711  0.1380
17950W        W34084  11.463  11.501   1.545 -0.0236  0.0440 -0.0785
17951W        W34085   4.597   8.465  15.253 -0.1489 -0.0781  0.0297
17952W        W34086   4.169   9.845  15.668  0.2843 -0.2750 -0.1720
17953W        W34087   2.897   3.340   2.414 -0.0038  0.0924 -0.1506
17954W        W34088   8.681   9.509  10.344  0.0281  0.0778 -0.2226
17955W        W34089   7.110   5.388  14.870 -0.0802 -0.0988  0.2681
17956W        W34090   1.040  11.701   4.615  0.2117 -0.3618  0.1769
17957W        W34091   9.838   3.140   0.212 -0.0414 -0.1562 -0.1046
17958W        W34092   7.196  10.681  15.297  0.1657 -0.1283 -0.2690
17959W        W34093   6.441   0.355  13.194  0.0003  0.1079 -0.2319
17960W        W34094  11.788   7.158   5.668 -0.2287  0.1457 -0.3199
17961W        W34095   3.874  12.276  11.964 -0.2156 -0.0050  0.0186
17962W        W34096   6.740   6.865  12.132 -0.0046  0.3240 -0.2882
17963W        W34097   9.491   0.998  13.600 -0.3704  0.1287 -0.1415
17964W        W34098   4.547  14.169  10.472  0.0308  0.2016  0.1478
17965W        W34099   2.379   0.823   2.385 -0.1558  0.0300  0.0404
17966W        W34100   5.255   0.417  15.634  0.0813  0.0107 -0.1108
17967W        W34101   4.088  11.462  13.900  0.4042  0.2031 -0.1656
17968W        W34102  10.019  16.292  13.094 -0.3808  0.2365  0.0038
17969W        W34103   8.163  12.585  15.442 -0.6420  0.1392  0.0568
17970W        W34104  13.858  10.360  11.733 -0.1139 -0.0154 -0.1359
17971W        W34105  11.163  15.835  11.944  0.4528 -0.4627 -0.0015
17972W        W34106  12.562  18.243  12.442 -0.0742  0.1308  0.0132
17973W        W34107   5.349  11.813  11.922 -0.0100  0.3157  0.1158
17974W        W34108   0.458   7.129   3.874 -0.2286 -0.0681  0.0708
17975W        W34109  13.904   8.619   2.310  0.0341  0.0274  0.1222
17976W        W34110   6.635  16.369  12.272  0.1078  0.2453  0.1283
17977W        W34111  12.526   5.176   0.319  0.1314 -0.2679 -0.0505
17978W        W34112   7.156  18.424   5.962 -0.1402 -0.2993 -0.0257
17979W        W34113  18.313  17.004   0.727 -0.2204  0.0238  0.5288
17980W        W34114   3.559   7.971  14.592  0.1045 -0.1563  0.1057
17981W        W34115   4.149   1.188  15.845 -0.2478  0.1113  0.1843
17982W        W34116   7.332   3.646  12.032  0.2545  0.0395 -0.1024
17983W        W34117   8.682  13.710   4.728 -0.0937  0.1382  0.2289
17984W        W34118   7.272  10.381   2.568  0.1300 -0.2389  0.2862
17985W        W34119   8.068   0.300   2.469 -0.3314  0.4701  0.2900
17986W        W34120   9.839  17.609  11.790  0.1074  0.0372  0.0038
17987W        W34121   0.933   8.075   4.640  0.1277  0.1529 -0.0812
17988W        W34122   0.742   8.514  15.545 -0.2204  0.1447  0.2104
17989W        W34123   8.170   8.923   3.759 -0.2780 -0.3115 -0.1842
17990W        W34124  13.045  16.985  10.764 -0.0562  0.1034  0.0780
17991W        W34125   3.584  10.313  12.987  0.0772  0.1058  0.2572
17992W        W34126   9.332  10.008   0.497 -0.1118 -0.4963  0.0548
17993W        W34127  14.355   2.141   0.827 -0.0253 -0.1970 -0.0342
17994W        W34128  13.460   4.772   0.065 -0.1082 -0.1186 -0.0676
17995W        W34129   9.824  13.791   1.109  0.3123 -0.2544  0.2822
17996W        W34130   5.842   1.630  14.461 -0.0147  0.3259 -0.1072
17997W        W34131  15.963   4.286   3.573 -0.0414 -0.2527  0.3818
17998W        W34132  12.937  10.273   2.872 -0.0866 -0.0325  0.1135
17999W        W34133  10.272  11.115  12.423 -0.0368  0.1601  0.3331
18000W        W34134  11.855  13.476   0.980 -0.1247 -0.1590 -0.3011
18001W        W34135  10.197   7.982   2.546 -0.1295 -0.2121  0.0246
18002W        W34136   1.060  17.739  14.988  0.2152 -0.0430 -0.3188
18003W        W34137  15.514   1.568  13.625 -0.4140  0.5579  0.0662
18004W        W34138   6.178   8.799  12.753  0.1629  0.0617  0.0945
18005W        W34139   0.963  14.136  14.398 -0.4984 -0.0462  0.3580
18006W        W34140  14.000   5.994   0.054  0.0150 -0.0367  0.3954
18007W        W34141  14.643   6.122  12.453  0.1279 -0.2387  0.0717
18008W        W34142  18.187  11.764   0.680 -0.3217 -0.2750 -0.0726
18009W        W34143  10.968   5.036   4.641  0.0909 -0.2401  0.0868
18010W        W34144   1.214   7.015   0.901 -0.0359  0.0004  0.2989
18011W        W34145  14.257  11.518   5.251  0.1678  0.2449 -0.0579
18012W        W34146  10.915   2.760   0.845 -0.0628  0.2211 -0.1195
18013W        W34147   1.490  17.548  14.793 -0.1164 -0.1525 -0.0265
18014W        W34148   3.082  14.941   9.866  0.0623 -0.2861  0.1248
18015W        W34149  17.370  11.796   2.254  0.3349 -0.2357  0.0729
18016W        W34150  12.281   2.078   0.943  0.1480  0.2093  0.0139
18017W        W34151  13.553  10.366   1.712  0.1661 -0.0333 -0.1246
18018W        W34152   1.109   8.064  11.775 -0.2248  0.1842  0.0359
18019W        W34153  17.126  17.844  12.471 -0.0747  0.1418  0.1070
18020W        W34154   4.707   7.893   0.732  0.1468  0.0270 -0.0905
18021W        W34155  16.475   4.004   4.830  0.1496  0.1042  0.0618
18022W        W34156  16.258   6.681   4.390 -0.1477  0.0125  0.0118
18023W        W34157  17.315   8.950   4.865  0.0882  0.0057  0.0225
18024W        W34158  18.194  18.149  14.375 -0.3265 -0.0499 -0.0747
18025W        W34159  15.744   7.369   5.409 -0.1150 -0.2003  0.0081
18026W        W34160  17.512   9.200  13.728  0.2505 -0.1527  0.2001
18027W        W34161   0.273   2.087   3.798  0.0356  0.1352  0.0842
18028W        W34162  18.183  10.298   4.755  0.0915 -0.1526  0.1014
18029W        W34163  17.456   1.788   1.837  0.1686 -0.0533 -0.1605
18030W        W34164   7.018   6.921  11.548  0.0945  0.2357 -0.0805
18031W        W34165   2.960  12.915  12.888  0.0340 -0.3396  0.0776
18032W        W34166  16.836  12.418  13.558 -0.2673  0.4356 -0.1314
18033W        W34167   8.925   5.792  11.874 -0.0566 -0.0985  0.0791
18034W        W34168   5.227   9.523   2.173  0.2023 -0.2446  0.1605
18035W        W34169  10.399  16.992  11.626 -0.1023 -0.0980 -0.0202
18036W        W34170   0.370  14.961  11.410  0.1537  0.0649  0.0538
18037W        W34171   0.468   9.920  15.502 -0.3203 -0.1259 -0.1369
18038W        W34172  17.817   3.443   2.652  0.1575  0.1088 -0.1923
18039W        W34173  16.747   4.594   0.479 -0.0608 -0.2289 -0.0194
18040W        W34174  17.588   5.082   2.512  0.0900  0.1094  0.1160
18041W        W34175   5.684  11.954  14.104  0.1643  0.1856 -0.3023
18042W        W34176   9.637  14.757  15.105  0.1611  0.0761 -0.0212
18043W        W34177   2.292   6.413   0.451 -0.1708  0.1475 -0.1647
18044W        W34178   8.956   4.189  14.538 -0.4419 -0.2102  0.4184
18045W        W34179   9.640  16.410   4.734  0.1706 -0.2177 -0.3196
18046W        W34180  15.374   5.202   2.024  0.1024  0.0354  0.2243
18047W        W34181  12.469  15.859  14.499  0.0858 -0.1705 -0.1101
18048W        W34182  12.505   9.025  14.208  0.1710  0.2122 -0.2160
18049W        W34183  10.313   7.129   1.479 -0.1755  0.0173  0.2966
18050W        W34184  18.163  15.446   5.534  0.2609  0.0890  0.3364
18051W        W34185  13.302   1.600  12.471 -0.0564  0.0347 -0.1175
18052W        W34186  10.571  15.954  14.796  0.4030  0.1750 -0.0365
18053W        W34187   6.272   0.399   4.337 -0.1203 -0.2324  0.0634
18054W        W34188   8.033   1.534  12.032 -0.0133 -0.0012  0.1466
18055W        W34189   9.479  10.893   1.869 -0.2807 -0.1154  0.2155
18056W        W34190  10.570   1.497  11.341  0.1577  0.1015  0.0245
18057W        W34191   4.598  13.119   4.402 -0.0822  0.1233  0.1591
18058W        W34192   5.764  10.608   3.136 -0.0852  0.0833  0.1158
18059W        W34193   8.668  15.860  12.183 -0.1564  0.1723 -0.0319
18060W        W34194  10.066  17.475  13.458  0.0134 -0.1883 -0.2658
18061W        W34195   3.247  15.475  13.752 -0.0657 -0.1287 -0.1802
18062W        W34196   5.039   2.527  12.719  0.0863  0.3196  0.0068
18063W        W34197   7.697   8.668  15.074 -0.3244 -0.2207  0.4779
18064W        W34198   4.710   0.235  15.692  0.0861 -0.1387 -0.0039
18065W        W34199  13.832  12.511   3.771  0.0170 -0.3872 -0.0796
18066W        W34200  10.775   5.005  12.116  0.0849 -0.1949  0.0882
18067W        W34201   4.640   1.600  13.038  0.3444 -0.2598  0.0418
18068W        W34202  17.206  11.838  14.203 -0.4005  0.0264  0.1599
18069W        W34203   5.217   0.026   0.877  0.2287  0.0155 -0.2782
18070W        W34204  17.942   8.063  14.164 -0.1663  0.1317 -0.1058
18071W        W34205  13.115   3.815   2.857 -0.2881 -0.3243 -0.0557
18072W        W34206   9.505   6.513  13.022  0.3561  0.0737 -0.0016
18073W        W34207   4.607  16.835  12.782 -0.1458 -0.0026 -0.0004
18074W        W34208   9.236  18.375  13.739  0.0178 -0.1747 -0.1628
18075W        W34209   9.774  14.941   0.578 -0.0821  0.2546 -0.1309
18076W        W34210   0.396  13.598   1.476  0.2984 -0.1285  0.1947
18077W        W34211  16.692   5.958  13.321 -0.0083 -0.1735  0.3148
18078W        W34212  14.806  12.771  13.838  0.0168  0.2247 -0.2066
18079W        W34213   7.787  17.979  11.197 -0.0089  0.1676 -0.0712
18080W        W34214   1.791   3.408   3.789 -0.1133 -0.2794 -0.0367
18081W        W34215   4.538   2.183  14.267  0.0936  0.0066  0.0116
18082W        W34216   5.662  12.384   5.157  0.0769  0.1183 -0.2034
18083W        W34217   3.038  15.760   2.072 -0.3944 -0.0775  0.2694
18084W        W34218   7.151  18.344   4.577  0.0765 -0.0699 -0.1778
18085W        W34219  10.672  16.656  12.985  0.2303 -0.3098 -0.1341
18086W        W34220  14.278  13.837  14.411 -0.0142 -0.1128  0.0560
18087W        W34221  14.822   4.165  11.515  0.0997 -0.2523 -0.0187
18088W        W34222  12.350   4.841  13.654  0.1128 -0.0786 -0.0031
18089W        W34223   2.802   9.911  11.124  0.1352 -0.4160  0.1286
18090W        W34224  18.233   8.284   3.709 -0.0628  0.0172 -0.0970
18091W        W34225  16.358  18.031   4.206 -0.0067  0.0376  0.4288
18092W        W34226   6.385   6.428  13.031  0.5489 -0.0026  0.0856
18093W        W34227   2.958  11.324   0.212  0.0670  0.2276  0.0991
18094W        W34228  13.640  10.404   3.139 -0.2742 -0.1001  0.1003
18095W        W34229   7.985   0.503  11.138  0.4311 -0.0385 -0.0633
18096W        W34230   5.311   4.104   3.723  0.1064  0.0547  0.2085
18097W        W34231  17.751  10.754   2.030  0.0923  0.1541  0.0002
18098W        W34232   5.452  12.646   3.888  0.2879  0.1845 -0.0273
18099W        W34233   6.084   3.660   2.365  0.0182 -0.0928 -0.1296
18100W        W34234  16.408   6.117  11.542  0.2022  0.0927  0.0290
18101W        W34235   4.919   7.552   3.942  0.4594 -0.1943  0.0366
18102W        W34236   9.642  13.594  12.280 -0.2190  0.2550 -0.1229
18103W        W34237   0.336   5.523   3.089  0.0875 -0.0854  0.0838
18104W        W34238   4.901  14.791  12.144 -0.1734 -0.2992 -0.2102
18105W        W34239   0.970   4.852   6.063 -0.0694  0.1556  0.0159
18106W        W34240   5.368   7.140   1.887 -0.2166  0.1218  0.0096
18107W        W34241  10.253  10.376   4.404 -0.1595  0.0798  0.0063
18108W        W34242  12.161   1.344  13.116  0.0359  0.0686 -0.0181
18109W        W34243  12.393  18.250   0.804 -0.2071  0.0130 -0.2176
18110W        W34244  16.256   3.437  13.123 -0.0623 -0.0949  0.2105
18111W        W34245   5.647   0.457  14.506  0.1386  0.3475  0.1778
18112W        W34246  15.495   3.665  13.272 -0.0250 -0.0216  0.1682
18113W        W34247   5.266   5.165  12.298 -0.0771 -0.0667  0.0055
18114W        W34248   6.877   2.272   3.610 -0.0125  0.0683 -0.1436
18115W        W34249  11.375   4.584   0.214 -0.0949  0.1305 -0.2612
18116W        W34250  13.748  17.947  14.024 -0.3109  0.2323  0.4424
18117W        W34251   7.600  16.606   0.332 -0.0057 -0.0418 -0.0886
18118W        W34252  14.067   2.379   4.932 -0.1255  0.2330  0.0022
18119W        W34253   1.011  12.616  11.214  0.4306  0.0333  0.0249
18120W        W34254   1.115   8.141  12.734  0.0533 -0.2088 -0.1442
18121W        W34255  17.862  16.147  13.327  0.2427 -0.2538 -0.0597
18122W        W34256  12.960  18.080   6.409  0.3113 -0.3234  0.0359
18123W        W34257   6.357  15.546   5.274  0.0876  0.1386 -0.1004
18124W        W34258   5.206   5.841   4.925  0.3043  0.2500  0.0385
18125W        W34259   5.505   5.921   3.612  0.1430 -0.0683  0.1572
18126W        W34260  10.437  17.149  12.191  0.0108  0.2701  0.1660
18127W        W34261  10.065  17.575  12.234 -0.1236 -0.0435  0.2237
18128W        W34262   0.783  11.854   4.113 -0.3495 -0.1087 -0.0078
18129W        W34263  14.131   5.793   1.774 -0.0808  0.0655 -0.3198
18130W        W34264  10.384   3.063   4.457 -0.2227  0.3369  0.1117
18131W        W34265   2.343  15.279   4.276  0.0343  0.1618  0.1392
18132W        W34266   6.228  14.347   1.001 -0.3585  0.2735 -0.0009
18133W        W34267   1.768   0.863   0.521  0.2420 -0.0311 -0.3060
18134W        W34268   5.649  11.833  12.371  0.0143 -0.0138 -0.0829
18135W        W34269   2.099  15.730  12.148 -0.0908 -0.2397 -0.4680
18136W        W34270  14.747  16.149  14.087  0.1968  0.1629  0.3733
18137W        W34271  12.295  13.997  13.536  0.0607 -0.1809 -0.5632
18138W        W34272  11.646  11.688  12.022  0.2904 -0.1347 -0.0542
18139W        W34273   2.360  17.490   1.404  0.0388  0.1812  0.1204
18140W        W34274  15.072  17.237   1.220 -0.0587 -0.2412  0.5039
18141W        W34275   0.627   5.758  14.113  0.2177  0.1092  0.0470
18142W        W34276   4.465   6.183  13.894  0.4527  0.0447  0.1459
18143W        W34277   9.979   7.359   3.119 -0.1303 -0.2304 -0.0041
18144W        W34278  11.102   0.041  10.921  0.1737 -0.1124  0.1532
18145W        W34279   6.709   9.635  14.542 -0.0760  0.0731 -0.1601
18146W        W34280   9.207  16.791   4.457 -0.1862 -0.1645 -0.2533
18147W        W34281  11.062  12.174  12.073 -0.2253  0.1471  0.0199
18148W        W34282  12.820   5.634   2.140 -0.1072 -0.2128 -0.3224
18149W        W34283  15.698   5.604  10.359 -0.3885  0.1011  0.1376
18150W        W34284  16.652  16.057  14.873  0.0330  0.3045 -0.0705
18151W        W34285   8.886   0.768  14.081 -0.0381 -0.2467 -0.0935
18152W        W34286   4.580   0.890   3.141 -0.3786 -0.6562  0.2174
18153W        W34287   8.628   6.903   0.557  0.0729  0.2484  0.0939
18154W        W34288   5.621   4.194  13.737  0.3407 -0.1613  0.3648
18155W        W34289   4.418  15.447   4.869 -0.3662  0.1130  0.1249
18156W        W34290  12.637   5.162   2.197  0.1742  0.2225 -0.2329
18157W        W34291  12.224  13.293  13.270  0.3769 -0.1086 -0.1583
18158W        W34292   1.424  14.720  13.326 -0.2328  0.3627 -0.1593
18159W        W34293  16.842   8.272   5.121  0.1686 -0.2464  0.0604
18160W        W34294   6.841   6.283  13.233  0.0098  0.1479 -0.0189
18161W        W34295  15.653  16.426  14.325 -0.3674  0.0266  0.0634
18162W        W34296  13.400   9.433  10.555  0.0706 -0.0477 -0.3385
18163W        W34297  14.163   1.125   1.828 -0.0428  0.3258 -0.0714
18164W        W34298  16.672  16.144  14.038  0.0023 -0.1372  0.0892
18165W        W34299   8.928   9.588   0.320  0.1678  0.2004  0.3205
18166W        W34300  16.211   4.027  15.037 -0.0064 -0.0324 -0.3833
18167W        W34301   8.123  10.105   5.039  0.0294  0.0227 -0.0418
18168W        W34302   8.496   0.809  12.362 -0.0021 -0.1720 -0.1135
18169W        W34303   4.249  11.968  12.794 -0.0114  0.0075  0.1634
18170W        W34304  13.746  17.164  12.410  0.0005  0.0601 -0.2324
18171W        W34305   1.370  14.743   5.178 -0.0774  0.0774 -0.0191
18172W        W34306   7.765  16.967  15.100  0.2697  0.4138  0.0505
18173W        W34307  18.468  18.337   0.489  0.0216 -0.0298 -0.0692
18174W        W34308   8.737  16.040  13.516  0.0585 -0.1192 -0.3068
18175W        W34309  13.451  17.590  12.451 -0.0156  0.2263  0.1168
18176W        W34310   8.728   6.378  11.749  0.1115  0.2126  0.1072
18177W        W34311   5.858   7.298  15.120 -0.1258 -0.3318  0.2373
18178W        W34312  16.412  13.670   4.002  0.1760  0.0046 -0.1414
18179W        W34313   6.259   2.605  10.611  0.0593  0.2918 -0.0082
18180W        W34314  15.781   6.376  13.657  0.1721 -0.2956  0.0567
18181W        W34315   5.203   7.883   4.228 -0.0202 -0.1185 -0.0338
18182W        W34316   2.200   8.467  14.108  0.0976  0.2297  0.0527
18183W        W34317   7.967  16.891   3.462  0.1356 -0.1262  0.1641
18184W        W34318   5.837   4.746  15.906  0.0888 -0.0114  0.2268
18185W        W34319   3.149   0.957  11.736 -0.1148 -0.0904 -0.0280
18186W        W34320   3.912  13.649   2.841 -0.0620 -0.0158  0.2221
18187W        W34321  10.532  12.971   6.518 -0.1244  0.0823 -0.1199
18188W        W34322   0.714   3.800   0.169 -0.1791 -0.0631 -0.0090
18189W        W34323   0.891   7.594  11.565  0.2483  0.2256 -0.2334
18190W        W34324   5.369   6.342  15.663 -0.0371 -0.1567  0.2065
18191W        W34325   0.475   4.705  14.354 -0.0764  0.1657 -0.2326
18192W        W34326   7.359  15.701   4.109  0.3330  0.0107  0.0204
18193W        W34327   5.560  15.683  14.291  0.0709 -0.0189  0.1433
18194W        W34328  11.899  16.597   4.991 -0.0235 -0.3308  0.1468
18195W        W34329  13.012   5.123  15.194  0.1312 -0.0449 -0.2046
18196W        W34330  14.697   1.817  15.393  0.1096  0.1878  0.1060
18197W        W34331   8.152   1.241   1.254 -0.1132 -0.1079 -0.0934
18198W        W34332   4.275  16.213   4.898 -0.1740  0.2054  0.1642
18199W        W34333  12.683  14.594   2.953  0.2173 -0.0481  0.0448
18200W        W34334  18.395   0.741   1.410 -0.2724  0.0319 -0.4605
18201W        W34335   5.184   6.673  11.814  0.1919  0.1885 -0.0480
18202W        W34336  12.366   2.437   3.259 -0.0889 -0.0003 -0.2121
18203W        W34337   0.301   7.845   0.346  0.2446 -0.0109 -0.2453
18204W        W34338   8.949   7.018  11.335  0.2045 -0.0634  0.1767
18205W        W34339   7.464   5.661  13.794 -0.0003  0.1753  0.0460
18206W        W34340   7.876   6.256   4.775  0.0667 -0.0308  0.2874
18207W        W34341   1.223   1.327   2.336  0.2774  0.0265 -0.1472
18208W        W34342  14.088   8.531  12.901 -0.2279  0.2590 -0.0583
18209W        W34343   9.822   0.497  11.153 -0.0926 -0.0421  0.1302
18210W        W34344   5.471   2.860   3.919  0.5517  0.0204  0.0429
18211W        W34345   9.299   9.534   2.138 -0.1405 -0.1462 -0.0047
18212W        W34346   8.939  17.127   3.455 -0.0723  0.2467 -0.0239
18213W        W34347  18.390  10.861  10.753  0.0373 -0.0325 -0.0008
18214W        W34348   0.663  15.402   0.633  0.1007 -0.1265 -0.1792
18215W        W34349   4.635  13.519  11.350 -0.3635  0.3495  0.2051
18216W        W34350   3.124   5.529  15.871 -0.2242 -0.1233  0.0593
18217W        W34351   8.599  12.659  15.637 -0.0164  0.3609 -0.0093
18218W        W34352  17.194   3.693  12.631 -0.4016 -0.1226 -0.0454
18219W        W34353   4.350  14.162   3.982 -0.0511 -0.0493 -0.1017
18220W        W34354   0.000   5.568  12.898 -0.0867  0.0797  0.0006
18221W        W34355   3.343   3.692  14.634  0.0552  0.0435 -0.2874
18222W        W34356  15.737   0.780   0.739  0.0896  0.1552 -0.3591
18223W        W34357   8.640  16.511   4.915  0.2929 -0.0776  0.2444
18224W        W34358  14.399   5.029  13.898 -0.3388 -0.1965  0.2237
18225W        W34359   6.816   3.457   3.544  0.1338 -0.0388 -0.2063
18226W        W34360  14.576   9.239   2.236  0.2399  0.1483 -0.0164
18227W        W34361  10.213   9.978  11.239  0.2503  0.0939 -0.1416
18228W        W34362   7.313  15.921  15.740  0.0836 -0.1065  0.0731
18229W        W34363  11.921  10.188   0.021 -0.2931 -0.0438 -0.1523
18230W        W34364   9.896  15.741   0.647 -0.0958 -0.0337 -0.0550
18231W        W34365  13.302   4.495  10.208  0.0463  0.0531 -0.1861
18232W        W34366  10.997  17.085  12.228  0.2735 -0.0825  0.0351
18233W        W34367   3.683   6.588  10.445 -0.1793 -0.1686 -0.3714
18234W        W34368  12.370   2.617  11.130  0.0922  0.0962  0.1207
18235W        W34369   5.617   3.688   0.983  0.0598  0.0628 -0.0037
18236W        W34370  16.963   1.342  14.917 -0.0495 -0.0018  0.0815
18237W        W34371   4.229   6.502   2.284  0.0476 -0.1432  0.2008
18238W        W34372   5.358   9.161   4.387  0.0580  0.1478 -0.0480
18239W        W34373   7.122  18.121   1.418  0.2481 -0.1023 -0.2880
18240W        W34374  16.853   2.658  14.350 -0.0654 -0.0455 -0.0151
18241W        W34375   4.574  12.304   3.337 -0.1899  0.0782 -0.2385
18242W        W34376  11.801  15.509   3.055  0.0558 -0.3534 -0.2505
18243W        W34377   8.146   7.506  15.804  0.3666 -0.1419  0.1907
18244W        W34378   5.003   3.580  11.553  0.0755 -0.1606 -0.1406
18245W        W34379   7.473   8.884   4.662 -0.0684 -0.3903 -0.0399
18246W        W34380   8.435   9.137  11.680 -0.1083 -0.3815 -0.2377
18247W        W34381  13.719  12.400   5.144  0.3009  0.0447 -0.0621
18248W        W34382   2.015  12.720  12.984 -0.1272  0.2849 -0.0639
18249W        W34383  12.524   9.096  11.054  0.0346  0.2136  0.1604
18250W        W34384  15.513   0.310   2.929  0.3462 -0.1659  0.3900
18251W        W34385   7.281   7.333  15.669  0.3332 -0.1844  0.4014
18252W        W34386   1.654  18.198  13.631  0.2089 -0.0892  0.4789
18253W        W34387  10.513   6.286   3.569 -0.1291  0.1374  0.3265
18254W        W34388   9.965   4.569   2.641 -0.2544  0.0599 -0.2507
18255W        W34389   8.144   3.601   4.967  0.0257  0.1148  0.0380
18256W        W34390   7.160   0.973   1.132 -0.1904 -0.1091  0.0618
18257W        W34391   3.597   3.238  12.473 -0.4550  0.2928 -0.3851
18258W        W34392  12.873  16.439  13.943 -0.0769 -0.0241  0.2106
18259W        W34393  13.617   5.752  12.368  0.1413  0.1100 -0.0504
18260W        W34394   0.872   4.930   3.557 -0.1479  0.2267 -0.3491
18261W        W34395  18.266   4.746  15.547  0.2731  0.0265 -0.0309
18262W        W34396   4.520   1.042   5.213 -0.0630  0.1055 -0.2009
18263W        W34397  10.876  13.522   2.519 -0.1449 -0.1054  0.3945
18264W        W34398   2.627   2.576  12.236 -0.0762 -0.1521 -0.6057
18265W        W34399  11.217   2.916   0.482 -0.3459 -0.1433 -0.3272
18266W        W34400  10.994  18.016  11.708  0.0037  0.2517  0.3107
18267W        W34401   6.698   7.907   0.696 -0.0615 -0.2855  0.0694
18268W        W34402   6.642   0.028  11.853 -0.0284  0.2783  0.0701
18269W        W34403   0.650  10.599   1.751 -0.1974  0.0160 -0.1677
18270W        W34404   7.536  10.313  14.501 -0.4884 -0.1418 -0.0625
18271W        W34405  12.678   4.472  12.808 -0.1804 -0.0151  0.1037
18272W        W34406   2.580  18.197   5.695  0.0581  0.1096  0.1912
18273W        W34407   3.485   4.126   2.272  0.3922 -0.0833 -0.1397
18274W        W34408  14.975   2.474   4.603  0.0562  0.0715  0.1693
18275W        W34409  18.417   0.283  11.944 -0.0599 -0.2835  0.1047
18276W        W34410   9.367  13.530   5.748  0.0934 -0.1813  0.5040
18277W        W34411   4.960   5.302  14.541  0.1042 -0.0510  0.0850
18278W        W34412   7.629  18.465  11.936  0.2237 -0.1956 -0.0252
18279W        W34413   8.698   6.180   1.204 -0.0767 -0.0611  0.2026
18280W        W34414  17.313  16.296   1.083 -0.0313  0.2628 -0.0382
18281W        W34415  14.777   4.348   0.779 -0.2959  0.1595 -0.0792
18282W        W34416  13.449   9.566  13.101 -0.0791  0.1685  0.0725
18283W        W34417   6.005   8.337   4.683  0.0758 -0.2061 -0.0708
18284W        W34418   1.577   5.465   5.537  0.0165 -0.0584  0.1184
18285W        W34419  13.274  18.006   5.463 -0.3635 -0.2546  0.3130
18286W        W34420   3.650   3.398  14.884  0.0897  0.2971 -0.0309
18287W        W34421   0.156   0.376   0.821 -0.3145  0.0806 -0.0337
18288W        W34422   2.653   4.651   0.375  0.0350 -0.1580 -0.1223
18289W        W34423  10.042   1.492  11.331 -0.0585 -0.3505 -0.1558
18290W        W34424  17.467  14.702   5.925 -0.0736  0.2795  0.0945
18291W        W34425  15.318   0.930   1.114 -0.0124 -0.2398 -0.0861
18292W        W34426   6.866   8.834  14.813  0.1299  0.5640 -0.2632
18293W        W34427  10.629   8.244   3.883 -0.2105 -0.0180  0.1549
18294W        W34428  15.242   2.972   3.110 -0.1848  0.0130 -0.1033
18295W        W34429   2.825  16.604   0.586  0.4926  0.1368  0.0167
18296W        W34430  10.373   2.967   5.030 -0.0784  0.1853  0.0737
18297W        W34431   0.186   0.680  10.238  0.0473 -0.0370  0.2493
18298W        W34432  12.877   9.791   0.516 -0.1297 -0.0733 -0.0758
18299W        W34433  16.959  13.377   5.180  0.2941 -0.1660 -0.1960
18300W        W34434  16.406  10.352  11.585 -0.1786  0.0744  0.0217
18301W        W34435  13.309   3.335   1.172  0.1106  0.0975  0.0894
18302W        W34436   9.299  15.021  14.378 -0.2354  0.1221  0.0683
18303W        W34437  10.580   0.115   0.606 -0.0759 -0.2933 -0.0358
18304W        W34438   9.435  15.135   5.562 -0.3469 -0.1527  0.1613
18305W        W34439  15.141   4.258  15.892  0.0858  0.0171  0.2783
18306W        W34440   8.915  12.409  12.933  0.1444 -0.1756 -0.1860
18307W        W34441  17.150   9.879  13.810 -0.1085  0.1010 -0.0575
18308W        W34442   5.435   4.835  12.944  0.0896  0.0071  0.1285
18309W        W34443   2.015  13.854   0.799 -0.0537  0.1364  0.0580
18310W        W34444  13.037   4.115  11.939 -0.0403  0.0954 -0.1938
18311W        W34445  13.557   4.478  14.887  0.3346  0.2899  0.1259
18312W        W34446   8.670   2.738   0.896 -0.0492 -0.4018  0.0881
18313W        W34447   4.341   9.377  11.647 -0.1665  0.2522 -0.0254
18314W        W34448   6.358  16.961   1.703 -0.1418 -0.1676  0.0718
18315W        W34449  10.774  17.237   4.339  0.1593 -0.1557  0.1651
18316W        W34450   4.139   4.247   1.371  0.2904 -0.0552  0.2555
18317W        W34451  11.388   4.210  11.168  0.0295  0.0032 -0.0202
18318W        W34452   1.666  16.773   1.466 -0.0552  0.0139  0.0335
18319W        W34453   8.115   2.345   3.166  0.1593  0.0730 -0.1604
18320W        W34454  10.059  11.933  13.740 -0.3603  0.1944 -0.0113
18321W        W34455  14.532   2.699   3.629  0.3789 -0.0734  0.0352
18322W        W34456   1.886   3.863   2.838  0.0696  0.0439 -0.2707
18323W        W34457   7.186  13.683  15.682 -0.1932 -0.0676 -0.1694
18324W        W34458   9.005  11.448  10.805  0.0944 -0.0328  0.0168
18325W        W34459   7.585   0.487  13.754  0.0566 -0.1578 -0.0861
18326W        W34460  18.035   8.811   3.347 -0.1293 -0.2834 -0.1319
18327W        W34461  14.187  15.573   0.779 -0.2285  0.2236 -0.0375
18328W        W34462  14.518   4.343   1.360  0.0254  0.1582 -0.0979
18329W        W34463   2.278   5.216  13.489 -0.1644 -0.1976  0.1834
18330W        W34464   4.540   9.128  10.470 -0.2196 -0.0301 -0.1370
18331W        W34465   5.835   9.145   3.526 -0.0940  0.3508  0.0007
18332W        W34466  15.584  13.338  15.453 -0.0265 -0.1585  0.3345
18333W        W34467   5.315  12.956   3.086  0.2290 -0.2844  0.1197
18334W        W34468  12.203   3.153   0.913  0.0309  0.1701  0.1684
18335W        W34469  16.360  15.102  12.244 -0.3644  0.2085 -0.0147
18336W        W34470   5.275   2.786   1.915 -0.2992 -0.3038  0.0663
18337W        W34471   4.692   7.259  11.482  0.0579  0.2161  0.0891
18338W        W34472   2.880   7.925  13.864 -0.1552 -0.2106 -0.2381
18339W        W34473   3.248  10.678   0.834 -0.2158  0.1876  0.1363
18340W        W34474  14.641   0.843  10.886  0.3054  0.0966  0.2554
18341W        W34475   6.090   2.140   0.258  0.1194  0.4131  0.0925
18342W        W34476   2.849  11.271   1.477  0.1200  0.1456  0.1053
18343W        W34477   2.100  16.171  11.429 -0.0227 -0.0493 -0.1418
18344W        W34478   2.106   9.577  13.990 -0.1297  0.0467  0.1729
18345W        W34479   1.744   6.117  11.263  0.0726 -0.4600 -0.0771
18346W        W34480   8.358  16.800  10.919  0.3222  0.1957 -0.1193
18347W        W34481  16.612   3.439  14.370  0.1385 -0.1357  0.1809
18348W        W34482   9.527   8.334   4.300 -0.0546  0.0263 -0.4244
18349W        W34483   2.795   3.009  11.871 -0.0911  0.2962 -0.0567
18350W        W34484   9.627   8.130   3.313 -0.0401 -0.0373 -0.0315
18351W        W34485  17.497   5.072   5.475  0.3083  0.1275  0.1075
18352W        W34486  18.404  10.596  15.448  0.1676 -0.0120 -0.0205
18353W        W34487   1.548   9.274   0.843  0.2000 -0.2190 -0.1913
18354W        W34488  16.997  11.701  11.978 -0.2907 -0.1832  0.1191
18355W        W34489  17.214   7.419   5.133 -0.1651  0.1713  0.1108
18356W        W34490  16.915  17.016   3.960  0.0768 -0.1738 -0.0446
18357W        W34491   2.006   8.308  13.275 -0.1036 -0.1489  0.0439
18358W        W34492  15.564   5.304  15.009  0.4118  0.0665 -0.0716
18359W        W34493  12.741  17.341   1.012  0.0546 -0.2577  0.1132
18360W        W34494  12.386  13.970  12.558 -0.3645  0.0229  0.0257
18361W        W34495   3.820  10.200  13.439 -0.1868  0.0142 -0.1509
18362W        W34496   5.498  16.825  13.013 -0.0407 -0.1475 -0.3431
18363W        W34497  17.408  10.635  11.606  0.0829  0.1731  0.0058
18364W        W34498   7.553   2.677  13.967  0.2323  0.1599 -0.1060
18365W        W34499  17.286  12.503   1.423 -0.2109  0.2216  0.0741
18366W        W34500  15.707   2.748   4.582 -0.0250 -0.0263 -0.0187
18367W        W34501   9.808   0.198  13.214 -0.0903  0.2374  0.2356
18368W        W34502   7.167  15.662   5.718  0.0589 -0.0165 -0.0839
18369W        W34503   3.233  10.453   5.526  0.1838  0.1967 -0.0153
18370W        W34504   0.664   3.665   3.466  0.3507  0.2328  0.0798
18371W        W34505   3.375   2.067   0.168  0.0342 -0.3778  0.2263
18372W        W34506   3.583   8.786  12.321  0.1264 -0.0716  0.1453
18373W        W34507  14.860  18.079  10.714 -0.0202 -0.3740  0.0989
18374W        W34508  10.744  14.665   4.529 -0.2756  0.3292  0.0255
18375W        W34509  12.176   4.065  14.995  0.0957 -0.1243  0.0117
18376W        W34510   1.603  18.118  12.594 -0.0428  0.1230 -0.1319
18377W        W34511   4.089  12.365  11.485 -0.2776  0.0642 -0.0147
18378W        W34512   1.518  12.654   0.147  0.1423 -0.0717  0.2538
18379W        W34513  13.799  17.133   3.972  0.0301  0.2003  0.1250
18380W        W34514  10.941  13.444   2.043  0.2763 -0.0462 -0.2432
18381W        W34515   0.497   0.341   4.348  0.0778  0.0832  0.2312
18382W        W34516  15.929   1.243  12.196 -0.2069  0.0636  0.2555
18383W        W34517  18.242  12.328   1.915  0.2514  0.2380 -0.0428
18384W        W34518   6.375  15.067   3.123  0.1986 -0.2052  0.0677
18385W        W34519   2.881  13.902   4.701 -0.1979  0.2113  0.1048
18386W        W34520  11.397  11.702   2.244 -0.0839 -0.2713  0.1025
18387W        W34521  10.247  10.193  11.680 -0.0258  0.1465  0.0086
18388W        W34522   4.049   0.477   0.256 -0.0050 -0.0497  0.1706
18389W        W34523   4.235   0.398   3.354  0.1486 -0.1810 -0.1638
18390W        W34524  15.488   0.614  13.061 -0.5085 -0.0816 -0.0722
18391W        W34525   2.252   3.126  14.138  0.1187  0.0031  0.1193
18392W        W34526   5.569   2.745  11.385  0.0588  0.0235  0.1241
18393W        W34527   5.224   7.881  15.487 -0.0705 -0.2140 -0.1555
18394W        W34528  17.408   5.211   2.994  0.0894  0.2673  0.2406
18395W        W34529   8.662  14.796   6.091  0.0118 -0.1923 -0.2774
18396W        W34530   2.967  16.743  11.259 -0.2653 -0.0655  0.1784
18397W        W34531   5.431  15.933  13.393 -0.0951  0.0901  0.0924
18398W        W34532  14.901   6.329  14.182 -0.1801  0.1677  0.4527
18399W        W34533  16.957   0.354   2.609  0.1677 -0.1612 -0.0712
18400W        W34534  13.845   3.473  14.057 -0.1891 -0.0232 -0.0231
18401W        W34535  14.745   3.207   2.650 -0.0060 -0.2347  0.0262
18402W        W34536   7.220   3.871   2.622 -0.0470 -0.0673  0.1351
18403W        W34537  11.002  10.874  14.312 -0.1287 -0.0510 -0.0911
18404W        W34538  14.142   6.010  13.662  0.1673 -0.0893 -0.1103
18405W        W34539  16.756  13.973  12.311 -0.1799  0.5088  0.0289
18406W        W34540   9.346   7.792   1.053 -0.0515  0.4467  0.0054
18407W        W34541   6.240  12.873   0.155  0.2225  0.2748  0.0027
18408W        W34542   5.595   8.106  15.727  0.2087 -0.0667 -0.0636
18409W        W34543  10.185   8.683  11.909  0.0334 -0.1472 -0.0452
18410W        W34544  16.386  18.130   0.194 -0.2833  0.0426  0.2765
18411W        W34545   8.773   3.423   5.522  0.1653  0.0859 -0.0820
18412W        W34546   7.896   3.200   4.852 -0.1777  0.3117 -0.0727
18413W        W34547   9.489  16.709   0.250 -0.0458  0.1389  0.0351
18414W        W34548   6.109   4.792  12.634  0.0455  0.1379  0.2310
18415W        W34549  12.931  16.783  14.328 -0.1702  0.1732 -0.0213
18416W        W34550   4.929   2.903   4.688 -0.0347  0.0623 -0.0696
18417W        W34551  15.308  17.679   1.474 -0.1072 -0.1279 -0.0561
18418W        W34552   9.095  16.132   2.562 -0.0494  0.0333 -0.0459
18419W        W34553  11.096  18.107   4.592  0.2396 -0.0652  0.0909
18420W        W34554   7.768   8.848   0.595  0.0756 -0.3133  0.1029
18421W        W34555  10.142   6.348   3.165 -0.0218  0.1296 -0.2345
18422W        W34556   1.706  10.204   0.817  0.0605 -0.0946 -0.0743
18423W        W34557   2.445   4.607   2.736 -0.0263 -0.2356 -0.3460
18424W        W34558   4.407   5.646   3.813  0.1946 -0.2029  0.1844
18425W        W34559  16.609   8.941  13.398 -0.0015 -0.1392  0.2646
18426W        W34560  16.430   8.576   1.480  0.0993  0.0315  0.0178
18427W        W34561   8.235   7.875  14.016 -0.1126  0.1351 -0.2651
18428W        W34562  14.678  16.104  11.512 -0.0093  0.0736  0.1351
18429W        W34563   0.366   7.845  12.198  0.3274  0.1836 -0.0630
18430W        W34564  12.058  17.399   0.486 -0.1309  0.0008  0.2388
18431W        W34565   7.718  16.046   3.965 -0.0197 -0.3003 -0.0258
18432W        W34566  16.196   9.726  13.016  0.2212 -0.2788  0.0370
18433W        W34567   6.309  14.579   5.381 -0.1474 -0.1144  0.1233
18434W        W34568  16.749   0.069   4.300 -0.3604  0.0590  0.1728
18435W        W34569   6.352   7.557   1.343 -0.2838  0.1963 -0.2152
18436W        W34570  11.258  17.891   0.750  0.2908  0.0007 -0.0016
18437W        W34571  14.112  13.039  13.897 -0.0130  0.2486  0.2117
18438W        W34572  16.227   4.103  12.457 -0.3851  0.2738 -0.3530
18439W        W34573  13.532  14.767  14.153  0.3264 -0.0743 -0.0879
18440W        W34574  10.517   9.661   0.327  0.3637  0.1180  0.1221
18441W        W34575  17.227   9.339  11.688 -0.0388  0.0116 -0.1503
18442W        W34576  17.002  13.544  14.361  0.0571 -0.0515  0.0414
18443W        W34577  18.181  16.247   5.113  0.2167  0.1744 -0.2235
18444W        W34578  16.187  16.147   2.523  0.0539 -0.2171 -0.1797
18445W        W34579  12.463   9.366   0.650  0.1474 -0.0252  0.1372
18446W        W34580  11.718   3.721   1.580  0.3771  0.1105  0.0437
18447W        W34581   2.025  14.152  11.189 -0.1002  0.0653  0.0249
18448W        W34582  14.484   8.852  14.563 -0.0143 -0.1869 -0.1186
18449W        W34583   9.702   7.204   4.888 -0.1175 -0.0875  0.1599
18450W        W34584  15.709  15.958  14.461 -0.2742 -0.0571  0.1412
18451W        W34585   9.469  17.425  11.386  0.1325 -0.4169 -0.2311
18452W        W34586  17.068  11.621  10.172 -0.1561 -0.1112 -0.2863
18453W        W34587   2.825   3.588   0.912  0.0939  0.1328 -0.3341
18454W        W34588  13.373  14.363  14.559 -0.5097  0.0848  0.0657
18455W        W34589  13.900  18.330  14.436 -0.1948  0.3438  0.0906
18456W        W34590   6.143   1.977   1.292  0.0246  0.1857 -0.2747
18457W        W34591   5.206  15.708   3.635 -0.2139  0.0513 -0.3158
18458W        W34592   9.338  15.814   3.448  0.2451 -0.2046 -0.2684
18459W        W34593  17.109   0.028   2.063  0.1589 -0.2230 -0.1327
18460W        W34594   3.254  15.081   1.505  0.2769  0.1074  0.3896
18461W        W34595  13.898   1.111   5.467 -0.2551 -0.0102 -0.1063
18462W        W34596  11.829   0.270   5.256  0.3616  0.0663 -0.0304
18463W        W34597  15.338  17.479   0.314 -0.2042 -0.0912 -0.2508
18464W        W34598   2.515   0.276  15.462 -0.1590 -0.2415  0.1777
18465W        W34599   4.106  14.583  12.607 -0.2180 -0.1183 -0.1122
18466W        W34600   3.061   7.601  15.671  0.0493  0.0435  0.1511
18467W        W34601   8.600  11.751   6.498 -0.0825 -0.0311 -0.1561
18468W        W34602   2.093   7.383   0.055 -0.0328  0.1655 -0.0339
18469W        W34603  18.214  12.041  12.055 -0.0519  0.1499 -0.2674
18470W        W34604   3.318  10.081  11.101  0.2526  0.0999 -0.1606
18471W        W34605   9.423  18.328  12.331  0.3359  0.0556 -0.1031
18472W        W34606   2.998  14.147  11.964 -0.1238 -0.0752 -0.0158
18473W        W34607  10.274   7.533   0.876 -0.0256 -0.1403  0.3385
18474W        W34608   9.899   3.760   1.138  0.0028 -0.1739  0.4745
18475W        W34609   6.992  14.851   4.413 -0.1347  0.3050 -0.0797
18476W        W34610  18.247  10.179  12.849 -0.1102 -0.0697 -0.0056
18477W        W34611  14.244  17.732   0.758  0.0722 -0.1274 -0.3345
18478W        W34612   0.004   4.565  14.031 -0.1454 -0.0719 -0.0585
18479W        W34613  12.390  16.461  12.514  0.0686  0.1259 -0.2249
18480W        W34614   4.277   7.826   3.274  0.2372  0.0540 -0.0765
18481W        W34615  11.227   5.217  13.656 -0.0578  0.1093 -0.2754
18482W        W34616   8.124   8.416  11.505  0.2090 -0.0929 -0.1071
18483W        W34617   5.991  10.393  13.717  0.1198  0.0299 -0.3364
18484W        W34618   2.931   0.877   1.694 -0.2614  0.1046 -0.0726
18485W        W34619   8.479   4.487   3.551 -0.2756  0.1127  0.1998
18486W        W34620   8.684  16.391  12.547  0.1756  0.0212 -0.2695
18487W        W34621   4.046  18.022   4.648 -0.0368 -0.1245  0.1952
18488W        W34622  16.232   0.808  15.522  0.0596 -0.2389 -0.0938
18489W        W34623  10.999  12.392   2.894  0.0471 -0.1693 -0.2533
18490W        W34624  12.399   7.595   5.250  0.0119 -0.0684 -0.2349
18491W        W34625  18.074   2.500   1.359 -0.1642  0.1467 -0.2277
18492W        W34626   2.918  13.984   0.576 -0.2439  0.1665  0.0575
18493W        W34627   5.266  10.200   4.938 -0.0346  0.1869  0.1940
18494W        W34628   8.231   5.228   3.335 -0.1728 -0.1235  0.1005
18495W        W34629  14.628   0.559  13.473  0.0212 -0.1993  0.0354
18496W        W34630  10.301   5.695   4.560  0.0977 -0.1453  0.1680
18497W        W34631  17.261   2.197   1.640  0.4315 -0.0332  0.0969
18498W        W34632  13.394   3.971   5.152  0.0101 -0.1244 -0.1843
18499W        W34633   1.390   1.990   1.908  0.3055 -0.2099 -0.2508
18500W        W34634   4.406  16.867   3.868  0.2043 -0.0550 -0.1765
18501W        W34635   9.586  13.782   2.265 -0.0897  0.2512  0.0755
18502W        W34636   5.914   5.857   3.895  0.0240 -0.3235  0.0568
18503W        W34637  12.744   6.363   4.834  0.4879  0.0850 -0.1327
18504W        W34638   4.493  15.800   1.058 -0.0259 -0.0176  0.1510
18505W        W34639   3.925   8.514  12.613 -0.0786 -0.1674  0.1241
18506W        W34640   0.755  12.798  14.931 -0.1450 -0.2091  0.2039
18507W        W34641  12.249   5.639   3.103 -0.0955  0.0199 -0.1028
18508W        W34642  12.217  16.564   3.613  0.1905  0.1926 -0.1473
18509W        W34643   5.667  17.752   0.134  0.0570 -0.0419 -0.0696
18510W        W34644  14.368   9.185  11.839  0.0744  0.0239  0.1270
18511W        W34645  14.436  15.465   5.314 -0.0257  0.3892 -0.1565
18512W        W34646   4.571  17.072   3.410 -0.0382  0.0825  0.0683
18513W        W34647   0.233  15.323  14.080  0.1278  0.0325 -0.0903
18514W        W34648  10.117  13.242  15.770  0.0834 -0.1583  0.2275
18515W        W34649   6.193   1.587   4.082 -0.3580 -0.2530  0.2131
18516W        W34650  12.606   5.208  11.578 -0.1597 -0.0900 -0.0204
18517W        W34651   3.520  10.575  12.191 -0.1042  0.3694  0.0971
18518W        W34652  11.785   4.711  15.265 -0.0963  0.0685 -0.1903
18519W        W34653   4.687   3.923   1.946  0.2048 -0.0672  0.0646
18520W        W34654   4.248  12.873   2.353 -0.0547 -0.1023 -0.3947
18521W        W34655   0.660  13.687  12.753 -0.1547  0.2635  0.0158
18522W        W34656  15.693  12.526   5.172  0.0347  0.1221  0.1212
18523W        W34657   3.892  10.237   4.656 -0.0249  0.2181  0.1519
18524W        W34658   8.401   2.853  15.318  0.0151  0.1068 -0.0653
18525W        W34659   6.159  12.436  13.963 -0.0005  0.1106 -0.1857
18526W        W34660  15.022  12.536  15.070  0.1902  0.0447  0.0173
18527W        W34661   4.405  15.859   5.219 -0.2351  0.2153  0.2406
18528W        W34662  13.441   5.466   4.844  0.0462  0.2728  0.2503
18529W        W34663   1.146   6.913  13.513  0.0860  0.0749  0.0002
18530W        W34664  15.652   1.218   5.103 -0.0354  0.1392 -0.2363
18531W        W34665   2.296  15.611  13.413  0.1170 -0.0469  0.1827
18532W        W34666  12.271  17.275   3.566  0.0513  0.1750 -0.2685
18533W        W34667   3.330  14.812   2.284  0.0390 -0.0918 -0.0718
18534W        W34668   5.047   5.077   4.725  0.1900 -0.1031 -0.0285
18535W        W34669   7.393  15.487   2.447  0.1963 -0.1254  0.0665
18536W        W34670  16.029  13.938   4.226 -0.0469 -0.0950  0.2741
18537W        W34671   7.690   2.854   2.439 -0.0500 -0.0828  0.0712
18538W        W34672  14.386  15.711  13.259  0.0126 -0.0026 -0.0784
18539W        W34673   6.837   5.143   5.043  0.0406 -0.1546 -0.0953
18540W        W34674   7.123  11.748  13.449  0.2623 -0.1138 -0.0044
18541W        W34675   7.662  13.288  11.694 -0.0662 -0.0030 -0.0366
18542W        W34676   9.239   3.060  12.112 -0.0365 -0.1041  0.2320
18543W        W34677  15.216   3.237   0.212  0.1325 -0.1087  0.0726
18544W        W34678   9.195   2.507  14.071  0.0630  0.1588 -0.0091
18545W        W34679  10.683  14.174   5.496  0.0893 -0.1372 -0.2552
18546W        W34680   7.502  14.790  11.510 -0.0012  0.2685  0.1087
18547W        W34681   4.695   3.591   3.176 -0.4882  0.0612 -0.0140
18548W        W34682  12.151  11.315   0.574  0.0536 -0.0924  0.0247
18549W        W34683   5.359   3.572   0.536  0.0477  0.0769 -0.2682
18550W        W34684  13.967   5.583   2.325  0.1965 -0.1554  0.1624
18551W        W34685  15.023   1.161  11.764  0.0829  0.0652  0.0060
18552W        W34686   5.232  15.838  11.204  0.0402 -0.0602  0.1675
18553W        W34687  16.364   9.102   5.143 -0.0138 -0.1646  0.2061
18554W        W34688   6.465   1.160  15.379 -0.0678  0.1071 -0.1364
18555W        W34689  10.407  15.841   3.636 -0.2281  0.4542 -0.1134
18556W        W34690  11.717  13.268   3.588 -0.0203 -0.2604 -0.0972
18557W        W34691   4.088   4.042  13.905 -0.0166 -0.0695  0.1713
18558W        W34692  12.814   6.685   4.475  0.0279  0.0587  0.2803
18559W        W34693   4.647  14.983   2.779 -0.0642 -0.2290  0.3736
18560W        W34694  12.503   9.040   1.922  0.0890  0.2194  0.2017
18561W        W34695   8.266   9.233   5.368  0.0333 -0.1116 -0.0246
18562W        W34696   9.989  14.430  14.873 -0.0868 -0.2960 -0.5820
18563W        W34697   6.674   3.526   4.049 -0.3704 -0.2019 -0.0871
18564W        W34698  16.984  15.740   5.345 -0.0810 -0.0564 -0.1385
18565W        W34699   1.449   1.567   6.122 -0.5115 -0.1792  0.1309
18566W        W34700   0.401   9.777   1.905  0.0521  0.2188  0.0985
18567W        W34701   5.453  12.804  14.483 -0.0180 -0.0222 -0.0862
18568W        W34702   7.930  10.868  14.289 -0.1175  0.0435 -0.2531
18569W        W34703   3.018   7.441  10.912  0.1929  0.0454  0.0387
18570W        W34704  12.240   4.867   0.832 -0.0760 -0.1482 -0.3247
18571W        W34705   9.203  12.421   2.612 -0.1379  0.0185  0.3955
18572W        W34706  13.494  12.768  15.186 -0.2634 -0.1481  0.2442
18573W        W34707   4.082   4.120  11.649  0.0125 -0.2088  0.3131
18574W        W34708  15.024   8.335   1.879  0.1621  0.0851  0.0958
18575W        W34709   2.662   6.721   5.510  0.3556 -0.0188 -0.2695
18576W        W34710   1.436   2.552   0.309 -0.0496 -0.0819  0.0313
18577W        W34711  14.554   6.424   3.745  0.0404 -0.1467  0.1744
18578W        W34712   9.485   8.547   1.328 -0.0355 -0.2931 -0.2876
18579W        W34713   6.475  14.649  15.911 -0.4942 -0.0269  0.2717
18580W        W34714   4.227   4.046  11.184 -0.0456 -0.0316 -0.0954
18581W        W34715   8.323  16.850   0.336  0.0897 -0.1581 -0.3035
18582W        W34716  18.012  14.705  11.532 -0.0252  0.1956  0.1018
18583W        W34717  13.059  16.577   4.214 -0.1179  0.1412 -0.4857
18584W        W34718  16.780  13.201   4.732  0.0583 -0.0433 -0.3533
18585W        W34719   8.344   2.127  13.912  0.0880  0.0800 -0.2497
18586W        W34720  14.299   8.001   0.498  0.0850 -0.0874  0.1068
18587W        W34721   2.113  16.133   3.633 -0.1999  0.0610  0.3652
18588W        W34722  10.935   9.184   5.032 -0.0936 -0.0569  0.3737
18589W        W34723  13.348  12.817  11.577 -0.0330 -0.1770  0.0830
18590W        W34724   1.231  16.706  11.104  0.0506 -0.2463  0.0236
18591W        W34725  18.209   9.176  10.739 -0.0994  0.0224  0.2745
18592W        W34726   9.423   0.573  15.533 -0.0264  0.5178  0.0851
18593W        W34727   5.238   2.244  13.505  0.0911 -0.1621 -0.1182
18594W        W34728   1.258   3.205   1.114  0.4026 -0.1431  0.2190
18595W        W34729   7.355   2.099  12.658 -0.1865 -0.0168  0.2115
18596W        W34730  15.182   0.067   4.455 -0.0205  0.0848  0.1760
18597W        W34731  12.618  10.202  13.369  0.0482  0.1812 -0.0230
18598W        W34732  13.913  17.641  12.146  0.0557  0.0836  0.2358
18599W        W34733  12.507  15.322  14.596 -0.0746  0.0373  0.0619
18600W        W34734  18.330  10.576   4.213 -0.3389  0.2375 -0.1226
18601W        W34735   5.541  12.993  12.589 -0.0377 -0.3050  0.2133
18602W        W34736   9.486   7.495   2.854  0.2688 -0.2724 -0.0113
18603W        W34737  15.182  16.945   1.761  0.2333  0.0783 -0.0167
18604W        W34738   4.192   0.844  11.871 -0.3030  0.0926 -0.0876
18605W        W34739   6.344  17.023   1.200  0.0562  0.0491  0.2676
18606W        W34740  13.240   3.471   4.991 -0.1595  0.1120 -0.0820
18607W        W34741   9.345   9.115  11.738 -0.2297  0.0728 -0.0376
18608W        W34742   2.294  10.487   4.688  0.0875  0.0272 -0.1860
18609W        W34743  12.493   2.184   1.476  0.1572  0.3134 -0.3847
18610W        W34744  18.106   4.318   2.621 -0.1987 -0.2479  0.0066
18611W        W34745   9.230   6.373  11.870 -0.1440  0.2058  0.0529
18612W        W34746   0.040   1.615  15.868 -0.1595  0.0947 -0.1195
18613W        W34747  11.560   2.496  13.585  0.0040 -0.1667 -0.1664
18614W        W34748   5.558   8.072  12.741  0.1020  0.3567  0.1327
18615W        W34749   9.864   4.427   0.173  0.0965 -0.2655 -0.0381
18616W        W34750  11.367   0.669  10.598 -0.1690  0.1888  0.1960
18617W        W34751  12.559   1.953   4.608  0.1306 -0.1443  0.2166
18618W        W34752  10.526   8.814   2.266 -0.1017  0.1681  0.0323
18619W        W34753   9.214  14.180   1.315 -0.2187 -0.0624 -0.0127
18620W        W34754   1.660  14.384  12.310  0.1652 -0.2904  0.0480
18621W        W34755  15.680  10.801  15.169 -0.0965 -0.0721 -0.0169
18622W        W34756   8.333   4.126   0.829 -0.2548  0.1438 -0.0106
18623W        W34757   5.609   8.119   4.477  0.1545  0.2542 -0.0167
18624W        W34758   7.098  15.868  11.696  0.1163  0.1329  0.0277
18625W        W34759   3.834   7.304   1.963  0.0406  0.2498 -0.0616
18626W        W34760   9.009  14.313   2.600  0.1899  0.2335 -0.1193
18627W        W34761   6.476   0.004   3.060  0.1866 -0.0085 -0.2405
18628W        W34762   5.425  11.611   0.607  0.1791  0.0279  0.3475
18629W        W34763   5.620  11.402   1.070  0.1787 -0.1900  0.1160
18630W        W34764   9.129   5.730  13.395 -0.0373  0.1337 -0.1395
18631W        W34765   9.617   6.541   1.750 -0.0019 -0.1880  0.2265
18632W        W34766   3.010   8.942  14.163 -0.0301 -0.0493 -0.0774
18633W        W34767   8.020   6.258  15.240  0.2716 -0.1694  0.0115
18634W        W34768  16.383  11.092   5.034 -0.1207 -0.1804 -0.0411
18635W        W34769   9.693   9.981   1.708 -0.1833  0.2921  0.0375
18636W        W34770   3.456   7.604   2.262 -0.1174  0.1633 -0.1241
18637W        W34771   1.914  17.466  11.706 -0.1550 -0.0129  0.2365
18638W        W34772   6.932   7.475   2.103  0.2057 -0.0319  0.3838
18639W        W34773  13.714  17.823   5.272  0.0673  0.3395 -0.0705
18640W        W34774   2.909   4.676   0.837  0.6181 -0.0498 -0.1591
18641W        W34775   7.365   9.936  15.335  0.0827 -0.1971  0.0546
18642W        W34776   2.821   9.165   3.787 -0.1689  0.3737  0.1299
18643W        W34777  14.038   5.073   3.251  0.1799  0.0022 -0.0367
18644W        W34778  16.809   0.290   3.067 -0.0569  0.0344 -0.2570
18645W        W34779   8.554   5.951   3.600  0.1747 -0.1241 -0.1428
18646W        W34780   1.307  11.661  15.824 -0.2103 -0.0824  0.1864
18647W        W34781  14.486   1.524   0.055 -0.0209  0.2398  0.2393
18648W        W34782  11.248  10.002   3.456 -0.3344  0.2676  0.2011
18649W        W34783   8.134  11.920   2.299 -0.1711 -0.1054  0.1789
18650W        W34784  13.645  17.273   2.408 -0.0616 -0.1638 -0.1637
18651W        W34785   6.992  12.820   4.312 -0.1219 -0.1983  0.1183
18652W        W34786  13.948  12.578  15.479  0.1383  0.2105 -0.0333
18653W        W34787   1.130  16.295  12.738 -0.2252 -0.1666 -0.1204
18654W        W34788  13.260   5.937   2.202 -0.1890 -0.3680 -0.0153
18655W        W34789   6.846   9.623   3.275 -0.0676 -0.2317  0.0411
18656W        W34790   9.051   7.283   2.361 -0.1333 -0.1467 -0.3384
18657W        W34791   7.935   8.813  12.373 -0.0589  0.1110  0.0602
18658W        W34792   3.000   4.798  13.228 -0.0639  0.0573  0.1565
18659W        W34793  14.525  10.835  11.321 -0.2530 -0.1481 -0.1027
18660W        W34794   6.261   3.662  13.866 -0.5964 -0.1994 -0.2736
18661W        W34795   6.190   8.263   1.857  0.1701 -0.1007  0.3235
18662W        W34796   9.490   9.064   2.025  0.3588  0.1449 -0.0263
18663W        W34797  17.238   0.884  14.944 -0.2345  0.0678 -0.1138
18664W        W34798   4.500   2.909   1.474  0.0138  0.3667  0.0530
18665W        W34799  17.933   6.814   9.997  0.0830  0.1070  0.1741
18666W        W34800   9.393   3.533   3.526 -0.1542 -0.1834  0.0234
18667W        W34801  18.139   9.284  13.115  0.0322  0.2188  0.1745
18668W        W34802   0.539   4.164  14.312 -0.1083 -0.0071 -0.0575
18669W        W34803   3.342  12.012   0.999  0.1400  0.1156 -0.0394
18670W        W34804   7.676   9.382  14.541 -0.2492  0.0703  0.3241
18671W        W34805   4.420   4.023   4.739 -0.1223  0.0223 -0.1352
18672W        W34806  13.214   8.790   5.292  0.2121 -0.1857 -0.2527
18673W        W34807  15.627   4.466  10.125  0.2164 -0.2039 -0.1971
18674W        W34808   1.059  17.773   5.493 -0.1249 -0.2227 -0.0243
18675W        W34809   6.261  15.450  12.159 -0.0189  0.1951  0.0810
18676W        W34810  15.789   7.811   0.579  0.0060 -0.2358  0.2254
18677W        W34811   0.949   7.899   1.217 -0.3662  0.3767  0.1365
18678W        W34812   5.818  10.401   2.573 -0.1681 -0.1337 -0.1385
18679W        W34813   3.830   2.806   3.162  0.0458  0.2819  0.0115
18680W        W34814  14.077   7.255  11.442  0.1271 -0.1603  0.0034
18681W        W34815  16.532   7.752   1.554  0.0230 -0.1386  0.1462
18682W        W34816  14.798   5.920   4.249  0.2663 -0.0190  0.5284
18683W        W34817  11.561   3.034  13.588  0.0536  0.0781 -0.0559
18684W        W34818   1.248   5.754  14.488 -0.2102  0.1345 -0.0977
18685W        W34819  13.897  10.694   0.805  0.0711  0.0750 -0.0079
18686W        W34820  14.566  12.479   2.374  0.2540 -0.2628 -0.1226
18687W        W34821   1.309   0.699   2.976  0.1707  0.1587 -0.3952
18688W        W34822   6.535   0.510  12.655  0.0495  0.0299 -0.0306
18689W        W34823   6.689   8.719  11.962 -0.0410 -0.1633  0.2089
18690W        W34824   0.642  11.401  13.726  0.2485  0.2636  0.1150
18691W        W34825   1.604  11.991   1.605 -0.0707  0.0020  0.0249
18692W        W34826   6.947  10.196  11.844  0.0572 -0.0068  0.2716
18693W        W34827   2.122   7.020  12.051 -0.0213 -0.1024 -0.1523
18694W        W34828   0.436  13.989  14.222  0.1228 -0.0434  0.0355
18695W        W34829  10.119   9.095   2.690 -0.4793  0.4584 -0.0451
18696W        W34830  17.004  14.320  10.973  0.0407  0.2145 -0.0609
18697W        W34831   8.329  17.105  14.180  0.0412  0.2620 -0.1067
18698W        W34832  12.267  13.223   1.750 -0.0768 -0.0135  0.0440
18699W        W34833   9.487  11.548  15.592  0.0715  0.1451 -0.5703
18700W        W34834  15.607  12.356   3.398  0.4717 -0.2811  0.0585
18701W        W34835   8.714   0.310   0.707 -0.2658 -0.2226  0.2129
18702W        W34836  14.427  12.101   0.898 -0.0487 -0.0756  0.2308
18703W        W34837  11.747   5.352  12.383  0.1094  0.1734  0.0251
18704W        W34838  16.296   8.436   2.091  0.0968 -0.2046 -0.2663
18705W        W34839   7.575  13.212  14.610 -0.0625  0.0739  0.0222
18706W        W34840   1.498   9.800  12.628 -0.0575 -0.1309  0.2255
18707W        W34841  16.128   0.517  14.362 -0.2615 -0.1167  0.0456
18708W        W34842  16.088   9.686  15.079  0.3350 -0.2589 -0.1899
18709W        W34843  12.934   1.502   3.527  0.0231 -0.0761  0.5638
18710W        W34844  11.017   8.628   2.081  0.3448 -0.0453  0.2593
18711W        W34845   3.899  10.955   1.388  0.2650 -0.2679  0.2690
18712W        W34846  18.434  10.481   5.535 -0.0142  0.1490  0.2809
18713W        W34847   9.657  13.364  13.487  0.2433 -0.3783 -0.0441
18714W        W34848  12.839   5.559  12.004 -0.0591  0.0222  0.0096
18715W        W34849   7.948  17.119   4.914  0.0319 -0.2155 -0.0168
18716W        W34850  11.257   9.701  13.664  0.1397 -0.0177 -0.0848
18717W        W34851  10.873  13.968   1.839  0.0554 -0.0761  0.0513
18718W        W34852   8.208  16.084  14.786 -0.1248 -0.3112 -0.2320
18719W        W34853   6.526   7.601  15.711  0.1228  0.0120 -0.0693
18720W        W34854   1.627  12.795   2.723  0.0481  0.3445 -0.2958
18721W        W34855  14.708   3.919  13.032  0.3559  0.1339 -0.1495
18722W        W34856   4.627   7.970   1.707  0.2644  0.1094  0.2337
18723W        W34857   3.401  18.101  15.320 -0.0703 -0.0536  0.4173
18724W        W34858  17.359  18.226   1.273  0.0896 -0.1721 -0.1731
18725W        W34859  17.304  18.253  12.087  0.0093  0.2755 -0.2111
18726W        W34860   3.238  11.522  13.442  0.0518  0.2280 -0.1308
18727W        W34861   4.071   6.109  11.180  0.1090 -0.1605  0.1844
18728W        W34862   4.923  14.350  12.815 -0.1575  0.0207 -0.0459
18729W        W34863   5.243  16.724  15.053  0.0676 -0.0081  0.1675
18730W        W34864  14.555   6.132   1.360 -0.0852 -0.3438  0.0173
18731W        W34865   3.951  16.664  11.010  0.0098 -0.0904 -0.2442
18732W        W34866   2.754  17.807  11.234  0.0352 -0.1116  0.2775
18733W        W34867   9.043   2.067  10.999  0.0102  0.1199 -0.1098
18734W        W34868  15.734  14.515   4.371  0.0726  0.1334 -0.0902
18735W        W34869  13.905  11.708   3.007 -0.0441  0.1269 -0.0148
18736W        W34870  18.281  12.751  10.685 -0.2214  0.0006  0.1168
18737W        W34871   9.409  18.359   1.358 -0.1095  0.3189  0.1939
18738W        W34872  12.702   4.004   3.781 -0.1933  0.0578 -0.2737
18739W        W34873  10.988   5.828   3.116  0.1574  0.2721 -0.1094
18740W        W34874   6.175  18.211   0.843  0.1662  0.1418  0.0840
18741W        W34875   8.746  17.426  12.984  0.1748 -0.0126  0.1847
18742W        W34876   7.796  16.234   4.917  0.0501 -0.1449  0.2655
18743W        W34877  15.770   6.702  12.787 -0.1886  0.1652 -0.1420
18744W        W34878   7.153   1.800  12.227 -0.0300 -0.2735 -0.1010
18745W        W34879  13.419  10.585   4.067  0.4478  0.2143 -0.0829
18746W        W34880  16.156  12.497  15.546 -0.0571  0.2728  0.2800
18747W        W34881  12.187  15.998  11.301  0.0452 -0.0371 -0.3416
18748W        W34882  10.174   4.632  11.034  0.1413 -0.1594  0.0143
18749W        W34883   0.011   8.213   4.578 -0.4398 -0.0242  0.1303
18750W        W34884   5.463  12.316  15.868 -0.1161 -0.0696  0.0053
18751W        W34885   2.423  10.533  15.830 -0.0065 -0.1160 -0.1894
18752W        W34886  13.916   6.177   2.457 -0.2188  0.3289 -0.4334
18753W        W34887  18.338  11.626  12.983 -0.2597 -0.1009  0.0608
18754W        W34888  17.257  17.977   5.539  0.3124  0.1375 -0.3586
18755W        W34889  15.378  17.408   0.832  0.3314 -0.1981  0.0360
18756W        W34890  10.508   5.220   4.394 -0.2683  0.1865  0.0802
18757W        W34891  11.063  15.305  11.928 -0.1249 -0.0564 -0.2943
18758W        W34892  13.418  16.555   4.567 -0.0768  0.3970  0.0349
18759W        W34893  14.303   2.447  11.959 -0.2439 -0.0395 -0.0772
18760W        W34894   6.211   6.935   3.048  0.1098  0.0371 -0.2472
18761W        W34895   9.178   8.103   3.695 -0.1873 -0.0166  0.1294
18762W        W34896   0.522   9.706   2.975 -0.2478  0.1723 -0.2167
18763W        W34897  16.368  14.592  13.988  0.0349  0.0722 -0.1257
18764W        W34898  13.789  10.261   0.456 -0.1836 -0.1645  0.2753
18765W        W34899  16.872   8.793   1.184  0.1884 -0.2153  0.1846
18766W        W34900  11.534   2.090  15.392 -0.1607 -0.0055  0.1428
18767W        W34901  17.007  11.860   2.581  0.0545 -0.1634  0.1037
18768W        W34902   1.482   5.613   1.201  0.1270 -0.0530 -0.3528
18769W        W34903  16.633  12.979   4.240 -0.1060 -0.1390  0.4113
18770W        W34904   7.466   1.850   0.743 -0.0150 -0.1662 -0.0061
18771W        W34905  10.334   4.755   3.202 -0.1095  0.0330 -0.2184
18772W        W34906  16.740  15.342  14.686  0.2313  0.3394  0.1122
18773W        W34907  13.470   6.161  14.765 -0.4890  0.3076  0.0739
18774W        W34908  12.709   6.786  12.680  0.1938 -0.0625  0.5321
18775W        W34909   2.569   5.138   2.793  0.3031 -0.1700  0.0255
18776W        W34910   3.578   3.678  15.626  0.1995 -0.0951 -0.1392
18777W        W34911   6.356   4.481  14.378  0.0528 -0.1598 -0.0869
18778W        W34912   2.591  13.669   2.725 -0.1354 -0.0115  0.1366
18779W        W34913   5.203   6.650   4.328  0.1762 -0.1025 -0.1962
18780W        W34914  13.478  15.133   2.660  0.0636  0.0084 -0.2275
18781W        W34915  14.826   1.513   5.729 -0.3004 -0.0823  0.4971
18782W        W34916   9.294  14.262  11.535  0.1991  0.0066  0.1343
18783W        W34917  13.555  14.933  11.889 -0.3689  0.0579 -0.1295
18784W        W34918   6.109  11.444  12.412 -0.0910  0.0758  0.0090
18785W        W34919  16.904   3.270   0.181  0.3120 -0.1095  0.0915
18786W        W34920   7.850   1.127   0.433 -0.0110 -0.1491  0.4202
18787W        W34921  17.221  14.109   5.254 -0.1317 -0.0353  0.2338
18788W        W34922   0.652  12.655   3.077  0.0844  0.1006 -0.0659
18789W        W34923   1.306  16.206  15.062 -0.0010 -0.0065  0.0803
18790W        W34924   7.277  13.909  11.904 -0.0718  0.1281  0.2437
18791W        W34925  18.109  18.305  14.955 -0.2329  0.0215 -0.0063
18792W        W34926   8.671   7.428   1.089  0.0173  0.1312 -0.0514
18793W        W34927   0.156   6.887   3.002  0.0105 -0.0396 -0.0163
18794W        W34928   8.266   1.762   5.077  0.1212  0.0242  0.0816
18795W        W34929   4.176   1.800  11.745  0.0856  0.0062  0.1062
18796W        W34930  11.070  11.848   0.784 -0.1817  0.2823  0.2754
18797W        W34931  14.883  12.797   3.249 -0.0363 -0.1066 -0.2851
18798W        W34932  12.459  15.494   0.925  0.0704  0.0127  0.0917
18799W        W34933   1.252   6.402   3.275  0.0864 -0.2630  0.3962
18800W        W34934   4.299   6.211  14.453 -0.3693 -0.0111  0.1346
18801W        W34935   0.851  18.410   0.412  0.2069 -0.1906  0.1152
18802W        W34936  13.453   3.930  15.003 -0.1101 -0.2792  0.2630
18803W        W34937   7.789  11.008   4.039  0.0998  0.1629 -0.0619
18804W        W34938  15.354  16.629   0.534 -0.4045  0.1480 -0.0951
18805W        W34939   1.048   0.948   0.853  0.0359  0.2079  0.0467
18806W        W34940   8.497   7.896   1.291  0.0327 -0.0015  0.3296
18807W        W34941   3.674   9.525   2.606  0.2493 -0.1525  0.1381
18808W        W34942  15.037   9.190   4.408  0.0567 -0.0493  0.1848
18809W        W34943  17.008   3.031  13.229  0.3032 -0.2021  0.0350
18810W        W34944   0.087   9.134  11.812  0.0998 -0.1791 -0.2235
18811W        W34945  11.737   6.861  11.294  0.3825  0.2300 -0.2739
18812W        W34946  13.079  11.408  15.284  0.0134  0.1629  0.0077
18813W        W34947   2.318   0.046   5.410 -0.0258 -0.2021  0.3942
18814W        W34948   6.992   2.222  15.174 -0.2674  0.1438 -0.1149
18815W        W34949  12.726   3.471   2.962 -0.0099  0.0407  0.0650
18816W        W34950  11.314   9.386   0.687  0.2335  0.0243 -0.3415
18817W        W34951  16.673   1.241   3.682  0.1216 -0.1337 -0.1284
18818W        W34952  15.173  16.293   1.468  0.3423 -0.2716 -0.3427
18819W        W34953   8.666   3.532   2.050 -0.0732 -0.0309 -0.1265
18820W        W34954  10.570   6.298  11.282 -0.0828 -0.0322 -0.1227
18821W        W34955   4.480  13.632   5.148 -0.0673  0.0411 -0.2605
18822W        W34956  13.844  13.048   3.557 -0.0771 -0.0553 -0.1300
18823W        W34957  12.681  14.519  15.126 -0.1688 -0.3631 -0.1138
18824W        W34958  14.412   1.714   2.541 -0.0838  0.1403 -0.3034
18825W        W34959   1.175  15.822  12.544 -0.2702  0.1878  0.1961
18826W        W34960   1.630  13.330   5.534 -0.0747  0.1071 -0.0759
18827W        W34961  15.453   4.806   1.747 -0.2026  0.1105 -0.0515
18828W        W34962   1.137   1.812  15.007 -0.1520  0.1166 -0.2760
18829W        W34963   8.454   3.124  13.791 -0.3716 -0.1183  0.0261
18830W        W34964   5.863   4.936   0.440 -0.1484  0.0370  0.1720
18831W        W34965   2.248   1.922   4.434 -0.2516  0.1021  0.0529
18832W        W34966   8.804   0.314   1.842 -0.1994 -0.0190  0.2272
18833W        W34967   9.794  14.652  10.012  0.0694 -0.1571  0.1570
18834W        W34968  12.684  13.008  11.255 -0.0276  0.1039  0.1744
18835W        W34969  14.083   6.653  13.568 -0.0930 -0.1072 -0.0839
18836W        W34970   3.952   5.440  15.545 -0.0676  0.1144  0.2933
18837W        W34971   3.662   7.895   1.868 -0.1688  0.2058  0.1003
18838W        W34972  10.866   2.706   5.065 -0.0660 -0.0530  0.0890
18839W        W34973   4.473  11.602  12.025  0.2468  0.0820  0.1114
18840W        W34974  11.541  16.270   2.591 -0.1428  0.2545 -0.3670
18841W        W34975   0.721   9.416  12.361  0.0493 -0.2508  0.1317
18842W        W34976  17.930   4.322  11.214  0.2304  0.1340 -0.0324
18843W        W34977   1.317  15.768  12.035 -0.1393 -0.1041 -0.0059
18844W        W34978  15.178   0.108  11.558 -0.0273  0.0606 -0.0913
18845W        W34979   7.727   2.764   1.143 -0.1169 -0.0073 -0.0639
18846W        W34980   1.237  12.623   4.798  0.1314 -0.0526  0.0282
18847W        W34981  14.796   3.477  13.963 -0.0916 -0.1587  0.0193
18848W        W34982  17.602   5.490  14.247 -0.0133  0.2231 -0.0611
18849W        W34983   0.772  12.441  13.227  0.1813 -0.1172  0.0795
18850W        W34984  15.204   0.362  11.937  0.1451 -0.1235  0.1089
18851W        W34985  17.821  17.083  12.818 -0.0748 -0.3484  0.0430
18852W        W34986  14.965  15.096   4.688  0.1187  0.0540 -0.1184
18853W        W34987   2.722  16.743  13.694  0.0193  0.1587 -0.1802
18854W        W34988  10.372  11.144  14.823  0.0271 -0.1994  0.1202
18855W        W34989   1.983   4.237   3.588  0.1731  0.1966 -0.4448
18856W        W34990   1.669  11.369  14.941  0.4179 -0.0127 -0.0571
18857W        W34991  10.359   6.173  11.789 -0.0087 -0.3821 -0.0093
18858W        W34992  15.439   1.862  12.154  0.2943  0.2808  0.2887
18859W        W34993  16.007   4.343  14.255  0.1776  0.1396  0.0392
18860W        W34994  10.519   6.346   0.437  0.0330  0.0205 -0.0614
18861W        W34995  17.683  17.989  13.158  0.0679 -0.0314 -0.1386
18862W        W34996   1.099   1.015  11.530  0.0828 -0.1886 -0.1367
18863W        W34997  14.939   7.305  10.942 -0.2695  0.0810  0.1840
18864W        W34998   1.411   4.455   4.974  0.2075 -0.3396  0.1958
18865W        W34999  13.608  11.283  11.650 -0.1138  0.0613  0.3924
18866W        W35000   4.455  16.126   5.751  0.1679 -0.0825 -0.1656
18867W        W35001  11.928  13.789   3.449 -0.2337 -0.0151  0.2474
18868W        W35002  13.889   0.355   4.529 -0.0786  0.4626 -0.0202
18869W        W35003   7.106  13.833   4.372 -0.1057  0.0609 -0.1189
18870W        W35004  17.803   0.040   4.148 -0.0461  0.2146 -0.1983
18871W        W35005   3.466  12.040   3.381  0.0573  0.0839 -0.1606
18872W        W35006   2.715   9.723  13.478  0.0849  0.2494 -0.0060
18873W        W35007   8.717   4.663  15.457 -0.2034  0.0650 -0.0877
18874W        W35008   7.530  14.796  15.753 -0.2550 -0.2571  0.4934
18875W        W35009  16.475   9.630  11.300 -0.1319  0.1598 -0.0884
18876W        W35010  12.810  11.180   3.978  0.2479 -0.2202  0.2272
18877W        W35011   8.177   1.517  12.579 -0.0781 -0.4799 -0.1773
18878W        W35012  12.381  11.684   2.432 -0.1798 -0.3037  0.2263
18879W        W35013   2.939  10.419   3.561 -0.4975 -0.1822 -0.1061
18880W        W35014   7.126  12.231  11.172  0.0444  0.1820 -0.1324
18881W        W35015   0.144   5.127  15.281  0.0770  0.1452  0.1904
18882W        W35016  12.224  15.757  13.198  0.0105 -0.1914 -0.0992
18883W        W35017   3.849   0.211   4.668 -0.1168  0.0274 -0.0195
18884W        W35018   3.592  10.471   4.328 -0.1834  0.1124  0.0284
18885W        W35019   4.965  18.213  15.456 -0.1137  0.0352 -0.0243
18886W        W35020  17.429  11.505   0.517  0.0404  0.3116  0.1573
18887W        W35021  14.243   9.745   3.264 -0.0084 -0.0448  0.1717
18888W        W35022   3.977  17.788   3.762  0.0775  0.2168 -0.0978
18889W        W35023  11.229   4.036  13.631  0.1220  0.1525 -0.1771
18890W        W35024   2.932   7.593   2.464 -0.0926  0.0547 -0.0789
18891W        W35025   5.057  13.320   2.220  0.0791 -0.2155  0.0443
18892W        W35026   7.087  11.720  11.283 -0.0774 -0.4151  0.0153
18893W        W35027  13.254   6.503   4.699 -0.2286  0.0137  0.1569
18894W        W35028  11.590   2.051   5.131 -0.1731  0.0307  0.1892
18895W        W35029   0.010   8.405   5.987  0.0515  0.2047  0.1680
18896W        W35030   6.622   7.109   2.836  0.2203  0.2034  0.0986
18897W        W35031   5.066  14.593   1.566  0.0877  0.3880  0.1310
18898W        W35032   1.812  10.359  13.330 -0.0567 -0.0739  0.0660
18899W        W35033   3.184  13.302   1.210 -0.1416  0.1558  0.3851
18900W        W35034  14.007   1.188  12.115  0.0047  0.1189  0.0285
18901W        W35035   9.310   1.769   3.549 -0.0956 -0.0443  0.3492
18902W        W35036   3.562  16.351   2.925 -0.1208  0.2380  0.1337
18903W        W35037  16.833   2.294   0.310 -0.2618  0.2840  0.3567
18904W        W35038  16.626   8.416  12.837  0.3102  0.4390 -0.1945
18905W        W35039   0.008  17.642   4.905  0.3365  0.0825 -0.1970
18906W        W35040   6.392   7.011  15.665 -0.0255  0.1688  0.0207
18907W        W35041   7.021   8.790   3.283  0.2056  0.0476  0.0742
18908W        W35042   2.219  17.737  10.924 -0.3327 -0.1538  0.1541
18909W        W35043   9.587  11.811  12.903  0.0458  0.1616 -0.1116
18910W        W35044  13.108   4.763   4.305 -0.0059  0.2211 -0.1185
18911W        W35045  17.685   8.382   3.576 -0.2479  0.0733 -0.1740
18912W        W35046  11.020  11.005  13.095 -0.1304  0.0884 -0.2420
18913W        W35047   8.877   7.437   0.643 -0.1498 -0.0767  0.0125
18914W        W35048   5.314   0.708   1.544  0.2265  0.2605 -0.1465
18915W        W35049   0.499   7.699   1.762  0.0604 -0.1619 -0.0026
18916W        W35050  14.816   5.191   3.711 -0.1778 -0.1213  0.1083
18917W        W35051   1.896  11.916  13.479  0.0383  0.2796 -0.2566
18918W        W35052   0.942   8.628   4.707  0.0578  0.0765  0.1203
18919W        W35053  11.572  10.361   5.495 -0.0843  0.0029  0.0033
18920W        W35054  18.114  14.469  13.375  0.2434 -0.1857 -0.0872
18921W        W35055  11.634  15.834   2.200  0.0743  0.1733 -0.1197
18922W        W35056   9.235  17.016   2.700  0.1116 -0.0956 -0.0250
18923W        W35057  11.354   5.735  13.696 -0.0393 -0.1608  0.1423
18924W        W35058   2.116  15.926  12.861  0.0845 -0.1598 -0.4389
18925W        W35059  11.599   0.470   4.872 -0.0678  0.0758 -0.0977
18926W        W35060  12.542   7.574   2.548 -0.0745 -0.1977  0.0091
18927W        W35061  14.228   3.836   4.836 -0.0697  0.0230  0.3789
18928W        W35062  17.059  18.204   0.803 -0.4307 -0.0015  0.3183
18929W        W35063  10.920   6.681  12.503 -0.0520 -0.1278  0.0849
18930W        W35064  13.131   0.363  13.735  0.0489 -0.0624 -0.1056
18931W        W35065   6.024   9.578   5.076 -0.1867 -0.1490 -0.0915
18932W        W35066  12.102  12.630  14.202  0.0515 -0.0360  0.0111
18933W        W35067   4.519   9.647  12.687 -0.0694 -0.2431  0.1239
18934W        W35068  11.215  17.575  11.863  0.0457 -0.0559  0.0832
18935W        W35069   1.767   7.177  11.655 -0.0646  0.4444 -0.1835
18936W        W35070  17.505   0.863  12.759 -0.2315  0.0780  0.1712
18937W        W35071  16.880   4.113  15.591  0.2435  0.1572 -0.2229
18938W        W35072  12.790   2.322  14.994 -0.0228  0.0089 -0.2329
18939W        W35073  11.604   6.222  12.483  0.1480  0.0886  0.0394
18940W        W35074  14.812  18.361   3.525  0.0107 -0.1498  0.1191
18941W        W35075   5.252  17.834  15.746 -0.1757 -0.0097 -0.0549
18942W        W35076  10.349  10.749  12.001 -0.2757 -0.0940 -0.0812
18943W        W35077  17.131   3.130   3.918 -0.3543  0.0992  0.0631
18944W        W35078   7.027  13.795  14.079  0.1393  0.3663  0.2250
18945W        W35079  16.397  18.061   2.404 -0.0064 -0.2012 -0.1738
18946W        W35080   3.530   7.767   2.722 -0.0408 -0.0715  0.1536
18947W        W35081  17.262   1.326   2.162 -0.1163 -0.1786  0.4053
18948W        W35082   3.644  16.070   4.629 -0.1874 -0.0679 -0.5530
18949W        W35083   4.169   4.995  15.403  0.0323 -0.0769  0.1799
18950W        W35084  13.556   0.610  12.758  0.0778  0.3018 -0.1131
18951W        W35085  17.789  16.307   5.579 -0.1386 -0.3939 -0.0998
18952W        W35086   0.233   1.318  14.536  0.1571  0.1037  0.2165
18953W        W35087  17.386  16.148  13.457  0.2036  0.0140 -0.1003
18954W        W35088   7.211   6.068   1.023  0.0729 -0.2072 -0.1836
18955W        W35089   6.796  13.835  12.782 -0.2159  0.2455 -0.2693
18956W        W35090   4.683  18.008  14.409 -0.0998 -0.3291 -0.2142
18957W        W35091   1.058  13.642  15.158 -0.0949  0.0141 -0.0007
18958W        W35092  13.980  12.557   5.591  0.1539  0.2383  0.1701
18959W        W35093  16.550   8.594  15.229 -0.1175  0.1785 -0.0424
18960W        W35094   1.536   7.346   0.060  0.1776  0.1700 -0.0856
18961W        W35095  15.348  12.058  15.737 -0.0542 -0.1255  0.4812
18962W        W35096   4.763   1.807   1.006 -0.3581  0.1427 -0.3858
18963W        W35097  10.010  13.593  13.892  0.0528 -0.2062 -0.0676
18964W        W35098  14.487   1.367  12.277  0.0512 -0.0223  0.1446
18965W        W35099   0.923  13.323  10.812  0.3205 -0.0254  0.1977
18966W        W35100   6.683   6.123  12.788 -0.1284 -0.0046 -0.0036
18967W        W35101  18.226   4.862   4.651  0.3713  0.0780  0.0093
18968W        W35102  10.573   3.825  13.549  0.2208  0.2534 -0.1894
18969W        W35103   5.205  11.067   0.859 -0.0878 -0.0338  0.0407
18970W        W35104   5.374  10.178  11.499  0.3468 -0.1082  0.1793
18971W        W35105   5.087   4.863   5.905  0.0381  0.0550 -0.0786
18972W        W35106   4.813   7.567   2.483 -0.2080  0.3282  0.4451
18973W        W35107  10.906   4.417   4.540  0.0006  0.1277 -0.2351
18974W        W35108  13.807  13.871   0.926  0.1213 -0.2820 -0.2548
18975W        W35109   8.514   1.897  13.378 -0.1981 -0.0102  0.2458
18976W        W35110   4.463  17.178   4.248 -0.0895 -0.1621  0.2299
18977W        W35111   8.845   8.298   2.058 -0.2171  0.0757  0.0732
18978W        W35112  14.070  15.015  11.658 -0.1641  0.2269  0.1570
18979W        W35113  15.441   2.376  12.390  0.1074 -0.0730 -0.1760
18980W        W35114   4.112  14.023  10.698  0.1155  0.0919  0.1870
18981W        W35115  11.350  14.818   3.104  0.2765 -0.0573 -0.1390
18982W        W35116   6.507   9.721   0.179  0.1437 -0.2878  0.0508
18983W        W35117   9.297   4.631  14.601 -0.1418 -0.0469  0.0120
18984W        W35118  13.821  16.759  11.303  0.0704  0.1073 -0.1941
18985W        W35119   7.008  18.443  13.041 -0.4545  0.2181 -0.0208
18986W        W35120   8.086   3.225   1.226  0.0532  0.2238 -0.0066
18987W        W35121  12.282   7.554   0.784  0.0872 -0.1214  0.1468
18988W        W35122  16.584  11.426  11.662  0.2850  0.0058 -0.3596
18989W        W35123   0.372  10.854  15.070  0.0013  0.0643 -0.1426
18990W        W35124   4.785   7.253  10.768  0.1482 -0.2393  0.2285
18991W        W35125   5.942  12.772   2.931  0.1462 -0.2085  0.0843
18992W        W35126   5.462   9.542  12.043  0.0714 -0.2101 -0.1888
18993W        W35127   3.294   9.537  13.565 -0.3282 -0.0241  0.1210
18994W        W35128   1.089   5.549  13.242 -0.3342  0.1382 -0.1473
18995W        W35129   0.200  11.993  11.651 -0.2711  0.1624  0.0535
18996W        W35130  15.361  11.893   0.299  0.0004 -0.1811 -0.0654
18997W        W35131   3.087   8.055  12.018  0.4182  0.1371  0.1544
18998W        W35132  17.411  11.486  13.189 -0.4719  0.1417  0.2494
18999W        W35133   5.737  15.902   5.647 -0.0277  0.0015  0.1036
19000W        W35134  11.695  10.216   1.718 -0.1293  0.0206 -0.2004
19001W        W35135   0.078   3.611  12.632  0.2506  0.0336 -0.2359
19002W        W35136  12.438   7.898   1.810 -0.2612  0.0562  0.3091
19003W        W35137  13.303   5.098  10.246 -0.0300  0.3382  0.0170
19004W        W35138  17.106   9.738   5.111  0.1800  0.2071  0.1949
19005W        W35139  15.242  12.551  12.018 -0.1895 -0.3127  0.0769
19006W        W35140   3.727  15.018  15.865 -0.2868  0.2207 -0.1108
19007W        W35141   4.395   8.298   4.056 -0.1750  0.2186  0.0427
19008W        W35142   9.403  13.765  13.362 -0.1963 -0.1026  0.0975
19009W        W35143  17.932   7.188  13.649  0.2359  0.3077 -0.0122
19010W        W35144   6.578   1.169   5.252  0.2005 -0.2907 -0.3345
19011W        W35145  17.089  10.444  15.584  0.0463 -0.0195 -0.0393
19012W        W35146  18.413   9.667  11.135  0.1788 -0.0686 -0.2347
19013W        W35147  13.514  10.135  13.219 -0.2953  0.0475  0.1690
19014W        W35148   8.094   2.627  13.828 -0.1112  0.1289  0.0605
19015W        W35149  15.898  18.053   4.359  0.1192  0.1347  0.5312
19016W        W35150  15.145   6.733  15.011 -0.1959  0.0871  0.0586
19017W        W35151  13.664   3.650   2.933 -0.2794  0.1382 -0.1760
19018W        W35152   6.532   1.412   0.659 -0.5093 -0.0692  0.2824
19019W        W35153   1.300  18.058   0.765 -0.3677 -0.0881 -0.1068
19020W        W35154   6.751  10.458  10.219  0.0774 -0.0856 -0.2782
19021W        W35155  13.682  12.555   0.059  0.0612 -0.2348  0.0695
19022W        W35156  18.381  14.035  14.468  0.0695  0.1381 -0.0870
19023W        W35157  10.473  16.593   4.762  0.1338 -0.1923 -0.1614
19024W        W35158   8.853   2.385   1.927  0.1519 -0.2421  0.0323
19025W        W35159  10.110  16.220   3.332  0.4179  0.1760  0.0710
19026W        W35160  18.382   6.999   2.244 -0.3537 -0.2226  0.1657
19027W        W35161   0.166   4.798  11.138 -0.0437  0.0126 -0.1475
19028W        W35162   4.683   1.793   2.640 -0.0126 -0.0867  0.0109
19029W        W35163   9.113   0.014  15.326  0.2935 -0.0989 -0.1442
19030W        W35164   6.109  13.470   2.811 -0.0990  0.0085 -0.1350
19031W        W35165  14.401   9.645   2.808 -0.1417  0.0010  0.1008
19032W        W35166  18.301  12.982  14.205  0.0341 -0.1726 -0.1727
19033W        W35167   9.049  10.523  13.345 -0.1884  0.2721  0.2190
19034W        W35168  14.320   1.033  14.153  0.0059  0.0162 -0.0339
19035W        W35169  18.303  13.349   5.061 -0.1810 -0.2027  0.2085
19036W        W35170  10.886   2.111   4.321 -0.1278  0.0931 -0.1807
19037W        W35171  16.515  11.102  13.222  0.1236  0.0698  0.0017
19038W        W35172  10.998   8.717   3.056 -0.0031  0.2171 -0.0727
19039W        W35173  10.751   2.684  13.212  0.2979 -0.3750 -0.1799
19040W        W35174   1.870   4.519  12.303  0.2384  0.0728 -0.0722
19041W        W35175  14.639   5.355   1.518 -0.1774  0.3094 -0.0408
19042W        W35176   0.591   8.187   1.931  0.0604 -0.2409  0.1067
19043W        W35177   2.020   9.942  12.821  0.1303  0.0790  0.0881
19044W        W35178   6.643  15.298   0.274  0.1649  0.0171 -0.1275
19045W        W35179   0.728  16.861  15.555 -0.1591 -0.4421 -0.2670
19046W        W35180   6.835   1.879  11.350 -0.0093  0.0319  0.0870
19047W        W35181  14.935   7.470  12.276 -0.6173 -0.0511  0.0024
19048W        W35182   9.736   1.800   3.964  0.0251 -0.1266 -0.0359
19049W        W35183   0.958  12.398   4.025  0.0146 -0.1012 -0.1698
19050W        W35184   1.493  13.037   5.152 -0.4349  0.0534 -0.0851
19051W        W35185   9.923  12.708  15.791 -0.0993 -0.0013  0.1904
19052W        W35186   3.811   3.198  11.196 -0.0375  0.0753 -0.1456
19053W        W35187   0.956   1.042  11.024 -0.1401 -0.1065  0.1263
19054W        W35188  13.156   6.601  12.105  0.1183 -0.3402 -0.1207
19055W        W35189   1.477   5.941  12.675  0.1067  0.1453  0.2022
19056W        W35190  15.790   7.996  12.195  0.1318 -0.0356 -0.2711
19057W        W35191  10.092   7.052   0.486 -0.0032  0.0922 -0.3083
19058W        W35192   7.759  10.307   2.800  0.2139 -0.0028  0.2568
19059W        W35193  10.725   7.835   2.256  0.0131 -0.0689 -0.1157
19060W        W35194   8.118   4.006  13.831 -0.0584  0.0169 -0.3504
19061W        W35195   3.013   0.348  12.150  0.1001  0.3558 -0.0943
19062W        W35196  18.332  14.424   3.951 -0.3682 -0.3723  0.2785
19063W        W35197   4.184   1.840  13.675 -0.2526 -0.1062 -0.2179
19064W        W35198   6.583  12.121  13.960 -0.0480  0.0522 -0.1474
19065W        W35199  11.907  17.269  12.338  0.0260  0.0186  0.2025
19066W        W35200   7.850   8.626   3.994  0.0662 -0.0975  0.0864
19067W        W35201  17.231  15.686   1.185 -0.3818 -0.1084 -0.1637
19068W        W35202   2.935   8.207  12.538  0.2435  0.0102 -0.1027
19069W        W35203   7.288   2.208  15.642 -0.1782  0.0057  0.0260
19070W        W35204  13.640   1.548  13.870 -0.1543 -0.0418 -0.1843
19071W        W35205   8.635   4.868   4.675 -0.2525 -0.1658  0.0910
19072W        W35206   3.320   2.375   3.761  0.2292  0.1250  0.0517
19073W        W35207  13.985   2.830   0.195 -0.1127  0.0085  0.1742
19074W        W35208   6.617   9.081  11.648 -0.0602 -0.0683  0.2108
19075W        W35209   9.631   1.213  11.995 -0.0745  0.1708  0.0632
19076W        W35210  15.352   1.696   2.741  0.0772 -0.1068  0.0162
19077W        W35211   2.094   3.275  12.753  0.0398 -0.2230 -0.1666
19078W        W35212   4.121  15.090   5.219  0.2728 -0.0195  0.0042
19079W        W35213   9.923  10.174   5.321 -0.3287  0.0984  0.2287
19080W        W35214   2.072  11.275  13.038 -0.0308  0.0163  0.0381
19081W        W35215  11.291   9.599   2.437 -0.0668  0.1198  0.5229
19082W        W35216  13.557  10.502  14.575 -0.2808  0.0821  0.1273
19083W        W35217  16.096   6.536   3.924 -0.0643  0.0798 -0.1595
19084W        W35218   5.309   2.370   5.290  0.0343  0.2435 -0.1017
19085W        W35219  14.096   3.763   3.275 -0.0263 -0.1355  0.3662
19086W        W35220  17.377  10.275  11.241 -0.1004 -0.2010  0.1184
19087W        W35221   2.440   4.307   3.858  0.0432  0.3505  0.0595
19088W        W35222  17.210  10.736  11.126 -0.0450 -0.1370 -0.4111
19089W        W35223  13.630  12.442   0.839 -0.0818 -0.0972 -0.1323
19090W        W35224   7.932   4.334  14.363  0.0441  0.0394 -0.2229
19091W        W35225   4.287  12.083   4.195 -0.0538  0.1367 -0.3030
19092W        W35226  17.177   7.270   4.303  0.1048  0.3034 -0.0036
19093W        W35227   3.397   8.523   2.696 -0.1872 -0.0987  0.2556
19094W        W35228   4.663   8.227  11.097  0.3382 -0.4974 -0.1749
19095W        W35229   6.255  17.196   5.032  0.0459  0.1384  0.0481
19096W        W35230   3.960   0.526  13.239 -0.0911  0.0134 -0.1739
19097W        W35231   2.763   8.910   9.360 -0.1883  0.1178  0.1889
19098W        W35232  17.528  12.069  15.344  0.1617 -0.1640  0.0043
19099W        W35233   8.103   9.066   2.544 -0.0523 -0.0417 -0.0340
19100W        W35234  16.784   6.611   4.947 -0.0578 -0.0507  0.3102
19101W        W35235   1.603  13.110   0.400 -0.0001 -0.2662  0.4352
19102W        W35236  16.303  12.119  12.397  0.1166 -0.3747  0.1718
19103W        W35237   9.014  16.298  12.210  0.0963 -0.0112  0.1782
19104W        W35238  16.573   3.697  15.360 -0.1438  0.4111  0.0638
19105W        W35239   5.462  15.626   3.137 -0.2539 -0.0349  0.0234
19106W        W35240  17.402   1.524   4.234  0.0637  0.0228 -0.1839
19107W        W35241  10.215  13.179   1.883  0.0067  0.0319  0.3723
19108W        W35242  11.248   4.853  15.392 -0.0971 -0.0416 -0.0626
19109W        W35243   7.117  17.517   4.545  0.3372  0.0956 -0.1141
19110W        W35244   9.791  12.769  12.102  0.2978 -0.4288 -0.3394
19111W        W35245  13.057   7.652   2.770 -0.0142  0.0508  0.3693
19112W        W35246  12.739   6.032  15.037  0.1730 -0.1552 -0.1605
19113W        W35247  18.331  12.782  11.446  0.0765 -0.0051 -0.0261
19114W        W35248  15.924   4.569  13.845 -0.0381 -0.3034 -0.0666
19115W        W35249  10.682  13.928  12.143 -0.0419  0.0600 -0.0640
19116W        W35250   4.193  14.897   0.040 -0.1085 -0.0994 -0.1551
19117W        W35251   1.460   8.325   1.614  0.0640 -0.0092  0.1704
19118W        W35252   3.912   2.545   2.663  0.1526  0.0838  0.3261
19119W        W35253  11.738   9.201  10.100  0.1681 -0.0358  0.0074
19120W        W35254   9.069   8.751  15.359  0.1589  0.1726  0.0054
19121W        W35255   0.524   8.217  13.644 -0.0612 -0.0336 -0.1056
19122W        W35256  17.868   7.338   5.216 -0.0203 -0.1527 -0.0036
19123W        W35257   0.197   3.668   1.139 -0.1292 -0.0251 -0.0330
19124W        W35258  10.577   7.473   1.276  0.0111  0.1588 -0.1490
19125W        W35259   3.061   6.306   2.503 -0.0252 -0.2430  0.1169
19126W        W35260   2.393   0.333  14.099 -0.2559 -0.0143  0.2509
19127W        W35261   1.832   2.141   4.181 -0.0321  0.1062  0.1787
19128W        W35262  14.460  15.798  11.953 -0.2779 -0.2132 -0.0970
19129W        W35263   8.667   0.611  12.810 -0.0821  0.1555 -0.0627
19130W        W35264  14.611  13.941   4.530 -0.2025 -0.0911 -0.2000
19131W        W35265   3.301   8.825   3.510 -0.1874 -0.2737  0.0413
19132W        W35266   9.909   7.513   2.596 -0.0734 -0.0949 -0.2362
19133W        W35267   7.293  12.866  12.543  0.2262 -0.1892  0.1234
19134W        W35268   1.016   4.492  11.627 -0.0895  0.2352 -0.2402
19135W        W35269   7.975  16.544   6.266 -0.0099  0.2118 -0.0382
19136W        W35270  10.675   2.147   0.332  0.0038  0.0319  0.2002
19137W        W35271   8.771  10.330  15.146 -0.1115 -0.0048 -0.2236
19138W        W35272  12.509  13.456  12.496  0.1286  0.0311 -0.0723
19139W        W35273  10.984   5.135  10.886 -0.2825 -0.0701 -0.0157
19140W        W35274  14.413   0.533   4.859 -0.2402 -0.1191 -0.0507
19141W        W35275  15.096  14.792   0.483 -0.3040  0.0349 -0.2778
19142W        W35276  17.959  12.574   3.089 -0.0186  0.2774  0.1463
19143W        W35277   0.659  17.483   0.410 -0.0481 -0.1432  0.0515
19144W        W35278   1.471  15.698   2.375 -0.0908  0.2597 -0.0436
19145W        W35279  12.495   5.833  12.229 -0.1300  0.0789 -0.1036
19146W        W35280   6.097  12.015  12.266 -0.1397  0.2564  0.3234
19147W        W35281   7.117   8.545  14.341  0.2986  0.0071 -0.4444
19148W        W35282   6.483   9.266   0.418  0.2037  0.2734 -0.1265
19149W        W35283   5.542  11.526   5.259  0.0199 -0.0891  0.3470
19150W        W35284  13.332  11.642   1.848 -0.3725  0.0210 -0.4176
19151W        W35285  11.331   1.497   9.984 -0.1743 -0.2501  0.0825
19152W        W35286   8.648  11.709   4.935 -0.0789  0.1208  0.3475
19153W        W35287   6.310   5.188  13.779  0.3922 -0.0956  0.2697
19154W        W35288   3.387  11.480  10.561 -0.0992 -0.1056 -0.1648
19155W        W35289  16.842  17.496   1.584  0.2052 -0.1800 -0.0123
19156W        W35290  10.149   9.535  15.878  0.1510  0.2315  0.1461
19157W        W35291  17.711   0.659  12.286 -0.3417  0.0725 -0.0578
19158W        W35292  11.122   0.280   5.072 -0.0766  0.0249 -0.0664
19159W        W35293   9.622  11.604   0.560  0.0158 -0.1707 -0.1881
19160W        W35294  16.102   1.321   3.755  0.1935  0.3645 -0.2433
19161W        W35295  16.042   3.415   3.035  0.0812  0.2586 -0.0026
19162W        W35296   8.508   4.355   3.983  0.0620 -0.2425  0.1453
19163W        W35297   5.033   4.537   2.648 -0.5368 -0.0826  0.0513
19164W        W35298   4.534   3.822  10.867  0.6166  0.0910 -0.4106
19165W        W35299  11.590   9.442   5.485  0.0425 -0.2483 -0.0186
19166W        W35300   3.689  12.115   4.080 -0.2478 -0.3185  0.3092
19167W        W35301   1.029  15.856   0.602 -0.2096  0.2174 -0.1595
19168W        W35302  17.917  14.932  15.288 -0.1110 -0.3507 -0.0353
19169W        W35303   5.809   2.810  12.079  0.2335  0.1604  0.0277
19170W        W35304  18.198   1.653   1.309  0.0800 -0.0730  0.1496
19171W        W35305   6.026   5.320  13.339  0.2341 -0.2169  0.2863
19172W        W35306  12.127  16.268  12.111 -0.0727  0.2733  0.0764
19173W        W35307  11.448   8.277  13.578  0.0660  0.0504 -0.1140
19174W        W35308  10.927   7.142   1.055 -0.2685 -0.1600  0.2061
19175W        W35309   4.109  18.288   0.259 -0.1604 -0.0895 -0.2639
19176W        W35310  14.774   7.780  11.313  0.0402 -0.0038 -0.3452
19177W        W35311   8.900   6.580  14.842 -0.0820  0.1025  0.0605
19178W        W35312   7.944   1.432   4.809  0.3678  0.0583 -0.0701
19179W        W35313   4.356   8.661   0.282 -0.1312  0.0545 -0.1072
19180W        W35314  12.677   8.988   3.155 -0.0243 -0.3405  0.1753
19181W        W35315   3.427   9.943   3.468 -0.2820  0.1227 -0.0271
19182W        W35316   7.373  15.794  10.551 -0.2747 -0.0667  0.2685
19183W        W35317   6.723  18.436  15.365  0.0274 -0.0547 -0.1404
19184W        W35318  11.140   6.264  12.752 -0.0834 -0.0841  0.1921
19185W        W35319  16.211   6.615  12.055 -0.1449 -0.0635 -0.0266
19186W        W35320  10.317   0.438   1.051 -0.0910  0.0636  0.4013
19187W        W35321   9.110   3.100   3.673  0.2722  0.1151 -0.1248
19188W        W35322  13.203  14.232   2.194  0.0296 -0.1424  0.1814
19189W        W35323  14.589   8.510   1.687 -0.0420  0.2298  0.0365
19190W        W35324  17.849  11.750   2.472  0.2537  0.2684  0.0167
19191W        W35325  14.603  17.777   1.962  0.3701 -0.1798  0.2359
19192W        W35326  12.360  18.331  13.788 -0.0021 -0.1261  0.0738
19193W        W35327  11.125   7.299  11.811  0.3426 -0.2512 -0.2662
19194W        W35328  14.875  18.128  14.054  0.3182 -0.1927  0.1739
19195W        W35329   7.405   3.171  11.725 -0.1864  0.1212  0.2098
19196W        W35330  13.880   0.877   0.889  0.1767  0.0811 -0.3602
19197W        W35331   4.560   5.149  15.112  0.0403 -0.1506 -0.3324
19198W        W35332   7.323  17.600  11.073  0.2574 -0.1416 -0.3517
19199W        W35333  15.279   4.961  11.413  0.0509  0.1313 -0.0671
19200W        W35334  15.702   6.116   2.347 -0.0849 -0.0582  0.0520
19201W        W35335   7.547  16.119   0.225  0.2190  0.1226  0.0808
19202W        W35336  18.047   9.327  13.611  0.3344 -0.1159  0.1216
19203W        W35337   6.907   7.967   1.183  0.1086 -0.1232  0.0314
19204W        W35338   6.995   4.714  14.002  0.0898 -0.1423  0.0230
19205W        W35339  18.019   9.144   3.766  0.3023  0.3583 -0.3293
19206W        W35340  10.886  11.484   4.909 -0.2033  0.2044  0.3181
19207W        W35341  17.293   6.207   2.085  0.1815 -0.0042  0.0685
19208W        W35342   5.016   1.003  15.189  0.0973 -0.0159 -0.0159
19209W        W35343   2.500  16.216   0.671  0.0171 -0.0654 -0.1501
19210W        W35344  16.180   0.805  13.928  0.2230  0.0147  0.0783
19211W        W35345   0.091  11.074  13.757  0.0629 -0.3285  0.0649
19212W        W35346  17.484   0.234   3.836  0.4008  0.1910  0.0068
19213W        W35347   6.487   7.593  12.608 -0.1469 -0.2377 -0.0073
19214W        W35348  11.762   7.794  15.117  0.2840 -0.0508  0.0595
19215W        W35349   0.421   3.272   3.303  0.2189 -0.2715 -0.3033
19216W        W35350   8.502   1.099   2.889 -0.2660  0.0386 -0.2167
19217W        W35351  15.364   5.811  11.312  0.1473 -0.3641 -0.0169
19218W        W35352   1.301  16.327   0.464  0.4869  0.0341  0.0606
19219W        W35353  13.058   5.066  14.216  0.2590  0.2197 -0.0553
19220W        W35354   2.072   7.689   9.977 -0.0418  0.1539 -0.0816
19221W        W35355  18.310   6.423  13.805  0.2984  0.2275  0.3965
19222W        W35356  11.542  13.327   4.077 -0.1737  0.0871  0.1950
19223W        W35357   6.975  16.359   9.990  0.0817  0.0907  0.1555
19224W        W35358  10.747  10.180   4.823  0.0290  0.0554  0.6110
19225W        W35359   8.301   3.755  15.749 -0.0524  0.0600 -0.0222
19226W        W35360  16.767  11.480  13.758  0.6009  0.0594 -0.2940
19227W        W35361   6.618  16.267  13.872  0.1223  0.2008 -0.0300
19228W        W35362   8.195   5.795  11.129  0.1111 -0.0423  0.0420
19229W        W35363  10.944   8.486   4.354 -0.0575  0.0621  0.2421
19230W        W35364  17.198  11.495   3.355 -0.0752  0.2274 -0.0142
19231W        W35365   2.194   7.625  10.439 -0.0138 -0.0208 -0.0354
19232W        W35366   9.247  12.028   3.735  0.2832  0.0328 -0.0527
19233W        W35367   8.604   4.578   0.808  0.0869  0.1712 -0.0497
19234W        W35368  14.277   1.230   2.867 -0.2202 -0.2718 -0.0373
19235W        W35369  11.966  10.221   4.681  0.1507 -0.2358  0.2848
19236W        W35370   9.177  10.013  12.307  0.1152 -0.1132  0.1000
19237W        W35371   1.467  11.824  11.107  0.1457  0.1547 -0.2625
19238W        W35372   7.277  12.274  15.120 -0.0882  0.1081 -0.2579
19239W        W35373  16.931   4.128  12.688  0.0962 -0.1238 -0.0096
19240W        W35374  10.173  11.524   2.345 -0.2539  0.0692 -0.0425
19241W        W35375  16.819   8.614  13.698 -0.3270  0.0809  0.2908
19242W        W35376  17.435  11.992   1.769 -0.2873  0.1004  0.3665
19243W        W35377  16.356  14.203  12.018 -0.3482 -0.1656 -0.0960
19244W        W35378   4.337  13.166  11.553  0.1402  0.2112  0.1825
19245W        W35379   0.115   2.370   1.772  0.2662  0.1618  0.1801
19246W        W35380  15.251  12.074  14.402  0.1098  0.1303 -0.0335
19247W        W35381   9.447   6.988  11.222 -0.1076 -0.2083 -0.1128
19248W        W35382  16.626   3.323  13.522  0.0681  0.1856 -0.0621
19249W        W35383   5.604  17.868  14.101  0.2684 -0.2651 -0.2408
19250W        W35384  17.313  17.627  13.384 -0.0524  0.3338 -0.1293
19251W        W35385  14.203   0.469   2.970 -0.0016  0.3380 -0.0431
19252W        W35386   3.053   0.823  12.260 -0.0164  0.0423  0.0632
19253W        W35387  15.275   6.756  14.348  0.0592  0.2018 -0.0462
19254W        W35388  10.803  18.210   2.461 -0.0315  0.0988 -0.1385
19255W        W35389   0.230   2.293  12.656 -0.0662 -0.0096 -0.1087
19256W        W35390   7.694  12.796  15.603 -0.4562 -0.0861  0.3689
19257W        W35391  14.442   1.814   3.064  0.1361 -0.1685 -0.0999
19258W        W35392  14.977  10.343   0.422 -0.2040 -0.0962 -0.0137
19259W        W35393  16.742   1.985  15.255 -0.1524  0.1913  0.0491
19260W        W35394   4.166   5.929  10.717 -0.1083 -0.4134  0.1543
19261W        W35395   5.659   5.821   4.339  0.1124 -0.2475 -0.0828
19262W        W35396  14.273   3.582   9.959 -0.2650  0.1966 -0.1707
19263W        W35397  13.632   5.656   0.443 -0.0833 -0.1096 -0.1124
19264W        W35398  12.052   0.346   3.165 -0.1862  0.0053 -0.0520
19265W        W35399   9.672   6.875  13.294  0.1147 -0.0369 -0.0482
19266W        W35400   0.252  13.422   5.425 -0.3057  0.2300  0.0992
19267W        W35401  11.550   5.205   3.412  0.0098 -0.1099 -0.1580
19268W        W35402  15.279  15.817   0.196 -0.0739 -0.1037 -0.1976
19269W        W35403  16.039   6.459  11.481  0.0333  0.2287 -0.6161
19270W        W35404   4.984  15.555   2.704  0.1662 -0.3422  0.1163
19271W        W35405  16.713  17.116  11.948  0.0058  0.1677 -0.1019
19272W        W35406   5.987   1.804   2.959  0.0692 -0.2047  0.0206
19273W        W35407  12.183   4.580   5.845  0.1361  0.1042 -0.1636
19274W        W35408   5.566   9.332   0.383 -0.0021  0.0206 -0.1826
19275W        W35409   9.667  17.046   2.903  0.2000  0.1403 -0.1162
19276W        W35410   3.665   2.496  14.709 -0.0875 -0.1472 -0.0369
19277W        W35411  17.120   1.661   3.110 -0.5766 -0.2852 -0.2057
19278W        W35412   0.019  11.253  14.247 -0.1189  0.2412  0.2008
19279W        W35413  13.158   3.686   3.749 -0.4480 -0.3264 -0.3333
19280W        W35414  10.416   6.970  13.928  0.0008 -0.0835 -0.1709
19281W        W35415   8.137  18.397   3.684  0.0549  0.1213  0.0193
19282W        W35416   6.995   1.207   4.603  0.0487  0.2129  0.0804
19283W        W35417  11.509   9.563  14.996 -0.2031 -0.1923 -0.1386
19284W        W35418  13.055  17.443  15.250  0.0993 -0.2283  0.0862
19285W        W35419  14.443  10.453   0.839  0.1272  0.2349  0.0575
19286W        W35420  11.495   9.279  13.266  0.0287 -0.0552  0.1990
19287W        W35421  11.475   2.084  12.810  0.0356  0.1238  0.0011
19288W        W35422   3.580   2.061  15.638  0.1151  0.2532 -0.0682
19289W        W35423  15.745  17.624  10.951 -0.0136  0.0520 -0.1867
19290W        W35424   4.504   0.866  15.178  0.2228  0.0168 -0.3274
19291W        W35425   0.012  14.220  12.433  0.0436 -0.5176  0.0391
19292W        W35426   1.935  17.347  15.057 -0.0456 -0.0725 -0.0663
19293W        W35427   2.034   1.731   3.822 -0.2538  0.0468 -0.0918
19294W        W35428  13.434  15.018   3.699 -0.0053 -0.1566  0.0332
19295W        W35429  13.750  16.451  15.825 -0.0749 -0.0325  0.0277
19296W        W35430  15.032   9.028  11.452  0.2421  0.0782 -0.0043
19297W        W35431   4.945  17.583  12.969 -0.0267  0.2295  0.1939
19298W        W35432   8.078  16.094  11.358  0.0864  0.2031 -0.0824
19299W        W35433   6.325   5.029   0.569  0.0456  0.4382  0.2353
19300W        W35434   2.707  12.549   0.888  0.0514 -0.1650 -0.0413
19301W        W35435   1.322   8.504  14.573  0.1082 -0.2481  0.2811
19302W        W35436  11.482   2.264   1.253 -0.0438  0.2290 -0.0851
19303W        W35437   0.566  12.595  12.054  0.3957 -0.0579 -0.1816
19304W        W35438   2.092   6.120   4.368  0.1655 -0.1818  0.0595
19305W        W35439   1.604   8.487   9.412 -0.5607 -0.2566 -0.1138
19306W        W35440  15.371   0.729  15.579 -0.2476 -0.0541  0.3297
19307W        W35441   1.639  12.313   3.580 -0.0122 -0.1052  0.1894
19308W        W35442  16.163   7.551  13.677 -0.1613  0.0882 -0.1263
19309W        W35443  11.217   2.917  11.831 -0.0263  0.0508 -0.0487
19310W        W35444  10.874   5.603  15.208 -0.2421  0.1247 -0.0962
19311W        W35445   5.853   5.039  12.269  0.2165  0.1774  0.2179
19312W        W35446   9.468  10.395   1.739  0.0107  0.1289 -0.4303
19313W        W35447  15.027  10.345  14.982  0.0630  0.0184 -0.2173
19314W        W35448   6.054  16.571   1.091 -0.1423  0.0668  0.0806
19315W        W35449  11.867  12.268  14.481 -0.1517 -0.1031  0.0221
19316W        W35450   1.120  12.978  13.254  0.0614  0.0819  0.1375
19317W        W35451  12.045   5.093  15.134  0.1676 -0.0340  0.3528
19318W        W35452  12.507   6.998   0.936 -0.1067  0.0178 -0.1265
19319W        W35453  11.066  14.156   3.783  0.1051  0.0935 -0.2577
19320W        W35454  11.452   2.706  11.381  0.0190 -0.0112  0.0034
19321W        W35455  13.646  14.320   0.936 -0.3616 -0.4033  0.0977
19322W        W35456   2.778   9.712   5.250  0.1667 -0.0564 -0.0623
19323W        W35457   2.010   0.087   3.317 -0.1649 -0.1311  0.2168
19324W        W35458   3.727   9.530   1.337  0.0853 -0.0931 -0.0104
19325W        W35459   4.411   9.469   4.822 -0.0286  0.2107 -0.1018
19326W        W35460  12.550   0.978  14.447 -0.0284  0.0624 -0.2216
19327W        W35461   4.515  17.720   0.994  0.1607 -0.0799 -0.1026
19328W        W35462   3.853   8.414  12.102 -0.2142  0.1330 -0.0655
19329W        W35463  14.121   0.828   4.363  0.0128 -0.1920  0.1795
19330W        W35464   7.028  18.403   1.863  0.0687 -0.1862  0.0355
19331W        W35465   1.549  12.792  12.106  0.3909 -0.1155 -0.0326
19332W        W35466   5.867   0.333  14.989 -0.0462 -0.2116  0.1540
19333W        W35467   9.680   3.200  12.285 -0.4344 -0.1227 -0.0010
19334W        W35468   2.684  12.556   4.958  0.0454  0.1391 -0.1645
19335W        W35469  18.123  14.017   2.574  0.0150  0.2144 -0.0188
19336W        W35470   8.388  12.293   2.548  0.0483 -0.1885 -0.1354
19337W        W35471   1.205   2.322   1.558 -0.3317 -0.1146 -0.1933
19338W        W35472   1.877   2.451   0.661  0.1305 -0.0377  0.0241
19339W        W35473  14.464   9.387   3.567  0.2994  0.0801 -0.1135
19340W        W35474   9.112   9.706  13.129  0.0380  0.0817  0.0622
19341W        W35475   7.507   1.326  11.430  0.0199 -0.1906 -0.2525
19342W        W35476   6.009   9.433  11.151 -0.0862  0.1584  0.0166
19343W        W35477  13.393   5.728   5.270 -0.2834  0.0811 -0.1710
19344W        W35478   2.026  11.295   4.629 -0.1762 -0.3689  0.0974
19345W        W35479  13.609   7.250   3.427  0.0084 -0.3272  0.2809
19346W        W35480  17.339  10.922  13.138  0.0067 -0.1446  0.1443
19347W        W35481   3.158   3.495   1.475  0.1583 -0.0883 -0.0262
19348W        W35482   9.790  14.788   5.560  0.1804 -0.1099  0.0132
19349W        W35483  12.308   2.708   2.325 -0.2469  0.0574  0.0351
19350W        W35484  16.912   9.140   0.811 -0.2387  0.2159  0.1360
19351W        W35485   6.746   3.988   2.776 -0.2456  0.0152  0.1830
19352W        W35486   8.790   7.191  12.266 -0.1998 -0.1188 -0.1434
19353W        W35487   2.552  15.005  11.330 -0.0808 -0.1542  0.1837
19354W        W35488   8.655   9.748  14.357 -0.3075  0.0600  0.0970
19355W        W35489  15.232  11.410   4.165 -0.2148  0.0912  0.2361
19356W        W35490   4.549  13.875   3.630  0.1544 -0.2335 -0.3118
19357W        W35491   3.308   5.297  14.937  0.1558  0.0763 -0.0051
19358W        W35492  11.468  13.747   3.206 -0.2296  0.2011 -0.3965
19359W        W35493  15.966   6.949  11.669  0.1357  0.2921  0.3087
19360W        W35494  15.882   8.138   2.236  0.1623  0.4009  0.0724
19361W        W35495   8.198  14.109   2.837 -0.2029 -0.0946  0.1580
19362W        W35496   1.115  15.081   4.358 -0.0817  0.0692  0.2713
19363W        W35497   4.329   3.715   5.701 -0.0032  0.2085  0.0344
19364W        W35498   5.253   3.181  11.312  0.2254 -0.0031 -0.0064
19365W        W35499   1.508   1.210   4.282  0.2839  0.0717  0.0340
19366W        W35500  12.642   1.554  13.062 -0.1391 -0.1901  0.2048
19367W        W35501   3.462  13.241   4.870 -0.1499  0.1059  0.0596
19368W        W35502  17.664  16.189  14.789  0.1491 -0.2209  0.0133
19369W        W35503   1.008  14.994   0.736  0.1974  0.4763 -0.2805
19370W        W35504   9.244  17.268   4.258  0.1741 -0.1469  0.1929
19371W        W35505   4.892  14.039  14.055  0.0032  0.0476  0.0753
19372W        W35506   8.148  12.291   1.307  0.0188 -0.2653  0.0350
19373W        W35507  17.053  11.180  12.049  0.0289  0.1172 -0.4937
19374W        W35508  12.362  14.945   0.190 -0.1497 -0.1370  0.1676
19375W        W35509  10.612  13.376   5.599 -0.1649 -0.0259 -0.0613
19376W        W35510  12.688   2.365  13.632  0.2268  0.1108 -0.1573
19377W        W35511   4.027   2.466  12.506  0.2002  0.2459 -0.0353
19378W        W35512  16.354   7.329  12.119  0.1461 -0.1568  0.0710
19379W        W35513  11.696   4.842  12.635 -0.1474 -0.1256 -0.1656
19380W        W35514   8.079   4.412   2.320 -0.2313  0.0529 -0.2655
19381W        W35515   4.969   3.908   1.422  0.2470  0.1004 -0.0758
19382W        W35516   4.479   5.489  15.480 -0.2585  0.1012 -0.2655
19383W        W35517  16.555   5.579  14.920  0.0728 -0.3080 -0.0715
19384W        W35518   3.871   4.651  14.587 -0.2078  0.1122  0.1610
19385W        W35519  17.266   4.999  13.783  0.1643 -0.0602 -0.1899
19386W        W35520   6.391   0.544  12.152 -0.2531  0.0341 -0.0941
19387W        W35521   2.517  16.663  14.280 -0.1659 -0.0602  0.1528
19388W        W35522   6.030   5.379   0.644  0.0898 -0.1702 -0.0939
19389W        W35523   2.449   9.779  11.484  0.0048  0.0075 -0.0133
19390W        W35524   6.043   3.276   4.724 -0.2246  0.1701  0.2219
19391W        W35525   0.752  16.028  13.375 -0.3015  0.1097 -0.0861
19392W        W35526   9.057   1.854   1.897  0.0454 -0.1750  0.0242
19393W        W35527  16.604  11.201   2.315  0.3760 -0.0204 -0.1460
19394W        W35528   4.873   6.190   4.179 -0.0860  0.1947  0.2626
19395W        W35529  12.494   2.302   1.982  0.0395  0.0599 -0.0697
19396W        W35530  13.269   3.338  12.535 -0.2510  0.1459  0.1507
19397W        W35531   8.278  14.314   3.352  0.2003  0.2020  0.0775
19398W        W35532   2.064  10.869   4.911 -0.2734  0.2678  0.0156
19399W        W35533  11.199   5.965  12.204  0.2246  0.1485 -0.1575
19400W        W35534   0.418   3.524  12.199 -0.0617 -0.0496  0.0966
19401W        W35535  13.377   1.094   1.330 -0.1069  0.2320  0.0401
19402W        W35536   0.852   4.239  12.155 -0.1200 -0.0639  0.2831
19403W        W35537  14.473   6.158  14.895 -0.0793 -0.0034  0.0663
19404W        W35538  10.256   7.429   4.338 -0.2784  0.1567  0.1568
19405W        W35539  13.124   3.792   2.087 -0.2033 -0.2623  0.0317
19406W        W35540  11.686   8.867  13.960 -0.2785  0.0291  0.1209
19407W        W35541  15.242   3.495   5.235 -0.0654 -0.0342  0.0792
19408W        W35542  15.994  17.685   5.132 -0.1098 -0.4587 -0.1211
19409W        W35543  15.315  17.980   2.796  0.1247 -0.1393 -0.1799
19410W        W35544  16.289   3.351   3.832 -0.1884  0.0626  0.3031
19411W        W35545  11.905   9.517   4.237  0.3764  0.3039  0.0433
19412W        W35546   7.443   9.673  11.926 -0.0182 -0.0258  0.0867
19413W        W35547   9.164   1.160  14.861  0.5077  0.0089 -0.0899
19414W        W35548   5.628   7.503  12.936  0.1620  0.0669  0.0777
19415W        W35549  17.937   5.279   2.832  0.0546  0.3339  0.0729
19416W        W35550   7.677  17.035  13.641 -0.3476  0.3435  0.0479
19417W        W35551  12.337  10.888   5.625  0.1450 -0.1201 -0.0544
19418W        W35552  13.999   3.816  10.232  0.1023  0.2256  0.1473
19419W        W35553   5.334  15.436   4.508  0.3222  0.1841  0.1127
19420W        W35554   8.432   0.931  14.328  0.4086 -0.1913 -0.1699
19421W        W35555   2.638   7.897   0.701  0.1552  0.2304 -0.3948
19422W        W35556  11.113   5.400   3.649  0.0427 -0.2221 -0.0978
19423W        W35557   4.163  13.860   2.402 -0.2010 -0.0105 -0.0062
19424W        W35558  16.183   3.776  15.701 -0.1966  0.1505  0.0839
19425W        W35559  16.344  12.167   5.437  0.1584 -0.2789 -0.0720
19426W        W35560  16.813   3.847   3.604 -0.1063 -0.0042  0.0087
19427W        W35561   3.126   2.485   2.042  0.2199 -0.1985  0.0882
19428W        W35562   1.764  12.850  13.853  0.0732  0.1307  0.1792
19429W        W35563   0.905  18.336   0.935 -0.1338 -0.5216 -0.1300
19430W        W35564   8.241   4.592  14.694  0.0379  0.2479  0.0542
19431W        W35565   4.414  11.543   3.973 -0.2178  0.0176 -0.2542
19432W        W35566   6.725  13.097   0.313 -0.1287  0.0334  0.1108
19433W        W35567   0.462   9.753  10.060 -0.0919  0.1281 -0.1569
19434W        W35568   9.217   8.164  12.833  0.0104 -0.1951  0.0643
19435W        W35569   9.980   1.240   1.260  0.2591 -0.1481 -0.0089
19436W        W35570  13.326   0.844   3.056 -0.1538  0.1244  0.3077
19437W        W35571   8.133  11.315  12.652 -0.0960 -0.2563 -0.0645
19438W        W35572  11.236  16.684   1.792 -0.2119  0.3908  0.1430
19439W        W35573   9.824   5.136  11.911  0.3339 -0.1511 -0.1156
19440W        W35574   0.714  11.537   3.720 -0.2272  0.0541  0.1134
19441W        W35575   7.591  15.573   3.710 -0.1343  0.2374 -0.1997
19442W        W35576  10.325  11.527  11.597 -0.0166 -0.2898  0.2109
19443W        W35577   1.476   0.507  12.118  0.1151  0.1998 -0.1264
19444W        W35578   6.507  14.073  12.492  0.4588 -0.1952 -0.1180
19445W        W35579  11.654  16.672  15.023  0.5085  0.2362 -0.2673
19446W        W35580  17.667   1.539  14.311 -0.2248  0.1677  0.1169
19447W        W35581   6.401  15.300  14.456 -0.0780 -0.0697 -0.2650
19448W        W35582   9.387  15.806   2.216 -0.0867  0.1058  0.0420
19449W        W35583   1.947   1.550  12.579 -0.1009  0.2142  0.0144
19450W        W35584  14.719  10.424   3.291 -0.1794 -0.1761 -0.0926
19451W        W35585   3.053   7.547   2.968  0.1030 -0.2372  0.1383
19452W        W35586   3.404   1.262  11.395 -0.2585 -0.1195 -0.1443
19453W        W35587   5.297  16.488  13.389 -0.3528  0.1690  0.1320
19454W        W35588   0.174   0.754  14.674  0.0518  0.1310  0.1760
19455W        W35589   6.522   2.753  12.842 -0.0286 -0.2087  0.0608
19456W        W35590  12.422  10.375   3.526  0.2159 -0.0971 -0.0825
19457W        W35591  13.679  18.222   0.656 -0.0984 -0.2487 -0.1803
19458W        W35592   7.140  14.331   2.009  0.0466  0.1631 -0.1737
19459W        W35593   8.185   9.367   4.531 -0.1372  0.3394 -0.0609
19460W        W35594  15.012  10.618   0.026 -0.0597 -0.0201 -0.1061
19461W        W35595  16.419   7.079  14.477 -0.1315 -0.2479 -0.1500
19462W        W35596  13.383   7.634  11.082  0.0014  0.1307  0.1681
19463W        W35597   4.806   5.514   4.526 -0.0282 -0.1954 -0.1520
19464W        W35598  15.485  14.996  15.601  0.2090  0.3763 -0.2180
19465W        W35599   4.090   8.963   1.043  0.0074 -0.2469 -0.1957
19466W        W35600  12.692  14.776  13.326  0.2824  0.0796  0.1082
19467W        W35601  17.279  13.189  13.181  0.0511  0.0536 -0.1180
19468W        W35602  11.407   5.571   4.428 -0.2203 -0.0304 -0.1541
19469W        W35603   7.617   7.688  15.828 -0.1133  0.0784 -0.0158
19470W        W35604   0.002   3.266  13.567 -0.2570 -0.0461  0.1577
19471W        W35605   2.234   0.647   3.957 -0.1648 -0.0180  0.0141
19472W        W35606  16.021   1.328   2.181  0.0072 -0.3819 -0.3177
19473W        W35607  13.643   2.296   2.746 -0.2191  0.0862 -0.1681
19474W        W35608  13.807   0.817   1.462 -0.0778 -0.1315 -0.0931
19475W        W35609  14.444  10.033  13.379 -0.3220  0.2654  0.1928
19476W        W35610   4.626   0.065  10.828  0.0815 -0.4011  0.3272
19477W        W35611   5.608  12.820   2.564  0.1967  0.0708  0.0100
19478W        W35612  16.161   9.325   1.818 -0.0941 -0.1275 -0.0407
19479W        W35613   3.112   3.922  15.471 -0.2633 -0.0110  0.0973
19480W        W35614   5.664   1.975   1.467  0.1605 -0.2854  0.0326
19481W        W35615   1.015   1.337  14.896 -0.2243  0.0540 -0.3561
19482W        W35616   2.871  16.773   2.555  0.1168 -0.0063  0.2239
19483W        W35617   3.452  11.789   4.846  0.2419  0.0856 -0.1452
19484W        W35618  11.209  15.179   1.809  0.0946  0.3056 -0.1493
19485W        W35619  15.122   9.996  11.706 -0.3077 -0.4360  0.1265
19486W        W35620  17.310  10.134   0.005  0.2821  0.0838  0.0922
19487W        W35621   9.106  17.561  14.427 -0.1134 -0.2166  0.2324
19488W        W35622   1.612   0.392   2.658 -0.1189 -0.2268 -0.0699
19489W        W35623   6.409  11.817   5.572  0.2278 -0.0229  0.1405
19490W        W35624  11.748   7.241   3.999 -0.1441 -0.1015  0.4310
19491W        W35625  13.787   5.436   1.896 -0.1118 -0.0662 -0.1053
19492W        W35626   1.972   2.563   3.306  0.0891  0.0825 -0.0166
19493W        W35627   1.833   0.232   5.672 -0.1561  0.2212  0.1597
19494W        W35628  15.422  10.468   5.383 -0.2365 -0.3454 -0.0552
19495W        W35629  14.368  17.060  14.013 -0.0512 -0.2066  0.1864
19496W        W35630  16.936   4.699   2.705  0.2772 -0.1899 -0.1913
19497W        W35631   1.389  12.784  15.142 -0.3740  0.0338  0.3165
19498W        W35632   2.286   3.236   3.857  0.2974 -0.2823  0.3174
19499W        W35633   3.472   9.471  15.331  0.1225  0.1633 -0.1725
19500W        W35634   3.894   9.514   2.081  0.3712  0.1758  0.0216
19501W        W35635  16.159  12.375   3.242 -0.0736  0.0361 -0.1236
19502W        W35636  12.769  15.758   1.640 -0.1733  0.1117  0.0964
19503W        W35637   4.962   5.921  14.004 -0.0627  0.0659 -0.2048
19504W        W35638  18.286   8.878   4.168 -0.0407 -0.0536  0.1595
19505W        W35639  18.326  17.153   5.180 -0.1319 -0.0409 -0.2325
19506W        W35640   4.695  10.303  14.378  0.0367  0.0168 -0.1520
19507W        W35641   6.095   5.988  12.147  0.2520  0.0929  0.0704
19508W        W35642   5.734  14.181  11.835  0.1295  0.0476  0.2594
19509W        W35643   6.409   3.490  10.738 -0.1935 -0.3762  0.0452
19510W        W35644   1.222  10.444   4.120  0.0610 -0.1288  0.0845
19511W        W35645  16.444   1.939  13.610 -0.1473  0.0208 -0.1581
19512W        W35646  15.519  10.936   0.107 -0.0324 -0.0903  0.1374
19513W        W35647   6.332  14.857   1.864 -0.4559  0.0675  0.1339
19514W        W35648  11.164  18.418   1.086  0.2001  0.0031 -0.0227
19515W        W35649   9.338   2.522   5.291  0.0102 -0.0269  0.2830
19516W        W35650  17.469  16.926   1.024 -0.1646  0.0025  0.2040
19517W        W35651   2.294   0.478   3.344 -0.0986  0.2715  0.0289
19518W        W35652  16.841   6.278  10.714 -0.0242 -0.1958 -0.0666
19519W        W35653  16.935   8.379   4.127  0.0147  0.0396 -0.0418
19520W        W35654   7.556  13.320   5.482  0.1607 -0.0598 -0.0623
19521W        W35655   9.457  11.740  10.701 -0.3067  0.2248  0.1184
19522W        W35656   8.813  12.966  14.097  0.0123  0.0630 -0.0230
19523W        W35657  15.423  16.328  13.907 -0.1396  0.3003  0.3727
19524W        W35658   7.858  17.138   0.893 -0.0493  0.3159 -0.0583
19525W        W35659   2.469   2.481  15.247  0.0147  0.0766  0.0027
19526W        W35660  12.893   3.870   5.088  0.0104  0.0088 -0.1842
19527W        W35661  12.024  15.143   6.156 -0.0586  0.3540  0.0666
19528W        W35662   6.491  11.020   2.647 -0.2908  0.3139  0.0829
19529W        W35663   6.610   1.075   1.056  0.2170  0.3504 -0.2178
19530W        W35664  10.215  11.477   3.378  0.2904  0.0412  0.0748
19531W        W35665  12.989   8.500  11.292  0.0299  0.0319  0.0813
19532W        W35666   2.907   2.921   5.390 -0.1113 -0.0378  0.1425
19533W        W35667  15.073  16.682  15.284 -0.0958 -0.2306 -0.1401
19534W        W35668   7.449  17.398  13.347  0.1727  0.0994  0.2459
19535W        W35669   1.680   2.751  11.073 -0.0747  0.0246  0.1841
19536W        W35670  13.344   9.491   1.378 -0.1598 -0.0060 -0.1349
19537W        W35671   7.622   8.099   1.600 -0.2214 -0.1568  0.2262
19538W        W35672   1.903  15.930   4.735 -0.2152 -0.1096 -0.0226
19539W        W35673   2.796   7.151   2.776 -0.2085  0.1582  0.1375
19540W        W35674   5.555   4.320  14.787 -0.1593  0.1208 -0.1006
19541W        W35675  12.039  18.260   5.425 -0.4396 -0.0227  0.0896
19542W        W35676   8.670   2.493  15.551  0.3029 -0.0539  0.0385
19543W        W35677  12.364   7.181  15.260  0.1075 -0.3582 -0.2388
19544W        W35678   3.034   0.066  13.337  0.2892  0.0386  0.1021
19545W        W35679  15.144  12.443  13.614 -0.2354 -0.3209  0.0634
19546W        W35680   7.675   8.551  11.554  0.1094  0.0194 -0.0408
19547W        W35681  14.004  13.615  15.514 -0.2383  0.0591 -0.0605
19548W        W35682   2.111  10.219   2.738 -0.2391  0.1805  0.1116
19549W        W35683   6.942  14.568  12.305 -0.0509 -0.0032 -0.1996
19550W        W35684  15.163  12.308  13.107  0.0760 -0.2175 -0.2363
19551W        W35685   4.594  18.368  12.657  0.0905 -0.0681  0.0157
19552W        W35686   4.359  10.528  15.883  0.0018  0.2203  0.0513
19553W        W35687   4.256   7.029  13.007 -0.1160 -0.1496 -0.0070
19554W        W35688   2.544   6.653   1.455  0.1740  0.1157  0.2129
19555W        W35689   0.642  10.045  13.701  0.3054  0.3125  0.0976
19556W        W35690   5.927   4.969   2.089 -0.0365 -0.1174  0.1850
19557W        W35691  17.245  13.322   2.479 -0.3660 -0.0394  0.0773
19558W        W35692  15.031   2.994   1.033 -0.0677 -0.0932  0.0381
19559W        W35693   6.965  10.766   4.339  0.1887 -0.2057 -0.0326
19560W        W35694   2.430  15.364  15.318  0.0132 -0.1418 -0.0615
19561W        W35695   5.125  11.129   4.390  0.0696  0.2165 -0.0350
19562W        W35696  16.129  13.817  13.412 -0.1821 -0.1940 -0.0027
19563W        W35697  10.577   7.586   3.644  0.1547 -0.1561 -0.0680
19564W        W35698   8.269  17.424  14.932  0.0217 -0.1223 -0.1003
19565W        W35699  13.972  12.348  12.695  0.2051  0.0337  0.2065
19566W        W35700  16.266  17.795  11.879  0.2545 -0.3193 -0.0706
19567W        W35701   2.126   6.234  12.132  0.1546  0.2071  0.3406
19568W        W35702   1.318  14.962  11.973 -0.0227  0.2484  0.2346
19569W        W35703   7.011   8.716   4.422 -0.0754  0.1605  0.0532
19570W        W35704   1.486  12.898  14.238  0.3193  0.0882  0.1386
19571W        W35705  14.409   6.488  10.846 -0.3211 -0.0689 -0.3632
19572W        W35706   8.899  11.015   1.121  0.1989  0.0257  0.0384
19573W        W35707  11.985   2.710  13.479 -0.0937 -0.4375  0.2038
19574W        W35708   3.509  16.683  14.727  0.0368 -0.0137 -0.0204
19575W        W35709   4.145   9.501   2.590  0.0601 -0.1694  0.5374
19576W        W35710  12.505   3.083  12.749 -0.0669  0.1936  0.1188
19577W        W35711  14.224   6.431  11.780 -0.1481  0.0656  0.1459
19578W        W35712  17.556   1.914  11.830 -0.1155  0.1404 -0.0211
19579W        W35713   7.604   1.450  14.500 -0.0090 -0.0481 -0.0006
19580W        W35714   3.071   6.668  13.397 -0.4158  0.1871 -0.0973
19581W        W35715   9.520  11.599   3.518  0.1470 -0.0207 -0.0016
19582W        W35716  10.862   3.822   2.553  0.1871 -0.1869 -0.2623
19583W        W35717   4.105   7.980   4.287  0.2619  0.1266  0.2561
19584W        W35718  13.372  12.990   3.347 -0.3002  0.3776  0.1556
19585W        W35719  11.515  11.293   1.067  0.2088 -0.2253  0.2437
19586W        W35720   4.810   4.374  14.907  0.2135  0.1452 -0.1904
19587W        W35721   4.161   5.099  12.924  0.2275  0.1484  0.1784
19588W        W35722  17.131  14.691   1.039  0.2048 -0.4312 -0.5270
19589W        W35723   5.346  12.173   3.771  0.0296  0.0609  0.0335
19590W        W35724   7.613  17.990   0.868 -0.0987  0.1582 -0.1504
19591W        W35725  17.338   5.620   3.462 -0.1414  0.0444 -0.2710
19592W        W35726  15.013   1.461   2.461 -0.3920  0.0829  0.2003
19593W        W35727  17.969   4.334   9.687 -0.1850  0.0024  0.0881
19594W        W35728   7.472   4.223   3.035 -0.0821  0.0134  0.2712
19595W        W35729   3.178  10.272   4.579  0.1085 -0.3870  0.2015
19596W        W35730  16.753  14.773   0.306  0.0616 -0.1956 -0.1441
19597W        W35731  16.054   8.137   3.457  0.0468 -0.1082  0.0091
19598W        W35732  10.405   3.597   5.669 -0.0503 -0.0302 -0.1859
19599W        W35733   0.879   8.340  14.221 -0.3168  0.1057  0.0581
19600W        W35734   6.500   4.751   4.888 -0.0302 -0.0783 -0.1354
19601W        W35735  15.323   6.337   0.236 -0.0652  0.0772  0.1288
19602W        W35736   2.995   5.389   3.568  0.4233  0.0461  0.2265
19603W        W35737   0.338  16.281   3.698 -0.2360 -0.0328  0.1252
19604W        W35738   3.847  16.815  13.224  0.0086  0.0535 -0.3061
19605W        W35739   8.983  13.879   5.607 -0.0467  0.2130 -0.0715
19606W        W35740   7.509   3.139  13.934 -0.2845 -0.2424 -0.0130
19607W        W35741  15.951   8.229  10.981  0.2035  0.2408 -0.3063
19608W        W35742   7.232   6.250  13.855  0.0691 -0.1526 -0.2722
19609W        W35743  14.720  17.666  10.887 -0.4913 -0.0930 -0.1722
19610W        W35744   9.150   6.896  13.057  0.0384  0.1495  0.0061
19611W        W35745   7.735   0.181   0.275 -0.3209 -0.2903 -0.1096
19612W        W35746  12.843  16.830   2.224  0.0105  0.0065  0.0834
19613W        W35747   3.875   6.795   1.904  0.0361 -0.0874 -0.0173
19614W        W35748   3.762   2.644   3.670  0.0362 -0.1816 -0.1238
19615W        W35749   3.688  14.265  12.729  0.1992 -0.0660  0.0085
19616W        W35750   2.404   7.475  15.514 -0.0077  0.0936 -0.1796
19617W        W35751  12.465  14.930   1.777 -0.0322  0.1362 -0.1035
19618W        W35752  10.211   3.927   4.637  0.1344  0.0033  0.0779
19619W        W35753   2.612  16.991  11.616  0.0670  0.0461 -0.0095
19620W        W35754  14.914  11.037  15.579 -0.2830  0.2293  0.0082
19621W        W35755  10.205  13.748  12.438  0.0557  0.3811 -0.3623
19622W        W35756   9.962   7.025   4.504  0.0012 -0.3766 -0.1818
19623W        W35757  15.384  13.458  14.229  0.1288 -0.0185  0.0059
19624W        W35758   0.824  17.400   2.681  0.0536  0.2700 -0.0009
19625W        W35759   7.842   4.171  14.883  0.1920  0.1911  0.0074
19626W        W35760   5.732  12.951   5.333 -0.0172  0.3012  0.0139
19627W        W35761   9.910   0.015   1.431 -0.1416 -0.0778 -0.2393
19628W        W35762   5.291   1.705   1.264  0.1438  0.2647 -0.1054
19629W        W35763   5.411  12.421   6.177 -0.0952  0.0775 -0.1526
19630W        W35764   1.089  15.627  13.083  0.0577 -0.0165  0.2731
19631W        W35765   9.680   7.865   3.811 -0.2516 -0.2434  0.1602
19632W        W35766   4.656   2.790   0.481  0.2583 -0.1929  0.1653
19633W        W35767  17.133   1.239  15.386  0.2489  0.0711  0.2135
19634W        W35768  18.176  18.403   0.885  0.2346 -0.0378 -0.0194
19635W        W35769   6.666   3.078   4.203  0.1282  0.0131 -0.0571
19636W        W35770   6.164   7.778  15.062  0.0974  0.1801 -0.2310
19637W        W35771  16.519   0.505  13.991 -0.1238  0.2390  0.2804
19638W        W35772   7.086   0.706   0.617  0.0973  0.0461 -0.1072
19639W        W35773  15.883  14.867   3.735 -0.0383  0.0992  0.1044
19640W        W35774   7.659   2.040  11.610 -0.2629  0.0732 -0.1297
19641W        W35775   8.545  13.011   4.094 -0.1837  0.0278  0.0608
19642W        W35776   2.596  14.210   3.427  0.2694 -0.3729 -0.1811
19643W        W35777   6.091   0.278  12.572  0.2044  0.1052  0.1444
19644W        W35778  12.120   2.406  11.500 -0.0108 -0.0769 -0.0058
19645W        W35779   0.679   9.607  10.490 -0.2299  0.0964 -0.1347
19646W        W35780  16.449   5.964   1.687  0.0369 -0.3909  0.1682
19647W        W35781  12.450  14.393   1.786  0.2830  0.0794 -0.3048
19648W        W35782   0.757  16.862  13.465 -0.1467  0.3407  0.3277
19649W        W35783   7.632   3.628   0.655  0.0111 -0.3516 -0.0274
19650W        W35784  14.392  11.810  13.372  0.2341 -0.0598 -0.1567
19651W        W35785   2.567   7.310   3.732 -0.0553  0.0639  0.1016
19652W        W35786   3.781  15.259  12.324 -0.2274  0.1340 -0.1708
19653W        W35787   9.743  16.667  11.940  0.1546 -0.1229 -0.0430
19654W        W35788  17.001   6.638   2.218  0.2716  0.0493  0.1770
19655W        W35789   4.886  13.193   2.970  0.1678 -0.0272  0.1192
19656W        W35790  11.627   0.303   1.056  0.0113 -0.1324  0.0154
19657W        W35791  13.064   2.657   5.713  0.2182 -0.1381 -0.1844
19658W        W35792   6.348  11.199  11.071  0.0883  0.2403  0.2492
19659W        W35793   4.588   8.310   2.357  0.3065  0.1769  0.2331
19660W        W35794   8.394   3.837  12.594  0.2179  0.0766  0.0625
19661W        W35795   4.404   5.919   0.543 -0.0399 -0.0240  0.0778
19662W        W35796  18.087  17.116   1.666 -0.2030  0.0296  0.0630
19663W        W35797  17.398   9.393  13.233  0.0568 -0.1874 -0.2653
19664W        W35798   0.824   7.901   2.250  0.1889 -0.1048  0.0117
19665W        W35799   2.749   3.614  14.990 -0.0093 -0.4443 -0.0491
19666W        W35800   8.193  13.517   3.997  0.0415 -0.2063  0.0966
19667W        W35801  14.342   3.032   2.854 -0.1136 -0.2206 -0.0651
19668W        W35802   5.622  17.817  12.168  0.1076  0.2321  0.2075
19669W        W35803  17.051   5.014  15.554 -0.0429 -0.0643 -0.1542
19670W        W35804   7.507   6.588   3.924  0.1422 -0.2083  0.1589
19671W        W35805   5.076  17.884   5.260 -0.0574 -0.1806 -0.1092
19672W        W35806  16.598   6.227   0.715  0.3101 -0.1803 -0.0002
19673W        W35807  14.100  10.200   4.632  0.1625 -0.2882  0.0285
19674W        W35808   2.836  17.589   1.594 -0.1787  0.0213 -0.3686
19675W        W35809  13.735   5.579  13.703 -0.0580  0.2610  0.1258
19676W        W35810   9.577  15.015   6.540  0.3433 -0.2889 -0.0272
19677W        W35811  11.703   6.803  14.629 -0.0676 -0.0673 -0.2689
19678W        W35812   8.290  16.771   2.256 -0.0882  0.1184 -0.0312
19679W        W35813   3.765   5.530   1.416  0.0678  0.0247 -0.0128
19680W        W35814  11.659  16.503  13.443 -0.1793  0.0296 -0.0718
19681W        W35815   4.141  16.384   5.383  0.0786 -0.3470  0.3429
19682W        W35816   8.481   5.569   5.717  0.4901 -0.1820  0.0483
19683W        W35817   1.892  11.121  11.931  0.0913 -0.0481 -0.1893
19684W        W35818   7.312  12.895   5.710 -0.0430 -0.1559  0.0561
19685W        W35819  13.757  15.048  10.729  0.2104 -0.1012  0.0547
19686W        W35820   7.795  16.206  13.625  0.1851 -0.1553 -0.3112
19687W        W35821   3.917   4.525   1.005  0.0197  0.0689 -0.1261
19688W        W35822  14.460   3.467  11.043 -0.0297 -0.0551 -0.0215
19689W        W35823  11.913  11.530   2.129  0.2168 -0.0773 -0.0177
19690W        W35824  14.143   8.233   1.572 -0.3173  0.0419 -0.1044
19691W        W35825   4.083   6.593  12.755  0.0735  0.1842 -0.1458
19692W        W35826   0.272  15.287   3.804 -0.0931  0.0213  0.1295
19693W        W35827  15.915   8.661   1.831  0.1645 -0.1575 -0.1113
19694W        W35828   9.720   7.981  15.090 -0.3913 -0.0765 -0.1173
19695W        W35829  11.782  10.531  11.380  0.3941 -0.0746 -0.1678
19696W        W35830   2.542  12.449   3.708  0.0843  0.2016 -0.2199
19697W        W35831  11.320  13.716   4.380 -0.1411  0.0342  0.0712
19698W        W35832  14.174  16.731   2.543 -0.0338 -0.0852  0.1694
19699W        W35833  11.227   9.070   5.783 -0.1030  0.0774  0.0520
19700W        W35834   1.647   6.078   4.166 -0.3082 -0.0457  0.4148
19701W        W35835  14.033   6.887  13.052  0.0104  0.0623  0.1064
19702W        W35836   7.737  18.158   3.075 -0.2373 -0.1040 -0.0856
19703W        W35837   4.725  13.514   0.601  0.0989 -0.1993  0.3291
19704W        W35838   0.704   4.116   3.254 -0.1374 -0.0598 -0.3029
19705W        W35839   7.160  12.429  12.699  0.1275  0.1339  0.3124
19706W        W35840   9.957   9.484  14.614 -0.0310  0.2344  0.3298
19707W        W35841  14.584   4.044   4.528 -0.0908  0.1690  0.5074
19708W        W35842   5.521  15.600  13.720 -0.2269 -0.2268 -0.1597
19709W        W35843   6.332  10.527   0.721 -0.3439  0.1155 -0.3363
19710W        W35844  15.130   7.360   1.776 -0.2027 -0.1277  0.2257
19711W        W35845  15.768   6.377   0.888  0.3225  0.1219 -0.0165
19712W        W35846   9.648  15.791  14.790  0.0156 -0.1738  0.2108
19713W        W35847  12.544  16.888   3.976 -0.1850 -0.2607 -0.0612
19714W        W35848   5.085   0.027   3.786  0.1509  0.1358  0.1461
19715W        W35849   7.827  13.182   0.962  0.4011 -0.3754 -0.0410
19716W        W35850  10.999   5.827  15.661  0.4682  0.0928  0.2269
19717W        W35851  17.672   7.167   1.663  0.0841 -0.3414 -0.1005
19718W        W35852  13.133   7.162   3.615 -0.0243  0.0957 -0.2173
19719W        W35853  15.896  18.115  14.009 -0.0712 -0.1742  0.4460
19720W        W35854  17.526   3.472   4.643 -0.0127 -0.0307 -0.0615
19721W        W35855   8.750   7.395  15.129  0.3640 -0.1944 -0.0636
19722W        W35856  17.116   5.665   4.379 -0.3284 -0.0377 -0.1521
19723W        W35857  13.943  12.015   3.812 -0.3443 -0.2645 -0.0547
19724W        W35858   5.424   5.397   1.486 -0.3204  0.0433 -0.2295
19725W        W35859   9.423   3.433  11.846  0.3335 -0.2556 -0.1672
19726W        W35860   2.116   7.330   2.249 -0.1284 -0.1697 -0.1028
19727W        W35861  13.783  14.980  13.009  0.1158  0.0964 -0.1381
19728W        W35862  12.755   3.895  10.574 -0.3306  0.1176 -0.0802
19729W        W35863  16.284   6.880   1.937 -0.0886 -0.0324 -0.0499
19730W        W35864   3.892  17.503  12.070  0.1267  0.1788  0.3369
19731W        W35865  11.274   3.159   0.921 -0.0755  0.0110 -0.1773
19732W        W35866   7.047  14.301  14.189 -0.0734  0.0911  0.3610
19733W        W35867  13.128  12.574  11.236  0.0727 -0.0426  0.1075
19734W        W35868  16.062  16.835  11.905 -0.0316 -0.2151  0.0510
19735W        W35869   1.167   7.845  13.247  0.0967 -0.0977 -0.0816
19736W        W35870   9.558   9.303   3.410 -0.1870 -0.0531  0.0297
19737W        W35871   5.836  17.710   5.198 -0.2104 -0.1146  0.1304
19738W        W35872  11.988  10.940  15.228  0.1620 -0.4104  0.0622
19739W        W35873   2.750   7.827  15.343  0.1294  0.0376  0.1160
19740W        W35874   4.713  18.206   5.496 -0.0266 -0.2724  0.1119
19741W        W35875  18.266  10.187   0.247  0.0488  0.0831 -0.1574
19742W        W35876   5.440  10.982  13.902 -0.0386  0.1129  0.0260
19743W        W35877  12.841   8.149   1.862  0.0932 -0.3008 -0.0142
19744W        W35878  10.349   5.066  11.849 -0.0339 -0.1523 -0.1745
19745W        W35879   9.661   6.560   3.581 -0.2121  0.0644 -0.1635
19746W        W35880   4.047  13.012   0.167  0.1595 -0.0193 -0.1036
19747W        W35881   8.588  13.624   5.207  0.1273 -0.1125 -0.0224
19748W        W35882  10.505   8.071   5.360 -0.4954 -0.2961 -0.0665
19749W        W35883   5.106   3.657   0.104  0.3231  0.3219  0.2249
19750W        W35884   5.123  13.526  10.764  0.1125  0.0313  0.1506
19751W        W35885   5.743   5.711  13.515  0.0242  0.3738  0.0204
19752W        W35886   7.088  16.565   1.319  0.1445  0.3579  0.0861
19753W        W35887  11.460   3.955  13.148  0.2801 -0.1409 -0.2818
19754W        W35888   9.865  13.882   5.085  0.2562 -0.2256  0.1707
19755W        W35889  17.767   9.381  15.052  0.0356  0.2569  0.0732
19756W        W35890  12.707  10.114  14.847  0.2131 -0.1075 -0.2667
19757W        W35891   4.272   6.406  15.010  0.1461  0.2828 -0.0695
19758W        W35892  16.009   7.049   4.677 -0.1048 -0.2744 -0.1791
19759W        W35893  13.414   7.364   0.844  0.0425  0.0065 -0.0080
19760W        W35894  10.565  16.995  14.770  0.0671  0.1497  0.0198
19761W        W35895  16.908   8.157  15.173  0.1705  0.0928 -0.0820
19762W        W35896  12.640   4.598  11.123  0.0645 -0.1302 -0.2827
19763W        W35897  12.946  10.602  11.986 -0.1747 -0.3329  0.1851
19764W        W35898  12.757   1.684   0.220 -0.1115  0.1103 -0.0751
19765W        W35899   4.254  10.632  12.261 -0.2329  0.0621 -0.3371
19766W        W35900  12.076   0.885  14.248  0.3261 -0.1457  0.1018
19767W        W35901  15.250  10.401  13.120 -0.0522  0.0799  0.0608
19768W        W35902   6.975  15.780  12.976  0.0078  0.2378 -0.1493
19769W        W35903   3.724  17.932  12.364 -0.0343 -0.0356 -0.5637
19770W        W35904  12.253   1.195  10.334 -0.1872 -0.0675  0.3105
19771W        W35905  15.137  12.439   3.475 -0.0100 -0.1205 -0.1676
19772W        W35906   8.406   9.962  12.115  0.2248  0.3172  0.0351
19773W        W35907  14.948   4.886  12.324 -0.5295  0.0595  0.2254
19774W        W35908   3.489   0.671   5.380 -0.0119  0.1043 -0.1101
19775W        W35909  10.659   7.150  12.564 -0.2633 -0.2145 -0.3260
19776W        W35910  12.607   1.396   3.152  0.1617  0.1406 -0.3277
19777W        W35911   7.424   4.573  11.490 -0.0393 -0.2129 -0.0827
19778W        W35912   7.822  16.803  12.740  0.2871  0.2230 -0.0628
19779W        W35913  10.997   7.363   3.551  0.1204 -0.0987 -0.0303
19780W        W35914   4.840  13.946   4.053 -0.1723 -0.1992  0.1740
19781W        W35915   1.631  17.795   1.641  0.1662  0.0259  0.1537
19782W        W35916  15.072  15.137   1.885 -0.3596  0.1096 -0.0988
19783W        W35917  16.152   1.694  10.946 -0.0629  0.0849  0.1544
19784W        W35918  10.462   9.090   3.865  0.1063  0.0520  0.0260
19785W        W35919   2.513   9.839   2.001  0.3527 -0.0952 -0.0436
19786W        W35920  15.846  16.195   3.095  0.1886  0.3493  0.1593
19787W        W35921   9.960   0.151   4.012 -0.1134 -0.0064 -0.0910
19788W        W35922   9.926   2.684   2.085 -0.0059 -0.2332  0.1358
19789W        W35923   3.304   4.775   5.767  0.3838 -0.1989  0.0029
19790W        W35924  18.046  12.552  14.030 -0.1044 -0.2545 -0.1935
19791W        W35925   5.693  18.279   3.242 -0.0802 -0.1672 -0.0419
19792W        W35926   9.219   1.142   2.297 -0.2646  0.1662 -0.1151
19793W        W35927   1.064   3.867  14.464  0.1187 -0.0257  0.1545
19794W        W35928   8.428   9.161  15.697 -0.1642  0.0739  0.1072
19795W        W35929  17.084  12.388   0.515  0.0795 -0.1256  0.2405
19796W        W35930  18.117  15.235  15.780  0.4995 -0.3233  0.3988
19797W        W35931   0.465  10.165   2.221  0.1231 -0.0765 -0.0344
19798W        W35932   7.383   4.534   5.493  0.1672  0.1977  0.1144
19799W        W35933  10.021   0.474   5.400  0.0862 -0.2194  0.2743
19800W        W35934  17.666  12.220  11.732 -0.0303 -0.2749 -0.0899
19801W        W35935   0.670   0.321   4.854  0.3484 -0.0016  0.0748
19802W        W35936   5.161  12.765   5.018  0.3865  0.0346 -0.0577
19803W        W35937   9.283  16.672   1.292 -0.0614 -0.1342  0.1265
19804W        W35938   4.632   0.224   1.882 -0.1254  0.0634  0.1447
19805W        W35939  10.267   6.592  13.611  0.0953  0.1023  0.2319
19806W        W35940   8.496  13.073  15.817  0.1704 -0.2852 -0.1497
19807W        W35941   4.855   3.662   0.542  0.0859  0.3861 -0.0562
19808W        W35942   6.911   8.226   4.204  0.1429  0.0713 -0.0046
19809W        W35943  15.328  15.274  12.947  0.2390  0.0463 -0.1083
19810W        W35944  14.941  13.782   1.106 -0.0741 -0.2122 -0.0353
19811W        W35945   0.682   9.230   2.618  0.0978 -0.0261 -0.0113
19812W        W35946   1.483  17.238   0.646 -0.2608  0.1527  0.0144
19813W        W35947  18.166   5.163   0.966  0.0389  0.1333  0.0178
19814W        W35948   7.307   5.518  12.215 -0.1254 -0.0207 -0.1765
19815W        W35949   8.509   6.779  12.895  0.1898  0.0435  0.1617
19816W        W35950   6.549   6.154   0.924  0.1507  0.0125 -0.1846
19817W        W35951   7.829  14.419  13.278  0.0078 -0.1330 -0.1807
19818W        W35952   9.539  10.326   4.530  0.2188 -0.1674  0.0582
19819W        W35953   8.625   9.602  12.878  0.0692  0.1213 -0.3214
19820W        W35954  14.613   7.505  12.881  0.4292 -0.0562 -0.1742
19821W        W35955  14.201   1.393  14.494  0.2193  0.0425  0.1907
19822W        W35956  13.991   4.771  13.935  0.0992  0.1223 -0.0261
19823W        W35957   4.215  10.931  11.433  0.1509  0.1968  0.0210
19824W        W35958  10.987   4.164  12.424 -0.0995 -0.2688  0.1672
19825W        W35959  14.835   3.893   4.930 -0.1287 -0.1774  0.1932
19826W        W35960   3.379  18.423  14.803 -0.3956 -0.1843  0.0497
19827W        W35961   2.747  17.401  15.148 -0.1200  0.1366 -0.1294
19828W        W35962   6.673  17.163   2.085 -0.1364  0.0221  0.1197
19829W        W35963  13.465   4.873   2.958  0.3430  0.0762 -0.0682
19830W        W35964   3.990  16.692   4.125 -0.2349 -0.1015 -0.1537
19831W        W35965  15.146   5.662  10.499 -0.1141  0.1301 -0.1272
19832W        W35966  17.553   7.251  12.118 -0.1000 -0.0086  0.0634
19833W        W35967   6.420   0.476   3.494 -0.1064  0.0900  0.0275
19834W        W35968  11.876   4.584  13.394 -0.3378  0.0072  0.1961
19835W        W35969  14.434  13.655   3.205  0.1886  0.2482  0.0168
19836W        W35970  13.119  18.305  12.218 -0.3954 -0.1287  0.4020
19837W        W35971  16.910   3.154  11.456  0.2617 -0.3055  0.0885
19838W        W35972   6.895  11.275  13.332 -0.2353  0.2490  0.0300
19839W        W35973  10.114  13.006   6.202 -0.0872 -0.0023 -0.1405
19840W        W35974   7.479   7.056   2.635  0.2798 -0.0376 -0.2094
19841W        W35975   2.133   0.878  14.775  0.1564 -0.0382  0.2185
19842W        W35976   4.393  14.693  15.553 -0.0817  0.1895  0.2557
19843W        W35977  10.491   1.292   4.080 -0.3870 -0.1372  0.0202
19844W        W35978   7.862  13.968   4.106  0.3500 -0.0684  0.1064
19845W        W35979  10.201   1.281   4.539 -0.2240 -0.1492 -0.2081
19846W        W35980  11.389   5.533  14.166 -0.1005  0.2179  0.0631
19847W        W35981   7.983   4.001  13.387 -0.0582 -0.1660  0.1879
19848W        W35982  13.951   0.151   3.480 -0.3281 -0.0964  0.1872
19849W        W35983  13.389  15.947  13.748  0.0122 -0.0809 -0.1882
19850W        W35984   0.659  15.069  13.869  0.0655  0.1147 -0.0204
19851W        W35985   4.137   8.361  11.699  0.0211 -0.0102  0.0727
19852W        W35986   3.221  15.092   3.856  0.2248  0.4138 -0.0201
19853W        W35987   7.399   1.401   0.634  0.0606  0.2172 -0.2172
19854W        W35988  11.850   8.221   0.325  0.0791  0.0295 -0.0818
19855W        W35989  10.091  17.186  12.566  0.2007  0.0582  0.2293
19856W        W35990   6.715   5.227  15.698  0.2057  0.4716  0.0760
19857W        W35991  12.348   0.632   1.388  0.1108 -0.0587 -0.0983
19858W        W35992  12.274  14.843   1.320  0.0913  0.2204  0.2897
19859W        W35993  10.128  14.280  13.771 -0.2737 -0.1038 -0.1094
19860W        W35994  11.191  12.635   2.455 -0.1023 -0.0075 -0.0622
19861W        W35995   9.699  11.370  11.118 -0.0093 -0.1462 -0.0002
19862W        W35996   5.534   8.938   0.859  0.2399  0.1525  0.0567
19863W        W35997   8.586   6.428   4.706  0.1295 -0.0090  0.2493
19864W        W35998  12.077   2.772   4.793 -0.2179  0.3432  0.2066
19865W        W35999  13.922   1.257  15.868 -0.2959 -0.3352  0.3841
19866W        W36000  13.631  13.799   4.892  0.0004  0.0299 -0.0206
19867W        W36001   8.122   0.874  10.844 -0.0979  0.0346  0.1302
19868W        W36002  15.841  17.006   3.682 -0.1297 -0.0435  0.3995
19869W        W36003  17.628   9.831   2.638 -0.0346 -0.2902 -0.1477
19870W        W36004   8.763   5.487  15.155 -0.0243 -0.1748  0.2165
19871W        W36005   9.057  11.875   1.844  0.1285  0.3675 -0.2108
19872W        W36006  11.458   7.477   5.899  0.1047  0.2268 -0.1301
19873W        W36007   0.041   5.924   3.001  0.0547  0.1770 -0.1170
19874W        W36008  10.549   3.143  14.830 -0.0712 -0.0995 -0.0055
19875W        W36009  13.426  10.524   0.815 -0.1763  0.1279 -0.0077
19876W        W36010   9.708  11.952   1.380 -0.3684  0.0426  0.0835
19877W        W36011  16.487   2.542  15.729  0.1718 -0.0490 -0.0821
19878W        W36012  12.586  10.233  15.416  0.2700  0.0171 -0.1027
19879W        W36013   4.407  17.297  10.187  0.0653 -0.1300  0.1209
19880W        W36014  16.151   3.798  14.453 -0.1583 -0.0518  0.0847
19881W        W36015   0.505  12.162   0.349  0.0837 -0.2186 -0.1866
19882W        W36016   0.814   8.000   0.415 -0.1600  0.2119  0.1553
19883W        W36017  11.498   5.618  15.814  0.1414  0.0694  0.1040
19884W        W36018  10.286  17.456  11.799  0.1154 -0.1513  0.1300
19885W        W36019   3.615  15.386  14.624  0.1130  0.0905 -0.2369
19886W        W36020  14.235   1.782   3.608 -0.0896  0.1934 -0.2217
19887W        W36021  18.058  11.266  13.898  0.1841 -0.0566  0.3268
19888W        W36022  17.940  12.543  10.976  0.1008 -0.0174  0.1054
19889W        W36023   4.155   4.744  13.305  0.0708 -0.1699  0.0964
19890W        W36024   5.100   8.848   4.679 -0.0348  0.1214 -0.0532
19891W        W36025  10.440  16.416  11.547  0.0306 -0.2133 -0.0066
19892W        W36026   4.689   9.324   0.535 -0.0204  0.3569 -0.1735
19893W        W36027   3.193   2.753   4.046  0.2022 -0.2231  0.2400
19894W        W36028  12.375   7.346   4.184  0.1715 -0.2763  0.0128
19895W        W36029  15.876  10.985  14.021  0.0351 -0.2003 -0.1029
19896W        W36030   9.491  16.448   4.211 -0.0797  0.6833 -0.1179
19897W        W36031   3.665  17.678   1.848  0.0449  0.0645 -0.0468
19898W        W36032   9.513   2.974   4.464  0.0363 -0.0037 -0.1671
19899W        W36033   7.165   6.783  14.103  0.1392  0.0249  0.0310
19900W        W36034   3.709   9.148  10.026 -0.4299  0.0695 -0.2112
19901W        W36035  12.844  13.807  12.759 -0.1578 -0.1083  0.2078
19902W        W36036   4.557   3.294   0.703  0.2065  0.5014 -0.2061
19903W        W36037  13.352   3.491  15.748 -0.2383 -0.0761  0.3876
19904W        W36038   4.973  13.986  12.405 -0.0520  0.1553  0.1389
19905W        W36039   0.830  13.966  12.386 -0.1926 -0.2721  0.1030
19906W        W36040   3.452  13.785   2.284 -0.1892 -0.1292 -0.3184
19907W        W36041   1.497   7.072  13.214 -0.2759  0.1064  0.0978
19908W        W36042   0.367   1.978  13.011  0.0369  0.2392  0.0254
19909W        W36043  14.995  16.849  13.340 -0.0251  0.1447 -0.4257
19910W        W36044  16.948   6.116   9.843  0.1564 -0.3471 -0.1729
19911W        W36045   2.993  18.353  14.377 -0.1485  0.1403 -0.0513
19912W        W36046   0.997  16.519   2.897 -0.2397  0.2222  0.1613
19913W        W36047   9.033   2.243   1.519  0.0012  0.2044 -0.1664
19914W        W36048  13.222   3.438  14.313 -0.0718  0.2053  0.0061
19915W        W36049  10.285  12.256   1.944  0.0013 -0.2136  0.3108
19916W        W36050   5.633  13.348  11.400 -0.2113 -0.0054  0.1025
19917W        W36051  17.870  16.979  11.246  0.2394 -0.0142 -0.0100
19918W        W36052  15.912  14.606   0.115  0.2214  0.2179 -0.0260
19919W        W36053   6.134  14.805  12.892  0.6422 -0.0536 -0.1260
19920W        W36054  17.358  14.177  15.835  0.1108  0.2845  0.2297
19921W        W36055   4.801  18.093  14.978  0.0005 -0.0282 -0.0430
19922W        W36056   0.407  10.583  11.148  0.0785  0.1471 -0.1676
19923W        W36057   4.311   3.138   4.758 -0.0452  0.0340  0.1006
19924W        W36058   4.295   3.234  11.375 -0.2165 -0.0808  0.0345
19925W        W36059  15.103   7.601   3.821 -0.0489 -0.3675  0.0994
19926W        W36060   7.639   8.576   1.102 -0.1599 -0.0672 -0.3326
19927W        W36061   3.511   1.089  12.237 -0.1241  0.0450 -0.2135
19928W        W36062   4.678   0.246   2.481 -0.1901 -0.0111 -0.0121
19929W        W36063   5.455   8.245  10.552 -0.2703 -0.0501 -0.1151
19930W        W36064  10.583   3.895   1.017  0.3538  0.1004  0.1823
19931W        W36065   5.006  16.915   1.709  0.4009  0.1833  0.0712
19932W        W36066  14.841  10.584  15.459 -0.1150  0.0051 -0.1048
19933W        W36067   2.948  10.492  15.806  0.1263 -0.3354  0.2882
19934W        W36068  13.729  11.081  14.751 -0.0742  0.0633 -0.0348
19935W        W36069   0.784   7.715  12.528 -0.0529  0.2468 -0.0426
19936W        W36070   8.064   2.176  14.841 -0.1730  0.1282 -0.1082
19937W        W36071   5.927  11.407  13.384  0.1373  0.0692 -0.0245
19938W        W36072  11.116   5.426  12.183 -0.1158  0.1578 -0.0659
19939W        W36073  16.621   4.238   4.366 -0.0340  0.2219  0.0523
19940W        W36074  10.520  12.765  15.019  0.2154  0.1512  0.0731
19941W        W36075  12.228  10.451   0.343  0.1712 -0.1566  0.1963
19942W        W36076   7.825  16.145   5.908 -0.2124  0.0356  0.2141
19943W        W36077   2.336  12.125  13.275  0.3556 -0.1024  0.0727
19944W        W36078   0.888  11.152   3.474  0.0764  0.2772 -0.4760
19945W        W36079  10.492   8.161  11.408  0.1383  0.0357 -0.0452
19946W        W36080  17.809   6.665   0.808  0.1860  0.2194 -0.3229
19947W        W36081  17.254  15.025  15.430  0.2567  0.0244  0.1157
19948W        W36082   1.492   9.290  13.303 -0.0492 -0.0001 -0.2043
19949W        W36083   8.232   0.317  14.474  0.0613 -0.0767  0.0465
19950W        W36084  11.013   5.087   0.409 -0.0411 -0.0537 -0.0541
19951W        W36085  11.883   7.122  15.530 -0.2639 -0.0711 -0.0093
19952W        W36086  11.663  18.187   2.819 -0.1655 -0.1668  0.0072
19953W        W36087  10.682   1.756   1.575  0.1413  0.2361  0.0463
19954W        W36088  11.155   8.397  13.149 -0.2749 -0.4172  0.1016
19955W        W36089   7.458  16.850   1.084  0.0687  0.0607 -0.0141
19956W        W36090  11.537  12.612  12.554  0.3780 -0.0695 -0.0697
19957W        W36091   1.944  15.857   0.897 -0.0791 -0.1907 -0.1853
19958W        W36092   8.810  14.202  13.792 -0.0358 -0.0102 -0.2817
19959W        W36093   7.804   3.284   2.269 -0.1186  0.2316  0.0794
19960W        W36094   5.650   5.405  12.001 -0.1287  0.1031 -0.1163
19961W        W36095  11.318  18.292   5.000 -0.1109 -0.1165 -0.4702
19962W        W36096   9.793   5.742   4.575  0.0832  0.0910  0.0725
19963W        W36097  14.185  13.380   1.347 -0.0213 -0.0562  0.0018
19964W        W36098  12.863  14.025   1.366 -0.0739 -0.1793 -0.1707
19965W        W36099  17.917   8.641   3.898  0.0131 -0.2043 -0.2791
19966W        W36100  15.450   1.898   1.119 -0.1974 -0.0456 -0.1746
19967W        W36101   2.387   3.892   3.421  0.1398 -0.0491  0.3187
19968W        W36102  13.912  17.345   4.446  0.1609  0.0014 -0.1370
19969W        W36103   6.983  10.836  10.954  0.0246 -0.0524 -0.1186
19970W        W36104   3.715  17.257   5.471  0.1408 -0.0333  0.1976
19971W        W36105   8.668   7.828  11.963  0.2932  0.1016 -0.3056
19972W        W36106   7.580   4.826   1.542  0.0992 -0.2097 -0.0418
19973W        W36107   6.594   4.431  15.235  0.0915 -0.1153  0.0392
19974W        W36108   4.263   9.657   5.271  0.0990 -0.2869 -0.1195
19975W        W36109  10.521   5.348  14.783 -0.0002 -0.2432 -0.0946
19976W        W36110   9.786   3.831  12.340 -0.0153 -0.0125  0.2412
19977W        W36111   6.460   0.034  12.820  0.0463  0.0295 -0.2512
19978W        W36112  15.386   8.656  11.525 -0.0503  0.2041 -0.2591
19979W        W36113   4.596   2.328  14.846  0.0236  0.0777 -0.2484
19980W        W36114  12.746  15.313  11.604  0.2754 -0.0115  0.0155
19981W        W36115   0.229  10.045  12.941 -0.2081  0.1241 -0.1460
19982W        W36116  10.999   1.740   4.756  0.2288  0.2234 -0.0737
19983W        W36117   9.763  13.126   2.934 -0.0482 -0.3755 -0.0075
19984W        W36118   7.613  10.367  12.574  0.0103  0.1947 -0.1045
19985W        W36119   5.004   2.133   3.504 -0.1999  0.1019 -0.2803
19986W        W36120   0.709   1.555  10.993  0.0092  0.4083 -0.2200
19987W        W36121  13.068  11.898   1.573  0.2648 -0.4056  0.1721
19988W        W36122  15.379   9.026   3.483 -0.3223 -0.0016 -0.3250
19989W        W36123  12.010  18.442   1.604  0.0296 -0.0374  0.1798
19990W        W36124  13.355  14.602   4.447  0.0621 -0.1303 -0.0739
19991W        W36125   7.345   5.956  14.224 -0.0678 -0.0792  0.0980
19992W        W36126   5.750   0.937   2.217  0.4303  0.1286  0.0218
19993W        W36127   6.278  15.355   0.692  0.0664  0.0528 -0.0852
19994W        W36128   9.303   7.182  15.905 -0.3806  0.2291  0.0046
19995W        W36129  17.662   4.195   2.025  0.0224 -0.0559  0.0394
19996W        W36130  12.006   1.122  15.240 -0.0587  0.0774  0.1579
19997W        W36131  14.085   0.763  11.825 -0.3760 -0.1131  0.1978
19998W        W36132   2.079  17.952  11.654  0.1970  0.2840 -0.2017
19999W        W36133   2.340  17.815  12.919  0.1119 -0.1718  0.4274
20000W        W36134  14.945   1.383   0.287 -0.0815  0.0450  0.0199
20001W        W36135  14.328  15.906  11.022 -0.2669 -0.1796  0.1165
20002W        W36136  10.824   3.471   2.992  0.1686  0.2459 -0.1090
20003W        W36137   7.248   4.454   0.992 -0.0463 -0.1442 -0.1660
20004W        W36138  12.663   4.838   4.018  0.0656  0.1436 -0.4777
20005W        W36139  12.137  16.022   4.383  0.0860 -0.0431 -0.0068
20006W        W36140   9.347   6.068  11.334  0.1665  0.0642 -0.1039
20007W        W36141   5.285  15.751  14.750  0.1755  0.0228 -0.0230
20008W        W36142   4.309   3.841  14.337 -0.1000  0.0362 -0.0239
20009W        W36143   5.465  12.652  12.071 -0.2231  0.1644 -0.1933
20010W        W36144  17.653  16.183   1.921 -0.1677  0.1442  0.1496
20011W        W36145   3.630  14.898   5.432  0.0342 -0.0005 -0.2612
20012W        W36146  17.225   5.658   2.255 -0.0065  0.1715  0.1329
20013W        W36147  11.929   2.520   1.002  0.1483 -0.0535  0.0951
20014W        W36148  11.884  18.145  14.104  0.0859 -0.2052  0.1665
20015W        W36149   9.631   2.630   3.950  0.0242 -0.0228 -0.2862
20016W        W36150  17.832   7.804  15.449  0.0714  0.0186 -0.1819
20017W        W36151   1.497   2.512   4.146  0.2467 -0.1190  0.2210
20018W        W36152  11.864  12.669  13.385  0.2295 -0.0272  0.1892
20019W        W36153  11.461  10.432   0.425  0.0732  0.1049 -0.1064
20020W        W36154  14.043   9.547   2.293 -0.2045 -0.3648 -0.4080
20021W        W36155  12.645  17.474  11.301 -0.0929  0.0107 -0.2411
20022W        W36156  13.132   6.362   0.859 -0.1961  0.1585 -0.0619
20023W        W36157   1.215  17.832  13.750  0.2093  0.2557  0.0208
20024W        W36158   1.463  17.566  12.489  0.1465  0.3905 -0.0202
20025W        W36159   9.012  14.431  15.161 -0.0132 -0.0583 -0.4672
20026W        W36160   7.124   3.354   4.067 -0.1475 -0.3307 -0.2025
20027W        W36161   2.372  14.094   2.939  0.2088 -0.1416  0.3907
20028W        W36162  15.207  13.691  15.585 -0.1164  0.0782 -0.1086
20029W        W36163   4.227   8.586  10.250 -0.4124  0.0301  0.0886
20030W        W36164   9.153   7.119  15.412 -0.2935  0.2679  0.1720
20031W        W36165  14.335  18.146  15.726 -0.0983  0.2943 -0.0228
20032W        W36166  18.156   1.879  11.512  0.0611 -0.1257 -0.2805
20033W        W36167   3.474  13.162  13.222  0.1785 -0.0958 -0.1192
20034W        W36168   9.421   3.854   0.830  0.0567 -0.1877 -0.1574
20035W        W36169   5.733   5.680  15.756 -0.2543 -0.0614 -0.0915
20036W        W36170  13.435   1.233  13.455 -0.1566  0.1659 -0.0254
20037W        W36171   5.268  18.295   1.302 -0.2191  0.1045 -0.4206
20038W        W36172  16.880  15.225  12.892 -0.0068  0.1408  0.3873
20039W        W36173  13.043   5.553   0.123  0.2214  0.2136 -0.1546
20040W        W36174   1.242   5.794   3.936 -0.1197  0.1138  0.2146
20041W        W36175  18.463   3.750  14.653 -0.1423 -0.1953  0.2119
20042W        W36176   2.149   5.959   0.179  0.2227  0.2452  0.0055
20043W        W36177   4.867   0.839  14.761  0.2274  0.2233 -0.2751
20044W        W36178  16.996  16.680   0.899  0.1219  0.1625  0.0278
20045W        W36179  11.816  13.642  10.184 -0.0071 -0.1716 -0.0179
20046W        W36180  13.878  11.142  14.120 -0.3183  0.2158 -0.0912
20047W        W36181  13.006   1.099  12.231 -0.0066 -0.1411 -0.1463
20048W        W36182   4.358   1.634   0.232 -0.1275 -0.3246 -0.0788
20049W        W36183  12.770  18.287   5.976  0.0375  0.0814  0.1086
20050W        W36184  10.804   0.355  13.678  0.1394 -0.3014 -0.1189
20051W        W36185  16.575  10.542   0.479 -0.0358 -0.0968  0.1199
20052W        W36186  13.380  14.738  15.744 -0.2960 -0.0259 -0.0257
20053W        W36187  11.040  15.362  11.284 -0.2341 -0.2341 -0.1293
20054W        W36188  17.011   0.036   3.877  0.0476 -0.0646  0.1646
20055W        W36189  16.524  13.538  13.504  0.0129  0.1103  0.0747
20056W        W36190   6.187   6.258  14.669 -0.1996  0.1194  0.0209
20057W        W36191   7.109   4.377   2.687 -0.2530  0.2029  0.0077
20058W        W36192  14.215   2.474   6.060 -0.0152 -0.1657  0.0248
20059W        W36193   4.969  10.754  15.172 -0.0933  0.3280 -0.2220
20060W        W36194   4.924  10.790  10.861  0.1631 -0.0477 -0.2419
20061W        W36195   9.643  16.655   5.625 -0.0309 -0.2404  0.2019
20062W        W36196  15.088   2.632  15.239 -0.3410 -0.1781 -0.0080
20063W        W36197   3.998  16.861   5.365  0.0118  0.1653 -0.0887
20064W        W36198  16.710   9.811  12.889 -0.0886  0.0794  0.0843
20065W        W36199   4.040  15.177   0.523  0.0264 -0.1001 -0.1726
20066W        W36200  15.135   0.498   5.861 -0.1516 -0.0267 -0.1452
20067W        W36201  11.360   9.460   4.077 -0.0556 -0.1950 -0.2975
20068W        W36202   5.080   9.520  12.300 -0.0050 -0.1658  0.3158
20069W        W36203  12.526   3.143  11.198 -0.0065  0.0888  0.1134
20070W        W36204   1.411   6.502   4.162 -0.1631 -0.3672 -0.0969
20071W        W36205  15.074   4.850  15.159  0.0770 -0.2817 -0.3804
20072W        W36206  10.780   6.059   4.831  0.1481 -0.0255 -0.0616
20073W        W36207   6.293  10.586   2.562  0.0754 -0.0434 -0.1413
20074W        W36208  14.857  17.703   2.906  0.1587  0.3285 -0.0279
20075W        W36209  11.234   5.339  11.254 -0.1139  0.2722 -0.4100
20076W        W36210   7.767  11.448   3.748  0.1655  0.0808  0.0784
20077W        W36211   6.359  17.779  11.443 -0.1962 -0.0976 -0.1424
20078W        W36212  14.094  15.549  11.480 -0.1016  0.0576 -0.2171
20079W        W36213  12.660  13.437   2.395  0.0528  0.2873  0.0200
20080W        W36214  14.632  15.621  11.411 -0.1302 -0.0217 -0.0839
20081W        W36215  11.431   4.207   0.670  0.0994  0.2001  0.0675
20082W        W36216   3.386   8.826  14.454 -0.2702  0.3358 -0.2302
20083W        W36217  15.331   9.487   1.769  0.1343  0.2758 -0.3835
20084W        W36218   8.542   9.000   4.493  0.1992  0.0559 -0.1031
20085W        W36219  17.666   5.936   3.717 -0.0862 -0.1753  0.1891
20086W        W36220   0.581   2.596  13.773  0.2214 -0.0918  0.0549
20087W        W36221   2.654   5.632   4.806  0.0677 -0.0208  0.0964
20088W        W36222  15.410  14.904   2.557 -0.1367 -0.0984 -0.0237
20089W        W36223   7.217   8.625   1.353  0.0435 -0.2614 -0.2250
20090W        W36224  13.781  15.876  13.315  0.2023  0.4086  0.0151
20091W        W36225   4.957  16.942   3.753  0.0583 -0.1475 -0.1700
20092W        W36226  14.278  17.555   1.282  0.1239 -0.1119  0.1699
20093W        W36227   3.042  13.814   1.129 -0.2689  0.0228 -0.0807
20094W        W36228  11.065   1.117   3.212  0.1353  0.0275 -0.1583
20095W        W36229   9.434   1.347   3.190 -0.0836  0.3749 -0.0361
20096W        W36230   1.732   1.193  10.138  0.0097 -0.0879  0.0102
20097W        W36231  13.076   9.583  14.817 -0.1371  0.2526 -0.1545
20098W        W36232   2.460  10.872  12.691  0.0478  0.0690 -0.1413
20099W        W36233  13.122  12.501   4.114 -0.2376 -0.2261 -0.0045
20100W        W36234   0.621   5.534  13.239  0.0395  0.0280 -0.0605
20101W        W36235   8.834  10.980  14.071  0.0464 -0.1815  0.2631
20102W        W36236   9.633  13.600   1.536 -0.2040 -0.0473 -0.2750
20103W        W36237  13.323  14.852   1.681  0.0711  0.1712 -0.1411
20104W        W36238  15.318  10.793   0.675  0.0653 -0.0042  0.0410
20105W        W36239  14.426  11.385  13.065  0.0285 -0.1774 -0.2068
20106W        W36240   4.668   8.552  10.411 -0.2469  0.1899 -0.3263
20107W        W36241  15.000   2.197  15.125  0.0592 -0.4407 -0.0009
20108W        W36242   1.838   1.507  13.964  0.1367  0.1888 -0.1627
20109W        W36243   3.845  14.526   1.809 -0.1218 -0.0335  0.1851
20110W        W36244  10.837   1.917  12.023 -0.2383 -0.0281  0.0113
20111W        W36245   1.779   4.506  14.128 -0.2066  0.1015  0.3976
20112W        W36246  14.232   8.471   0.804 -0.0718  0.1920  0.2663
20113W        W36247   7.816  12.691   0.524 -0.4316  0.2356 -0.1271
20114W        W36248  13.720  11.967  13.072 -0.1414 -0.0511  0.2692
20115W        W36249  10.457   3.663   3.680  0.1199  0.2442 -0.0751
20116W        W36250   5.676  11.490   0.144 -0.0844  0.0896 -0.0470
20117W        W36251  16.909  13.543   1.835  0.3688 -0.3725  0.3623
20118W        W36252   8.885   6.180  15.103  0.3402  0.0448  0.2022
20119W        W36253  11.040   6.106  14.988  0.2118  0.0142 -0.0474
20120W        W36254   2.940   8.640   4.312 -0.0032  0.0518 -0.2206
20121W        W36255   8.800   9.837  15.188 -0.0549  0.0407  0.0254
20122W        W36256   4.217   7.501  11.579  0.0680  0.1493 -0.0073
20123W        W36257   8.331  15.171   1.004 -0.1590 -0.0877  0.0701
20124W        W36258   2.211  10.783   0.313  0.0623 -0.1795 -0.0727
20125W        W36259  13.040   0.988   2.618  0.0380 -0.2814 -0.2586
20126W        W36260  11.800  16.853  11.481  0.0456 -0.0163  0.0545
20127W        W36261  17.248   3.835  11.666 -0.1240 -0.1724 -0.1543
20128W        W36262   8.124  11.020  13.254  0.5957  0.2355 -0.0261
20129W        W36263   3.613   9.417  11.883 -0.0915 -0.1712 -0.0330
20130W        W36264  16.738   8.784  11.073  0.0717  0.2686 -0.1865
20131W        W36265   3.879   0.195  13.694  0.2979 -0.3207  0.1330
20132W        W36266   9.517   9.342   4.859  0.1031 -0.0058 -0.1031
20133W        W36267  16.846  16.899  13.204  0.0445  0.1444 -0.1667
20134W        W36268  11.108  10.879  12.597 -0.1532  0.1481 -0.1270
20135W        W36269   7.091   1.453  11.639  0.0185 -0.3438  0.0328
20136W        W36270   9.386   1.379   1.118  0.0293  0.0568  0.1387
20137W        W36271  18.411  15.624   4.566  0.2666  0.2387  0.0110
20138W        W36272  10.976  11.260   2.182 -0.2030  0.0071 -0.0988
20139W        W36273  11.458  15.948   0.420 -0.2761 -0.0212 -0.2300
20140W        W36274   5.537   6.539   1.101 -0.1076 -0.0559 -0.1674
20141W        W36275   2.848  10.403  10.004 -0.8448  0.1535  0.1208
20142W        W36276  17.102  17.487   4.281  0.1234  0.0313  0.0567
20143W        W36277   4.690   6.671   0.090 -0.0033 -0.1404  0.1958
20144W        W36278   9.986   8.018  13.581  0.1261  0.2919  0.3522
20145W        W36279   3.581   2.492  13.776  0.0637 -0.3164 -0.0957
20146W        W36280  13.747  14.649   2.726  0.1167  0.2347 -0.3689
20147W        W36281  11.567   3.621   3.395  0.3621  0.1889 -0.2071
20148W        W36282   4.560   6.631   9.786  0.1416  0.1655  0.3116
20149W        W36283  13.946  15.222   0.420  0.2790  0.3239 -0.1387
20150W        W36284  14.672   0.388  15.192  0.1817 -0.1536 -0.2081
20151W        W36285  17.418   6.130  13.355  0.0415  0.2098  0.2073
20152W        W36286  17.184  13.483  12.731 -0.1243  0.1708 -0.0022
20153W        W36287   3.147  15.116  14.668  0.2021  0.2919 -0.0689
20154W        W36288   1.812  17.260  14.099 -0.1507  0.1962  0.0421
20155W        W36289   3.665  13.372   1.107  0.0042 -0.1338  0.1630
20156W        W36290   5.382   0.459  12.050 -0.1297  0.2267 -0.0061
20157W        W36291  15.984   7.687   1.689  0.0819 -0.0115 -0.0304
20158W        W36292   0.330  17.198   2.991 -0.0494  0.1853  0.0527
20159W        W36293   7.295  10.375   0.275  0.0533  0.0029 -0.0038
20160W        W36294   1.164   1.612  15.536 -0.0925 -0.0123 -0.3017
20161W        W36295  14.238  12.624   4.455 -0.0193 -0.2937  0.1324
20162W        W36296   9.624  11.078  11.724  0.1335  0.0705  0.2116
20163W        W36297   8.749   9.150   3.603 -0.0544  0.0304  0.0172
20164W        W36298  15.765  15.547   5.471 -0.0526 -0.2556  0.0899
20165W        W36299   4.561   8.664   4.964  0.1998  0.1705 -0.0290
20166W        W36300   2.577   5.703  14.372  0.0316  0.1583 -0.1807
20167W        W36301   6.289  13.495   1.640 -0.0900 -0.0787  0.1575
20168W        W36302  12.164   4.894   4.084 -0.1587 -0.0229  0.1006
20169W        W36303  15.375   4.865  12.590 -0.1224 -0.0564 -0.1705
20170W        W36304   4.819  17.731   4.277  0.1791 -0.0839 -0.1060
20171W        W36305   1.258  16.393   3.907 -0.1009  0.2086 -0.0680
20172W        W36306   1.931   0.389  13.914 -0.3816  0.2525  0.1711
20173W        W36307   5.250  15.253   0.789 -0.0329  0.0255 -0.3001
20174W        W36308  10.616   8.447  14.440 -0.2181  0.1590 -0.2623
20175W        W36309   9.960  15.314   5.650 -0.0470  0.0607 -0.0634
20176W        W36310  17.255   4.411  14.519  0.3606 -0.0372  0.0740
20177W        W36311   6.526   1.550   3.659  0.1386  0.1971 -0.1278
20178W        W36312   2.459  17.036   2.771 -0.1073  0.0441 -0.0006
20179W        W36313   3.294   4.452  11.166 -0.0098 -0.0668 -0.1527
20180W        W36314   8.677   7.380  11.088  0.0281  0.0072  0.0315
20181W        W36315   8.681  17.701   4.804 -0.1280  0.1229 -0.0652
20182W        W36316  18.440  18.347  11.534  0.0335 -0.1458 -0.0559
20183W        W36317   5.039  17.107  12.914  0.0191  0.0951 -0.1558
20184W        W36318   7.565   6.422  12.827  0.1676  0.1068  0.1634
20185W        W36319  10.344  14.003  11.200 -0.1542  0.0611  0.1389
20186W        W36320   4.449   4.995  13.719 -0.2970 -0.1100  0.0973
20187W        W36321   8.694   7.996   4.891 -0.1745  0.0039  0.2469
20188W        W36322  10.476  11.824   1.499  0.1816  0.1562  0.1699
20189W        W36323  14.488  10.717  15.825 -0.1634 -0.0100  0.1100
20190W        W36324   4.660   1.502  11.602  0.0620  0.0614 -0.2769
20191W        W36325  12.893   0.380  11.571 -0.0004 -0.1550  0.2665
20192W        W36326  15.271   9.535   2.519 -0.0016  0.0479 -0.2498
20193W        W36327  14.418   2.854  12.731  0.0006  0.0793  0.1623
20194W        W36328   6.909   9.710  13.602  0.1965 -0.2294  0.0669
20195W        W36329   6.005   6.649  13.288 -0.0689 -0.3366 -0.2644
20196W        W36330  11.311  12.442   0.024  0.2253 -0.4196 -0.1165
20197W        W36331   0.344   0.608   1.803  0.1070 -0.0125  0.2045
20198W        W36332  10.329  14.293   2.359 -0.0714 -0.0940  0.0118
20199W        W36333  16.754   5.018   0.822  0.2268  0.1947 -0.2812
20200W        W36334  13.442   5.648   1.012  0.1096 -0.1665 -0.0002
20201W        W36335   8.483  15.516  14.396 -0.0689  0.0506 -0.1014
20202W        W36336  14.407  16.530   0.659  0.1152  0.1092  0.3493
20203W        W36337   9.012  12.128   0.239 -0.0677  0.0044 -0.2679
20204W        W36338   1.597   9.157  12.474 -0.2184 -0.0432  0.0089
20205W        W36339  12.241   2.538  13.836  0.2093  0.2046 -0.2343
20206W        W36340  16.681   1.414  13.698  0.0398  0.0516  0.3090
20207W        W36341   9.901  16.184   1.403 -0.1615  0.0934  0.2230
20208W        W36342   1.894   6.623   5.660  0.2159 -0.1062  0.3570
20209W        W36343  10.947   8.900  11.680 -0.1505 -0.0544 -0.1015
20210W        W36344   5.953   7.566  14.628 -0.0469 -0.2213 -0.0022
20211W        W36345  13.934  18.089  11.905 -0.3794  0.0064  0.0596
20212W        W36346  16.477  18.401   1.019  0.2717  0.0176 -0.2116
20213W        W36347  11.566   6.717  12.297  0.1124  0.2601  0.1736
20214W        W36348   4.437  11.105  12.995 -0.1395 -0.0148 -0.2714
20215W        W36349   8.213   2.814   2.217  0.1057  0.2341  0.0304
20216W        W36350  15.402  17.531  14.183 -0.2881  0.0614  0.1531
20217W        W36351  12.552   3.213  13.249  0.0496  0.1805 -0.0590
20218W        W36352  12.450  16.692  14.151  0.0188 -0.1540 -0.1233
20219W        W36353  14.678   1.151  11.380  0.2100  0.1123 -0.0985
20220W        W36354   8.713   3.257  14.393 -0.2651  0.4718 -0.0518
20221W        W36355   5.299   9.563  14.437 -0.0577 -0.2573 -0.1527
20222W        W36356   3.892   4.060  10.190  0.1456  0.1540  0.1048
20223W        W36357   9.951   9.233  11.806  0.0063  0.0402  0.1282
20224W        W36358   1.632   6.497   0.103 -0.1652  0.2913  0.3036
20225W        W36359   4.029  11.947  13.673 -0.5453 -0.3254 -0.1229
20226W        W36360   8.068  13.365   5.215  0.0489  0.0092  0.0296
20227W        W36361   1.869   1.877   2.020  0.1087  0.0015 -0.1336
20228W        W36362  14.709  14.339   2.528 -0.0398  0.1262 -0.1843
20229W        W36363   7.583   0.636   4.357  0.0801  0.0554  0.2849
20230W        W36364   3.402   7.917  10.268 -0.1450 -0.0813  0.1364
20231W        W36365   7.735   9.240  12.135  0.4766 -0.1713  0.2271
20232W        W36366  17.789   8.231  13.685  0.1198 -0.0183  0.0504
20233W        W36367  17.042   3.884   4.157 -0.0610  0.0732 -0.1542
20234W        W36368  18.113  11.549   9.802  0.1235  0.3436  0.2191
20235W        W36369   9.820  15.804   0.179  0.1062  0.1030  0.0090
20236W        W36370   2.842   9.561  10.354 -0.2261  0.1836  0.3830
20237W        W36371  15.713   6.210  12.012 -0.3258  0.0311  0.2230
20238W        W36372   1.123   4.097   0.296  0.0415  0.2999  0.0078
20239W        W36373   4.236   2.977   5.292  0.1795  0.2395  0.0711
20240W        W36374  16.112   4.165  11.078 -0.0137  0.2130  0.1870
20241W        W36375  10.272   1.604  11.756 -0.0280  0.1612 -0.0347
20242W        W36376   6.346   8.961   3.276 -0.1110 -0.1603 -0.0034
20243W        W36377  17.318   5.082  11.700  0.2300 -0.0381 -0.1496
20244W        W36378   3.655  14.595  12.292  0.0046 -0.0826 -0.1488
20245W        W36379   3.608   6.538   1.549 -0.1346  0.1310  0.1631
20246W        W36380   9.471  17.624   5.540  0.2209  0.0759 -0.1159
20247W        W36381   2.536   1.918  10.879 -0.1705  0.0570  0.1680
20248W        W36382   7.839  11.319   0.255  0.1478  0.1320 -0.1290
20249W        W36383  10.910   7.019  15.286  0.2144  0.3736 -0.3225
20250W        W36384   1.425  10.023   4.036  0.0143  0.0112 -0.2718
20251W        W36385  14.873  12.187   0.568  0.2805  0.2511  0.0131
20252W        W36386   3.614   6.369  12.768 -0.0399  0.5386  0.2747
20253W        W36387   3.438   6.157   1.809  0.0538 -0.1334 -0.4042
20254W        W36388  10.361   2.392   5.019  0.0916 -0.0684 -0.0752
20255W        W36389  10.126  12.827  13.196 -0.1093 -0.1496  0.1494
20256W        W36390   4.615  11.122  11.155  0.1207  0.2100  0.0259
20257W        W36391  17.313  13.102  15.264 -0.1443  0.0771 -0.0896
20258W        W36392   4.210   0.027  11.795 -0.0755  0.1412  0.1088
20259W        W36393  16.391   4.588   2.680 -0.3032  0.0713  0.0353
20260W        W36394  13.467   5.261   0.074 -0.1113  0.0762 -0.2572
20261W        W36395  12.323   1.596  14.173 -0.1423  0.4806 -0.1594
20262W        W36396   6.468  12.843   5.224 -0.2270 -0.1239  0.0545
20263W        W36397  15.569   1.821   4.219 -0.0198 -0.0108 -0.2624
20264W        W36398   0.894   1.574   4.954 -0.0797 -0.4516 -0.3043
20265W        W36399   6.577   6.307  11.952 -0.1413 -0.2284 -0.1403
20266W        W36400  15.522  12.283   3.871  0.0721 -0.3489 -0.0386
20267W        W36401  13.478  10.059   0.776 -0.2846  0.1130  0.1978
20268W        W36402  14.107  14.683  15.748 -0.0017 -0.2145  0.1148
20269W        W36403  12.542   3.995  12.970 -0.1812 -0.3196 -0.2523
20270W        W36404   3.113   9.705  10.790  0.1689 -0.1384 -0.1969
20271W        W36405  13.471   6.123   1.175 -0.2232  0.1062 -0.2128
20272W        W36406   9.700  17.271  13.867  0.0049 -0.0079 -0.3576
20273W        W36407   9.603   5.260  14.752  0.0326 -0.1936 -0.0625
20274W        W36408   3.118   8.091   2.774  0.0532  0.0521  0.0128
20275W        W36409   9.594  12.818   3.960 -0.0146  0.1189 -0.4624
20276W        W36410   1.301   1.914   1.113 -0.3327  0.2686  0.1451
20277W        W36411  10.643   5.439   3.835  0.1013  0.1195 -0.1668
20278W        W36412  18.467   8.135   0.031 -0.1638  0.2056  0.0035
20279W        W36413   6.480  11.751  12.704  0.0425  0.0919  0.0378
20280W        W36414   6.621   8.827   5.984  0.0805  0.3164  0.0059
20281W        W36415   2.774  10.412   0.876 -0.0390  0.0931 -0.1098
20282W        W36416   8.437  12.691   1.725 -0.0305  0.1827 -0.0595
20283W        W36417  16.412   3.149  11.633 -0.2601  0.1038  0.1679
20284W        W36418   6.504   3.981  13.132  0.2785  0.0538 -0.1151
20285W        W36419  11.102   8.207   0.977  0.1914  0.2924  0.1116
20286W        W36420   5.103  13.998  15.903  0.0014  0.1265  0.4018
20287W        W36421  15.180   3.407  13.622  0.3005  0.2537 -0.1964
20288W        W36422  13.418   9.919   0.304 -0.4570 -0.3859  0.2571
20289W        W36423   4.362   9.960   5.946  0.2038 -0.0795 -0.0317
20290W        W36424   1.760  17.135   3.061 -0.2191  0.0781  0.0250
20291W        W36425   9.939   6.567   4.810  0.2000 -0.2097  0.1297
20292W        W36426   7.934   9.765   0.034  0.2086 -0.1498  0.0033
20293W        W36427  16.922   9.941   2.804  0.1104  0.5475  0.1178
20294W        W36428  14.771  10.896   3.518 -0.1266 -0.0660  0.0311
20295W        W36429  14.785  10.084  15.509  0.1157 -0.1880 -0.2844
20296W        W36430   0.565   6.594   3.918  0.1756  0.2570  0.3027
20297W        W36431  11.444  13.987   2.677 -0.1429 -0.1988 -0.3132
20298W        W36432   4.321   1.361   6.084 -0.0078  0.2965 -0.2256
20299W        W36433  17.698   4.825   3.217 -0.3126 -0.0937 -0.2832
20300W        W36434   2.165   2.426  14.541 -0.0149  0.1181 -0.1996
20301W        W36435  14.152  12.269   4.763 -0.4003  0.0217  0.1780
20302W        W36436   7.543  10.794   2.846  0.2738  0.2502  0.1161
20303W        W36437  15.999  16.913   0.702  0.6370  0.1442  0.1532
20304W        W36438   9.548   3.820   2.670 -0.1670  0.2314  0.2085
20305W        W36439   3.995   0.853   3.167 -0.2432  0.1253 -0.0382
20306W        W36440  11.336  13.233   5.109  0.1682  0.1357 -0.0413
20307W        W36441  15.245   3.948  12.932 -0.2332  0.0288 -0.1918
20308W        W36442   1.653   4.267  12.729  0.1762 -0.0354 -0.0205
20309W        W36443   8.014   6.677  11.565 -0.1050  0.2753 -0.0632
20310W        W36444  16.403   7.327  15.036 -0.0309  0.0783 -0.1651
20311W        W36445   4.735   4.077  13.889  0.1164  0.1124 -0.1737
20312W        W36446  11.740   0.021   0.168 -0.2613  0.1428  0.1456
20313W        W36447  10.855   3.103   1.181 -0.1925 -0.1718  0.1691
20314W        W36448   6.267   1.703  12.163 -0.0494  0.0372  0.0573
20315W        W36449   1.615   8.917   1.202  0.1091  0.0988  0.1945
20316W        W36450  17.934  17.888  14.834 -0.4029  0.3005 -0.0563
20317W        W36451   7.919   4.514  12.893  0.5019 -0.0799 -0.0462
20318W        W36452  17.021  12.085  15.065  0.0221 -0.4952 -0.0121
20319W        W36453  17.238  12.006  11.564 -0.2778  0.0055 -0.0906
20320W        W36454   4.357  15.287  10.344 -0.2026  0.1572 -0.2590
20321W        W36455  10.440   0.240   5.204 -0.1305  0.1365 -0.1096
20322W        W36456  13.371  10.055  10.346  0.1011  0.0569 -0.0599
20323W        W36457  18.187  17.372  14.991  0.1405 -0.0565  0.4710
20324W        W36458   0.569   6.832   4.746 -0.1264 -0.1836 -0.2869
20325W        W36459   3.101  11.797  11.487  0.1096 -0.1439 -0.0601
20326W        W36460  16.690  12.086  10.898  0.0831  0.1349  0.2586
20327W        W36461   9.403   4.847   1.551 -0.0758 -0.1128  0.0087
20328W        W36462   4.575   9.742  14.461  0.1180 -0.0760  0.1605
20329W        W36463   5.289  16.525  15.484  0.0805 -0.1478  0.0621
20330W        W36464  18.043   6.732  13.469  0.0197 -0.0552 -0.1763
20331W        W36465   4.278   6.253   1.284  0.2080  0.0364 -0.0500
20332W        W36466   5.100  12.038  14.987  0.1991  0.1414 -0.0005
20333W        W36467   2.299   9.015  15.582  0.2725 -0.1472 -0.0700
20334W        W36468  14.729   6.090  10.786  0.2134  0.1594  0.0084
20335W        W36469   3.111   1.520  14.516  0.0655 -0.2252 -0.0491
20336W        W36470  11.185   4.831  14.145  0.0450  0.0152  0.0546
20337W        W36471   7.858   9.772   2.887 -0.0344 -0.2698  0.0749
20338W        W36472  13.763   2.809   0.637  0.3767  0.0365  0.2170
20339W        W36473  11.187   8.569  14.367  0.1947  0.1070  0.3312
20340W        W36474   0.408   6.311  11.842  0.1618  0.1725  0.0246
20341W        W36475   9.438   4.799   0.230  0.0072  0.0880 -0.1905
20342W        W36476   7.643   2.490   3.939  0.1133 -0.0050 -0.1150
20343W        W36477  13.993  15.075  15.267  0.2867  0.3847 -0.1003
20344W        W36478   4.862  13.150  15.646 -0.0265  0.4661  0.1118
20345W        W36479   0.058   0.778  13.760  0.1159  0.1599 -0.2761
20346W        W36480  11.600   7.882   5.357  0.1617  0.0896 -0.0101
20347W        W36481   0.846   4.479   0.026  0.2929  0.1286  0.1358
20348W        W36482  12.489  13.169  15.798  0.1176 -0.1770 -0.2411
20349W        W36483   0.852  16.281  14.716  0.0929  0.5363 -0.2752
20350W        W36484   6.141   6.549  11.947 -0.2958 -0.0211 -0.2309
20351W        W36485  14.457  12.147   0.299 -0.0442  0.0420  0.3041
20352W        W36486   2.283   5.937   0.737 -0.0555 -0.0285 -0.0021
20353W        W36487  11.567  14.912   3.822 -0.0785  0.1435 -0.3153
20354W        W36488  12.948  14.374  13.257 -0.1565  0.1710  0.1110
20355W        W36489  10.206   6.390  12.324 -0.1102 -0.3522 -0.0281
20356W        W36490   7.758   4.596   1.958  0.0120  0.0501 -0.1395
20357W        W36491  15.078  13.856   4.666 -0.0737  0.1257  0.1454
20358W        W36492  11.601   3.740   4.470  0.1218  0.0911 -0.1651
20359W        W36493  10.233  11.467  14.383 -0.0424 -0.0586  0.1049
20360W        W36494   3.658   2.277  11.014  0.0327 -0.1288 -0.0956
20361W        W36495  17.909  12.509   1.199  0.0525  0.3903 -0.0930
20362W        W36496  15.069  17.633   4.495 -0.1846  0.2510  0.2166
20363W        W36497  14.256   5.978   2.753  0.2358  0.1160  0.0803
20364W        W36498   7.905  11.148  14.693  0.3020 -0.0420 -0.1158
20365W        W36499   1.295   3.892  11.341  0.0305  0.0392 -0.1940
20366W        W36500   8.924   3.129  13.499  0.0725 -0.1267 -0.0747
20367W        W36501   4.129   0.195   1.786  0.4141 -0.0040  0.0915
20368W        W36502  12.956   2.290  14.500 -0.0583 -0.1084 -0.3072
20369W        W36503   7.504  14.544  14.088 -0.0716  0.4745  0.4978
20370W        W36504   6.993   7.950   5.139 -0.1674  0.0542  0.0479
20371W        W36505   0.052  12.088   4.566 -0.3088 -0.2279  0.3204
20372W        W36506  16.550   9.876   3.852  0.0969 -0.0390 -0.2593
20373W        W36507  17.735   3.080   3.085 -0.3139  0.0346 -0.1859
20374W        W36508   8.909   1.499  13.276 -0.0397 -0.0520  0.0670
20375W        W36509   1.358   0.098  14.555 -0.2195 -0.1527  0.0699
20376W        W36510  15.711   9.273  12.206 -0.0916 -0.1067  0.2872
20377W        W36511  17.998  10.548   0.657  0.0993  0.0357  0.2137
20378W        W36512   3.513  10.146   1.801  0.1516 -0.0934  0.1187
20379W        W36513   4.471  14.279  14.179  0.1992 -0.1420  0.0672
20380W        W36514  11.050  12.345   4.770 -0.0597 -0.0521  0.2410
20381W        W36515  15.203  12.771   1.221  0.1781  0.3653  0.0568
20382W        W36516  16.426   4.108  14.206 -0.2421 -0.2288 -0.3320
20383W        W36517   5.292  13.981   4.345  0.0237 -0.0062 -0.1388
20384W        W36518  10.508   7.189   0.276  0.3650 -0.2380 -0.2480
20385W        W36519   4.313   3.868  13.485 -0.0014  0.1648 -0.0019
20386W        W36520   0.530  10.489  13.218 -0.0241 -0.1699 -0.0977
20387W        W36521  10.221   1.751  12.256 -0.1669 -0.1772 -0.1924
20388W        W36522  14.919   1.519   4.316  0.1602  0.2986 -0.2917
20389W        W36523  11.075  18.147   3.677  0.1453  0.0049 -0.1921
20390W        W36524   6.574  12.174  12.105 -0.2329  0.0243 -0.2536
20391W        W36525  13.171   4.454   0.270  0.1623 -0.5674  0.0258
20392W        W36526   0.128  16.322   2.023  0.2410  0.3786  0.0145
20393W        W36527   5.881   6.372  14.075 -0.0526 -0.1619 -0.1171
20394W        W36528   4.551   2.082   3.758  0.0772 -0.1834 -0.2033
20395W        W36529   3.499  17.348  10.263  0.2600  0.1208  0.0496
20396W        W36530   8.793   3.616  13.553  0.2833  0.1773 -0.0093
20397W        W36531   4.789  16.853   4.433  0.0033  0.1479 -0.0683
20398W        W36532   3.368  12.517  10.936 -0.0705 -0.2436 -0.2131
20399W        W36533   3.787  11.643  15.545  0.2505  0.2224 -0.2675
20400W        W36534  14.971   4.743   3.446 -0.0351  0.0367 -0.1990
20401W        W36535  12.591   7.348   3.679 -0.1261  0.0964  0.0873
20402W        W36536   2.242  15.029  13.242  0.0914 -0.5132  0.1412
20403W        W36537  16.332   5.990   2.643  0.2622 -0.0872  0.2625
20404W        W36538   3.273  12.146   2.777 -0.2447 -0.2185  0.0810
20405W        W36539   3.063   7.758   5.327 -0.1555 -0.0047  0.0026
20406W        W36540  10.634   8.150   0.838  0.0721  0.0496  0.0005
20407W        W36541   2.822   0.389   1.574 -0.0738 -0.0675 -0.1425
20408W        W36542   6.754   0.451   1.663  0.0596  0.1304  0.1215
20409W        W36543   4.668  17.230   2.623 -0.2818 -0.0689  0.0081
20410W        W36544  13.744   1.991   0.337  0.1576  0.1887 -0.0321
20411W        W36545   6.381   5.652   3.800 -0.1686 -0.1022 -0.0911
20412W        W36546  12.222  10.546  11.653  0.1890  0.3532 -0.0615
20413W        W36547  15.333  10.284  12.645  0.1639 -0.2270 -0.0352
20414W        W36548   7.359  14.870  12.946 -0.0338  0.0255 -0.2943
20415W        W36549   9.532  16.624  14.427 -0.2730 -0.0895 -0.0457
20416W        W36550   9.731  15.868  13.043  0.2176 -0.1894  0.1700
20417W        W36551  13.275  12.800   0.862  0.1475 -0.1017 -0.1510
20418W        W36552  15.319  17.094  12.412 -0.2274 -0.1449  0.1581
20419W        W36553  10.093   4.674  11.987 -0.0979  0.1386 -0.2785
20420W        W36554   2.832  14.993   2.927 -0.1361 -0.0589  0.2950
20421W        W36555   9.609  12.680  13.924 -0.0636 -0.0285 -0.1598
20422W        W36556   6.145   7.297   3.418  0.2488  0.4195  0.1231
20423W        W36557   3.024  17.925  15.639  0.0094 -0.2204 -0.4073
20424W        W36558   4.673  11.487   4.418 -0.2976  0.1518  0.0049
20425W        W36559  11.107   2.787  12.350  0.3000  0.3168 -0.0186
20426W        W36560   0.690   0.736  11.335  0.1901  0.2071 -0.3355
20427W        W36561   8.454   6.174   3.035  0.0578 -0.3135  0.2651
20428W        W36562  15.445   7.740   4.494  0.1592 -0.1483  0.1830
20429W        W36563   7.750  17.552   0.564  0.5494 -0.0036  0.1221
20430W        W36564   0.680  14.015   4.210  0.4129 -0.0596  0.2115
20431W        W36565  12.836  11.285  10.752 -0.0971 -0.0081  0.1031
20432W        W36566  16.661   0.115   4.772  0.0065 -0.0167  0.3165
20433W        W36567  13.771   7.704  12.502  0.0839  0.1078 -0.1058
20434W        W36568   6.458   8.095   1.435 -0.0174 -0.1285  0.1292
20435W        W36569   3.295   8.266   4.529  0.0663 -0.0306 -0.2779
20436W        W36570  13.287   2.480   2.497  0.2387  0.1137  0.0018
20437W        W36571   8.224   7.801   0.873 -0.2666 -0.1203  0.1737
20438W        W36572  16.458  18.352   5.663  0.1731 -0.0035  0.0723
20439W        W36573  16.904   9.364  14.141  0.0833 -0.1154 -0.4779
20440W        W36574   5.125  14.089   5.154  0.1383  0.0797  0.1612
20441W        W36575  11.558  12.651  14.269 -0.0713 -0.0679 -0.0063
20442W        W36576  14.884   8.465  10.780  0.0859 -0.1685  0.4029
20443W        W36577  15.581  16.789  15.076  0.0241  0.1035 -0.0737
20444W        W36578  17.611  10.520  15.681  0.2032  0.0659 -0.0561
20445W        W36579  14.781  11.977  13.606  0.0418  0.1108 -0.2388
20446W        W36580   1.295   7.150   2.229 -0.0057  0.2304  0.0598
20447W        W36581   9.386  11.153   1.108  0.3017 -0.3502  0.2361
20448W        W36582  12.933   5.407  13.038 -0.0637  0.0424  0.0209
20449W        W36583  14.394  17.706   2.388  0.0777  0.1348  0.0464
20450W        W36584   8.709  17.912   1.733 -0.0239  0.0465  0.3533
20451W        W36585   9.632   5.495  15.714 -0.3021  0.0488  0.1246
20452W        W36586   8.978  10.377   2.682 -0.1081  0.3168 -0.0006
20453W        W36587   7.505  16.018  12.358 -0.2587 -0.5377  0.2957
20454W        W36588   7.638   3.963  12.322  0.2707 -0.1068  0.0040
20455W        W36589   5.668   3.296   2.344  0.0108  0.1339 -0.0096
20456W        W36590   8.413   0.476  14.059 -0.3977  0.1657 -0.0572
20457W        W36591  11.628  14.236   5.614 -0.1229 -0.1152  0.1111
20458W        W36592  12.195  11.633  14.137  0.0182 -0.0868 -0.1204
20459W        W36593   2.787   0.222   2.718  0.1206  0.0036  0.0912
20460W        W36594  14.599   8.096   4.627 -0.1879 -0.0008  0.3920
20461W        W36595   9.225   7.014  13.664 -0.2823 -0.1599  0.3345
20462W        W36596   0.411   0.698  13.388 -0.3539  0.1446 -0.4041
20463W        W36597   0.324   3.233   1.451  0.0351 -0.0659  0.5344
20464W        W36598   3.146  13.196  14.865  0.1470  0.0454 -0.0545
20465W        W36599  14.432   9.738   4.005 -0.0197  0.1262 -0.2385
20466W        W36600  17.960   4.764   2.822  0.0115 -0.0229 -0.2621
20467W        W36601  12.186   8.240   4.682 -0.0190  0.0594  0.0263
20468W        W36602  14.475   7.984   1.829  0.0186 -0.0665 -0.0298
20469W        W36603   5.557  15.095   5.640 -0.0680  0.1661 -0.0627
20470W        W36604   6.615   9.276   1.301 -0.2072 -0.1868  0.2035
20471W        W36605   3.446   8.900  13.923 -0.0212 -0.0601 -0.2141
20472W        W36606  10.231   5.571  15.081 -0.5153 -0.4402  0.1692
20473W        W36607   4.883  10.350  12.862  0.0142  0.0184 -0.1950
20474W        W36608   0.659   7.790  13.049 -0.0775 -0.0136 -0.1192
20475W        W36609  10.605   9.678  11.204 -0.2054 -0.5486  0.0305
20476W        W36610   7.424   5.908  15.596 -0.0037 -0.2646 -0.3383
20477W        W36611  12.893  15.818  11.867 -0.0751  0.1959  0.2111
20478W        W36612   3.588   6.380   2.682  0.0198  0.1113 -0.1794
20479W        W36613   2.525  11.049  11.846  0.2391 -0.3530 -0.1118
20480W        W36614  10.203   8.714   0.110  0.0389 -0.0465 -0.1104
20481W        W36615  13.621  16.112   1.567  0.0120  0.2555  0.0947
20482W        W36616   4.596   5.791  11.005  0.0114 -0.3817 -0.2915
20483W        W36617   6.925  11.317  13.848  0.1208 -0.0460  0.6644
20484W        W36618  17.556   5.848   1.216  0.1760  0.0782  0.1003
20485W        W36619   7.343   0.896   4.832  0.1062 -0.2988  0.1290
20486W        W36620   0.756  12.648   4.490 -0.0818 -0.1150  0.2614
20487W        W36621  16.264   5.335  13.813 -0.0060  0.2239 -0.0229
20488W        W36622   5.715   9.513  11.555 -0.1780  0.2091 -0.2525
20489W        W36623  13.473  14.176  14.095 -0.0364 -0.0288  0.2053
20490W        W36624   2.172  18.256   1.177  0.1881 -0.0091  0.2211
20491W        W36625  14.169  18.021   2.016  0.0027  0.1429  0.0958
20492W        W36626  15.152  11.001   2.527  0.0478 -0.4421 -0.2797
20493W        W36627  17.257  14.846   0.016 -0.1992 -0.1119  0.2467
20494W        W36628   7.353   6.089   2.234  0.0547 -0.0177  0.0304
20495W        W36629   4.859   4.586  13.568 -0.1146  0.0805  0.0648
20496W        W36630  18.255  17.494  13.487 -0.2728 -0.0857  0.1402
20497W        W36631   9.630   3.052  15.196  0.5331  0.3794  0.0290
20498W        W36632  12.382   9.920   5.354 -0.0347 -0.1923  0.1274
20499W        W36633  11.099  15.105   3.852 -0.2431 -0.2683  0.1789
20500W        W36634  12.925   2.335   3.205 -0.0689  0.1008  0.2206
20501W        W36635  12.487  14.380   5.665  0.1250 -0.0147  0.0218
20502W        W36636  15.283  15.693   3.431  0.1993  0.2119  0.1645
20503W        W36637   7.669   0.637  12.041 -0.1825  0.1966  0.1087
20504W        W36638  18.396   8.447  12.849 -0.0960 -0.0091 -0.1434
20505W        W36639   6.253   9.390  14.780 -0.2310  0.0182  0.0559
20506W        W36640  13.799   2.734   6.043 -0.1489 -0.1866  0.0694
20507W        W36641  13.036   5.010   0.287 -0.1828  0.0875 -0.0700
20508W        W36642  13.638   4.274   0.024  0.0229  0.0313 -0.0993
20509W        W36643   6.490   4.047  13.631 -0.1872  0.1028 -0.2699
20510W        W36644   6.537  15.780   0.560 -0.0961 -0.0473  0.1441
20511W        W36645  13.755  13.313  15.033  0.1636  0.1913 -0.3005
20512W        W36646   9.044  12.764   5.397  0.1309 -0.0376 -0.2600
20513W        W36647  10.527  16.172  12.987 -0.3000 -0.4422  0.1352
20514W        W36648  15.857   1.506  14.296 -0.2456  0.1132 -0.1181
20515W        W36649   1.082   0.241   2.383 -0.0123  0.0427  0.0408
20516W        W36650  15.767  15.730  12.986  0.2135 -0.1121 -0.1692
20517W        W36651   3.792  13.275  10.107  0.0149  0.2647 -0.4140
20518W        W36652   3.986  12.520   4.965  0.2483 -0.1439 -0.2452
20519W        W36653   5.135   1.286  14.799  0.1306 -0.1330  0.0838
20520W        W36654  16.604  15.313   1.891  0.1075 -0.1050  0.0776
20521W        W36655   2.032  17.871  13.504  0.1784  0.0392  0.0965
20522W        W36656   4.291   7.008  11.523 -0.0273 -0.1072  0.2199
20523W        W36657   0.582   5.958   9.832 -0.1005 -0.0013  0.1570
20524W        W36658   4.749   8.878  11.846 -0.3784 -0.0152  0.0056
20525W        W36659   1.893  10.979  15.151  0.1149  0.1901  0.0262
20526W        W36660   2.731   8.290   4.599 -0.1977  0.1081 -0.1750
20527W        W36661   8.997  17.814  14.873 -0.1941 -0.1943 -0.1647
20528W        W36662   9.865  14.249  11.242 -0.1322  0.0560  0.3899
20529W        W36663  17.672  16.042  14.317  0.0118  0.1680 -0.1123
20530W        W36664   5.225   4.841  15.738 -0.1955 -0.0460  0.0841
20531W        W36665   8.768   5.392  15.710 -0.1099 -0.3136 -0.2397
20532W        W36666   1.412   6.948  12.747  0.2994  0.1558  0.2047
20533W        W36667  16.416  16.796  15.417  0.1320  0.2455 -0.1281
20534W        W36668  11.990   0.316   4.567 -0.0020  0.2970 -0.3104
20535W        W36669   8.668  16.867   4.432  0.0175 -0.2320 -0.1677
20536W        W36670  16.296   4.701   4.543 -0.0348 -0.1545 -0.0850
20537W        W36671  15.262   5.709   3.530  0.0475  0.2580  0.1098
20538W        W36672   1.037   4.549   0.524  0.3963  0.1052  0.1633
20539W        W36673   5.648  11.862  11.492  0.1183 -0.0914  0.0278
20540W        W36674   7.215  12.943  15.397  0.0799 -0.0626 -0.0772
20541W        W36675   4.449   6.723   1.869  0.0676  0.0208  0.1616
20542W        W36676   2.816  10.371   4.074 -0.0546  0.1343  0.0391
20543W        W36677   2.506   2.367   4.664  0.3854  0.2037 -0.1020
20544W        W36678   1.591  15.507  12.865 -0.0779 -0.0671 -0.0850
20545W        W36679  14.286   6.908  15.736 -0.3312 -0.0043  0.2151
20546W        W36680  13.761   6.725   1.842  0.0971  0.2029 -0.1340
20547W        W36681  16.775   2.918   3.172  0.2785 -0.0778  0.0222
20548W        W36682  15.299   0.896  10.333  0.2681 -0.0794  0.0127
20549W        W36683  10.998   4.057   1.752  0.0593 -0.5104 -0.0535
20550W        W36684   7.398   4.837  12.814 -0.1978  0.1681 -0.0071
20551W        W36685   4.070  12.436  10.937 -0.0577 -0.1390  0.3914
20552W        W36686   6.789   3.929   3.716 -0.2475 -0.0939  0.1219
20553W        W36687   1.657  11.975  10.631 -0.0643 -0.1189 -0.1219
20554W        W36688  13.484   3.085  14.086 -0.4275  0.0358  0.2186
20555W        W36689   6.206   5.056  15.573  0.0100  0.4204 -0.1760
20556W        W36690  11.887  14.287  13.581 -0.0282 -0.1075  0.1123
20557W        W36691   4.479  17.827  15.270  0.3451  0.1890 -0.1261
20558W        W36692  12.130   5.830  14.647  0.0447  0.2132  0.2273
20559W        W36693  16.661   8.765   0.617 -0.1176  0.0848 -0.0879
20560W        W36694   1.237   4.817   1.053 -0.1981  0.1082 -0.1973
20561W        W36695   6.506  12.660   2.528 -0.0379 -0.0170 -0.0317
20562W        W36696  18.300   8.114  13.818 -0.1253 -0.3543  0.0839
20563W        W36697   9.697  10.576   3.219  0.1125 -0.2498 -0.1109
20564W        W36698   1.405  16.768  14.286  0.0384 -0.1228  0.0896
20565W        W36699   1.887   4.335   0.582 -0.0078  0.1486 -0.0330
20566W        W36700   9.219  11.817  13.644 -0.0598 -0.0649  0.2309
20567W        W36701  13.742   2.692  13.748  0.1950 -0.0005 -0.1143
20568W        W36702   1.514   6.710   4.659 -0.0333  0.0970 -0.0104
20569W        W36703  15.761   3.961   1.827 -0.1443  0.0518 -0.2791
20570W        W36704   0.646   3.245  13.951  0.1388 -0.1118 -0.0512
20571W        W36705   1.367   7.461  14.975  0.0777 -0.0184  0.0034
20572W        W36706  15.516   5.210  10.608  0.2339 -0.1165 -0.0269
20573W        W36707   2.432  14.528  11.284  0.2766  0.0811  0.1476
20574W        W36708   6.447  11.356   5.765 -0.0912 -0.1475  0.0288
20575W        W36709  18.118  14.291  14.806 -0.2026 -0.0649  0.0164
20576W        W36710   3.309   5.632   1.468 -0.0507 -0.2802  0.1989
20577W        W36711  12.584   2.906   4.783 -0.0100  0.1705  0.4083
20578W        W36712   4.986  13.198  14.574  0.0360 -0.3737  0.2874
20579W        W36713   0.234  10.005  14.432  0.0901 -0.1202  0.0500
20580W        W36714  13.462  16.786  12.011 -0.2278  0.2267  0.0354
20581W        W36715   9.857   0.181  15.585  0.0715  0.4149  0.0212
20582W        W36716  15.771  11.478   5.333  0.1914 -0.1901 -0.1261
20583W        W36717  18.255   1.210  11.868  0.0249  0.0509  0.1467
20584W        W36718  15.277   0.288  14.039  0.0687  0.1552 -0.0525
20585W        W36719  11.304   3.063   3.495 -0.1885 -0.1902  0.0480
20586W        W36720  15.725   1.961  11.769 -0.1854  0.0120  0.0077
20587W        W36721  10.522   7.723  15.749 -0.0088  0.1287  0.1608
20588W        W36722  11.772   6.923   3.545  0.1392  0.1308  0.2827
20589W        W36723   6.530  15.851  14.286 -0.3089  0.1455  0.2247
20590W        W36724  18.019   5.279  11.720  0.0450 -0.0779 -0.0718
20591W        W36725   4.590  10.817   0.990  0.0219 -0.2800  0.1273
20592W        W36726  16.208   3.612  12.676  0.1693 -0.0081 -0.1322
20593W        W36727  17.534   9.702  11.847 -0.2112 -0.1130  0.0226
20594W        W36728   4.841  13.827   5.904 -0.0907 -0.1496  0.1081
20595W        W36729   5.566  12.508   3.393 -0.0579  0.1284  0.2695
20596W        W36730   7.558  14.011  14.797 -0.1623 -0.0231  0.0724
20597W        W36731   2.279  18.131   1.637  0.0012 -0.2387  0.3697
20598W        W36732  11.230   0.240  15.829 -0.1168 -0.1821  0.0583
20599W        W36733   3.552  10.789   4.700  0.0578 -0.1009 -0.4769
20600W        W36734  14.690  13.452  13.126  0.0737  0.0455 -0.1997
20601W        W36735  18.213  17.082   4.215  0.0307 -0.0479  0.1382
20602W        W36736   9.588   9.518  11.677 -0.2083  0.1801  0.0672
20603W        W36737  16.059  10.945  12.258 -0.2521 -0.2779 -0.0208
20604W        W36738  10.610   0.105  12.303 -0.0983 -0.0713  0.0376
20605W        W36739   8.266   9.757   0.700  0.2681 -0.2242 -0.0909
20606W        W36740  16.693  13.448  14.823 -0.3196 -0.3771  0.0572
20607W        W36741  15.840   3.956  15.325 -0.0866 -0.1076 -0.0922
20608W        W36742  12.406   2.492   4.400  0.0865  0.1663 -0.2097
20609W        W36743   5.062  11.310   1.417 -0.1987 -0.4394  0.3710
20610W        W36744   1.379  14.663   4.467  0.1036 -0.1036 -0.0214
20611W        W36745   0.239   8.398   5.559 -0.0571 -0.2179  0.0618
20612W        W36746  11.297   0.626   4.043 -0.0619 -0.4535  0.0236
20613W        W36747   5.818  14.942  14.689 -0.0989  0.0113 -0.0328
20614W        W36748   8.561   4.964  15.045  0.0656 -0.1871  0.2203
20615W        W36749   6.539   1.857   3.250  0.0482  0.0396  0.3082
20616W        W36750  13.576   6.309  11.379  0.1343  0.0813  0.2275
20617W        W36751   2.579  16.132  14.261  0.0021  0.1978 -0.1364
20618W        W36752  18.133  12.068  13.072  0.2271 -0.0801  0.0046
20619W        W36753  10.000  17.982   1.119  0.2422 -0.2679  0.0184
20620W        W36754   4.766   1.853   0.499 -0.2611 -0.1422  0.1741
20621W        W36755  14.361   2.675   0.463  0.0556  0.0555 -0.0073
20622W        W36756   8.117   6.776   0.950  0.2798 -0.0323 -0.1561
20623W        W36757  18.132   7.774  15.869  0.0686 -0.1931 -0.0140
20624W        W36758  11.807   3.367   0.616  0.0818 -0.0185 -0.1101
20625W        W36759  17.376  18.418  13.116  0.0025  0.0304 -0.0824
20626W        W36760   3.739   1.597  11.591  0.1424  0.2126  0.1353
20627W        W36761   9.796   5.179   3.965 -0.2681  0.0527 -0.2032
20628W        W36762   7.495  14.202   1.145 -0.0246  0.1342  0.1142
20629W        W36763   6.465   0.046   1.918  0.1256 -0.2938 -0.2492
20630W        W36764   2.335   0.292  13.497 -0.1559 -0.0648  0.0018
20631W        W36765   8.475   3.713  14.009 -0.0359 -0.1813 -0.2645
20632W        W36766  12.534  15.306   1.412 -0.1757 -0.1885 -0.3649
20633W        W36767  12.970  14.286   2.703  0.0984  0.0171  0.3052
20634W        W36768   1.758   5.712   3.178  0.1500  0.1261 -0.0406
20635W        W36769   7.294   7.054   3.947 -0.0552  0.0875  0.1529
20636W        W36770  17.218  14.779  12.924 -0.0844 -0.1349  0.0803
20637W        W36771   5.128   1.019  12.151 -0.3410  0.1000  0.1709
20638W        W36772   5.470   1.956   5.579  0.4704 -0.1491 -0.2912
20639W        W36773   9.001  16.871   5.009 -0.0941  0.1724 -0.1833
20640W        W36774  17.323  11.319  14.019  0.2081 -0.3623 -0.3296
20641W        W36775   1.429  13.013  11.235 -0.0793  0.2629  0.1209
20642W        W36776  15.486  10.490  13.525  0.0665 -0.0233 -0.2878
20643W        W36777   8.325  16.669  13.027 -0.1042 -0.2763  0.0822
20644W        W36778   7.001  14.687  14.927 -0.1438  0.0508  0.0815
20645W        W36779   6.325  16.684   5.880  0.0272 -0.3722 -0.0598
20646W        W36780   2.514   5.146   3.713 -0.1907 -0.0586  0.3042
20647W        W36781  10.501  13.598  13.159 -0.2684  0.2766 -0.0336
20648W        W36782   5.818   5.424   3.042  0.0480 -0.0960 -0.3539
20649W        W36783   2.949   6.325  15.484 -0.1456 -0.2322  0.0116
20650W        W36784  17.449   9.916  10.852 -0.2183 -0.2067 -0.0382
20651W        W36785  12.531  12.408   3.105  0.2388  0.1515 -0.1832
20652W        W36786  15.326   5.826  13.008  0.5427  0.3267  0.0084
20653W        W36787  11.231   1.994   5.650 -0.1543 -0.1848  0.1923
20654W        W36788   8.996  10.554   3.589 -0.0404  0.1596 -0.0951
20655W        W36789   7.554   3.879  14.555 -0.1358 -0.2517 -0.2522
20656W        W36790  14.305  16.525  14.379 -0.2260 -0.0017 -0.1044
20657W        W36791   0.597   5.751   1.829 -0.0784  0.0161 -0.1723
20658W        W36792   6.552  16.513  12.912 -0.1611  0.2526 -0.0498
20659W        W36793   5.135   2.046   6.507  0.2427  0.1392  0.1851
20660W        W36794  17.241  15.267  13.241 -0.0796 -0.1763  0.2097
20661W        W36795  10.067  10.287  15.658  0.2090 -0.0071  0.1731
20662W        W36796   7.930  16.410   1.270  0.1728  0.1540  0.0333
20663W        W36797  10.679   9.843  12.798  0.0111 -0.1372  0.0407
20664W        W36798   5.951  14.367   2.550  0.1848 -0.0786 -0.2201
20665W        W36799   7.878  14.810   1.066  0.2305  0.1344  0.1484
20666W        W36800   3.738  18.347  15.704  0.1450 -0.2082 -0.0917
20667W        W36801   2.698   1.675  13.916  0.0429  0.0789 -0.2501
20668W        W36802  11.363  16.093  15.807 -0.1790 -0.0051 -0.0029
20669W        W36803   4.824   6.845   5.148  0.1760 -0.1417  0.0427
20670W        W36804  15.559  10.897   1.589  0.0122  0.0979 -0.0330
20671W        W36805   6.748  10.928  12.974 -0.0109  0.1022  0.2388
20672W        W36806  13.667   9.032   0.533 -0.0407  0.3086 -0.2219
20673W        W36807  17.468   3.946   4.986  0.1291  0.3842 -0.1934
20674W        W36808   5.952   8.323   4.143 -0.2262 -0.0985  0.2874
20675W        W36809  16.660   9.816   4.835  0.0359  0.4632 -0.2703
20676W        W36810  15.091   9.672   0.793 -0.2724 -0.1366 -0.0905
20677W        W36811   6.773  12.098  14.908  0.3424 -0.0821 -0.1173
20678W        W36812  18.080   6.913   5.035 -0.3504 -0.0882 -0.2055
20679W        W36813   2.550   8.871  10.804  0.3225 -0.0318 -0.0819
20680W        W36814  14.476   1.006   0.816 -0.2853  0.0393  0.1540
20681W        W36815   3.742  14.063  12.271  0.1739 -0.0782  0.2736
20682W        W36816   0.132  12.025  12.792  0.0532  0.0011 -0.0682
20683W        W36817  12.066   7.106   2.051 -0.0032  0.1208  0.0723
20684W        W36818  17.427   5.266   4.536  0.4208  0.0218 -0.0041
20685W        W36819   0.224  15.603   0.939  0.0409  0.3647 -0.0926
20686W        W36820   0.002   7.777  15.509 -0.0278  0.1369 -0.2114
20687W        W36821   4.571  11.188  13.516  0.1807 -0.0649  0.2644
20688W        W36822  10.221   7.435   4.880 -0.1596  0.1370 -0.1192
20689W        W36823  15.211  13.826   3.377  0.1711 -0.3427  0.1856
20690W        W36824  13.678  12.146  15.028 -0.1103 -0.1498 -0.1210
20691W        W36825  14.943  17.456  15.301 -0.2376  0.1012 -0.1104
20692W        W36826   6.195  10.861   4.396 -0.0212  0.1467 -0.0961
20693W        W36827  16.370  11.834  14.696  0.3252 -0.0950  0.0835
20694W        W36828   4.990  12.253   1.860 -0.1568  0.2132 -0.0598
20695W        W36829  12.899  12.655  13.637 -0.0032  0.5967  0.0348
20696W        W36830  15.773   6.458   4.978 -0.1196  0.3723 -0.0407
20697W        W36831  15.722  13.325   0.294 -0.0005 -0.2186  0.1705
20698W        W36832  14.036  10.167   1.454 -0.0355 -0.0531 -0.0984
20699W        W36833   4.626   5.430  12.108 -0.0728 -0.2594 -0.1467
20700W        W36834   2.083   3.707   1.194 -0.3227  0.0276 -0.0214
20701W        W36835  13.707  18.403   0.200  0.4922  0.0651 -0.1496
20702W        W36836   2.776  12.427  13.286  0.1977 -0.0883 -0.1778
20703W        W36837  10.626   0.277  11.213 -0.1086 -0.1524 -0.1654
20704W        W36838  10.514   1.912  15.662 -0.1517 -0.0660  0.1513
20705W        W36839   8.955   7.850  15.379 -0.3054  0.1327 -0.3176
20706W        W36840   8.588   8.370   0.135 -0.0600 -0.0334 -0.0715
20707W        W36841  11.158  13.812  12.246 -0.0884  0.0470 -0.0435
20708W        W36842   8.200  16.866   5.357 -0.1428  0.0763  0.0219
20709W        W36843  13.695   3.255   0.095 -0.2483 -0.0652 -0.1221
20710W        W36844   1.880   4.583  11.756  0.0522  0.0687  0.1349
20711W        W36845  13.152   0.445   0.056 -0.0082  0.1808 -0.1155
20712W        W36846   8.132  14.512   3.824  0.0188  0.2397  0.0393
20713W        W36847   6.014  13.951   3.592  0.0185  0.2906  0.2928
20714W        W36848  10.857   2.968   4.245  0.4744  0.1091  0.0553
20715W        W36849  17.528  13.189  10.855 -0.0178 -0.2252 -0.2339
20716W        W36850  13.427  10.267   2.653  0.0659  0.1641 -0.1006
20717W        W36851  13.018  16.164   3.039 -0.1026 -0.0847 -0.0651
20718W        W36852  15.339   9.634  13.355 -0.2954  0.2119  0.1471
20719W        W36853   0.936  10.786   4.960 -0.0164  0.1421  0.1677
20720W        W36854  16.108   8.918  14.211 -0.2275 -0.0439  0.1763
20721W        W36855   1.503   5.487  10.673 -0.2022 -0.0750  0.2498
20722W        W36856  16.793   4.924   3.586  0.5004 -0.0609  0.0922
20723W        W36857  15.406   0.499  11.368  0.3337  0.4173  0.0317
20724W        W36858  17.445   0.202  12.298  0.0630  0.0605 -0.0211
20725W        W36859   5.700  17.949   4.421 -0.1243 -0.0919  0.2765
20726W        W36860  14.604   1.605   1.180  0.0619 -0.6014  0.1777
20727W        W36861   1.216   1.453  10.866 -0.1567 -0.2253  0.1162
20728W        W36862  12.435  17.524   2.781 -0.1104  0.2231 -0.0022
20729W        W36863  16.598   5.230  14.179  0.2821 -0.1207  0.2599
20730W        W36864   7.479  18.218   4.112  0.2443  0.2737 -0.0509
20731W        W36865   0.164  10.889   0.929 -0.1879 -0.1745  0.1139
20732W        W36866  11.533   5.265   5.251 -0.1046 -0.2813 -0.0365
20733W        W36867  12.675  15.278   3.391  0.0787  0.2607 -0.1528
20734W        W36868   4.722   2.157   3.030  0.6010 -0.3795  0.0243
20735W        W36869   3.281  15.449   4.189 -0.4507  0.2991 -0.2297
20736W        W36870   8.765   8.254   3.917  0.1150 -0.1317 -0.0700
20737W        W36871  16.906   2.639  12.931  0.3731 -0.1350  0.1707
20738W        W36872   4.975   7.311   5.221  0.1560 -0.0650  0.3785
20739W        W36873  14.483   9.103   3.114  0.0661  0.0822 -0.1904
20740W        W36874   8.411  14.339  15.484 -0.0843  0.0211  0.0078
20741W        W36875  10.570  14.579  13.719 -0.0190 -0.1786 -0.2465
20742W        W36876  15.884  14.026  14.420 -0.0976  0.0671 -0.1006
20743W        W36877   0.421  18.434   0.715  0.1155 -0.0720 -0.0843
20744W        W36878  11.741   3.051  14.572 -0.0992 -0.0184  0.0616
20745W        W36879  12.420   6.547   0.036  0.0453 -0.2182 -0.0069
20746W        W36880  16.219   0.098   0.417  0.1964 -0.4781 -0.4716
20747W        W36881  12.190  14.252   3.345  0.0503 -0.4027 -0.1562
20748W        W36882   0.612   5.747   2.334 -0.1539  0.1322 -0.0380
20749W        W36883  16.781  13.399  11.367 -0.3207  0.1284 -0.1529
20750W        W36884   2.795  10.116  13.125  0.1287  0.2359  0.1742
20751W        W36885  12.261  12.780   3.194 -0.1140  0.0085  0.1895
20752W        W36886  12.814   0.270  12.459 -0.1600 -0.0358  0.0778
20753W        W36887   7.651  12.377   6.056 -0.1111 -0.1559 -0.1031
20754W        W36888  10.101  10.758   3.019  0.0060 -0.1355 -0.0620
20755W        W36889  14.618  17.170  15.024  0.0275 -0.1722  0.0046
20756W        W36890   1.336   8.248  10.687 -0.1668 -0.1021 -0.1842
20757W        W36891  14.260  14.645   1.611 -0.2527  0.3213 -0.4175
20758W        W36892   1.250  15.924   3.560  0.0536 -0.0343  0.0365
20759W        W36893   2.014   8.277  12.793 -0.1682  0.1839  0.2085
20760W        W36894  13.113  15.539   3.427 -0.0209 -0.1374  0.1173
20761W        W36895   0.151  15.453  15.492 -0.0883  0.0563 -0.4232
20762W        W36896  17.473   9.872  13.092 -0.4058  0.3477  0.2873
20763W        W36897  17.754  15.469   1.143  0.1945  0.1612 -0.0952
20764W        W36898   6.855   3.040   2.656  0.2289  0.2206  0.1404
20765W        W36899   9.174   7.296   3.327 -0.1673  0.4065  0.0329
20766W        W36900   9.546   6.777   4.630 -0.2529  0.1867 -0.2493
20767W        W36901  10.074  15.757   1.197 -0.0623  0.0799  0.0046
20768W        W36902  14.223   2.537   2.651 -0.0204 -0.2361 -0.1242
20769W        W36903  14.857  14.426  15.045  0.1941 -0.0302  0.1700
20770W        W36904  16.966  14.827  11.045  0.4047  0.1217 -0.1115
20771W        W36905  17.535   8.746   1.308 -0.1195 -0.0196 -0.2623
20772W        W36906   2.658  17.312   2.220 -0.2610  0.1932 -0.1698
20773W        W36907  18.058   9.005  14.118 -0.0748  0.1715 -0.1691
20774W        W36908   5.042   4.533   0.796 -0.5243 -0.1062  0.0185
20775W        W36909   0.157  12.360   0.023  0.0859 -0.0364 -0.1169
20776W        W36910   8.471  13.646   2.372 -0.2270 -0.0875 -0.0754
20777W        W36911  14.337  10.752   4.083 -0.2772 -0.0380 -0.0783
20778W        W36912   0.837  18.211   3.300 -0.0367 -0.2090  0.2675
20779W        W36913   4.902  11.559   0.562 -0.1359  0.1110 -0.3280
20780W        W36914   4.885   9.381  11.864 -0.0512  0.3555 -0.0751
20781W        W36915  15.649   7.437  13.709  0.0961 -0.0492 -0.3362
20782W        W36916  15.751   3.129  13.129 -0.1321 -0.1985 -0.0453
20783W        W36917   2.822   6.980   1.071 -0.0407 -0.1405 -0.0409
20784W        W36918   1.517  11.809  12.167 -0.0979  0.1541 -0.0962
20785W        W36919  13.159  12.287  14.525  0.2640  0.2217 -0.3096
20786W        W36920  11.259   6.790   2.322 -0.2895 -0.3380  0.3009
20787W        W36921  16.721   2.397   1.657 -0.1497 -0.0711  0.2233
20788W        W36922  15.933   4.053   4.991  0.0449 -0.0755  0.2836
20789W        W36923   7.923   5.060   1.812  0.1317 -0.2958 -0.0650
20790W        W36924   7.428   1.397   4.765  0.2536 -0.0436 -0.2942
20791W        W36925   2.024   9.003  10.546  0.0921  0.0096  0.1154
20792W        W36926  13.201  17.557   5.155 -0.1838 -0.1347 -0.0297
20793W        W36927   3.925  10.977  10.991 -0.0391 -0.0682 -0.0477
20794W        W36928  10.330  10.465  13.031  0.0468  0.0293 -0.2423
20795W        W36929   8.523  10.496  12.096 -0.0017  0.3321 -0.1578
20796W        W36930  15.638  10.289   2.235 -0.1500 -0.0358  0.1395
20797W        W36931   7.579   1.486  10.968 -0.0924  0.2090 -0.1500
20798W        W36932  16.226   4.085   2.703 -0.0573 -0.2283 -0.1303
20799W        W36933  15.066   1.695  10.800 -0.2701  0.2067  0.1720
20800W        W36934  12.447   5.392   4.078  0.1796  0.2094 -0.0473
20801W        W36935   6.758   1.657  12.410 -0.1997 -0.1053  0.0646
20802W        W36936   9.883  10.316  13.302 -0.1324  0.0444  0.1143
20803W        W36937  15.508  13.848   3.816 -0.1242  0.1968 -0.0136
20804W        W36938   2.516  10.656   3.754 -0.1416 -0.3077 -0.0151
20805W        W36939   6.424  13.279  12.946  0.2680  0.2401  0.4841
20806W        W36940  10.444   4.495   0.197  0.0981  0.4785 -0.1387
20807W        W36941   5.642  12.568   2.128 -0.0263 -0.2663 -0.2143
20808W        W36942  15.514  11.743  14.223  0.0429  0.1105 -0.0462
20809W        W36943  11.153   1.774   3.479 -0.0560  0.1128 -0.0366
20810W        W36944   5.631   5.148   2.610  0.0298  0.0292  0.2103
20811W        W36945   5.849  13.518  14.924 -0.2036  0.1430 -0.2763
20812W        W36946   2.749   2.005   1.748  0.1074 -0.2086 -0.0969
20813W        W36947   2.621   5.581   0.043 -0.1075  0.2335  0.1003
20814W        W36948  15.840   5.280   0.644 -0.0363  0.0066 -0.0242
20815W        W36949  11.601  10.400   0.901 -0.2489 -0.3522  0.3805
20816W        W36950   8.770  18.177  11.441  0.2677  0.0857 -0.0734
20817W        W36951   5.578  14.804   0.772  0.2575 -0.0438 -0.3020
20818W        W36952   0.139   2.283  13.589  0.0226 -0.3654 -0.4207
20819W        W36953  14.822  18.146  12.638 -0.0394  0.0894  0.1897
20820W        W36954   7.173  15.094  12.435  0.1799  0.4038  0.2135
20821W        W36955   1.368   1.237  15.909 -0.0867 -0.0609  0.2793
20822W        W36956  15.578   5.273   1.581 -0.0876 -0.1641 -0.0849
20823W        W36957   3.131  16.346   2.260  0.2114 -0.2469 -0.1374
20824W        W36958   7.648   9.854  14.308  0.1215 -0.2934 -0.3118
20825W        W36959   5.704  13.111   3.282 -0.0748 -0.1858 -0.0594
20826W        W36960  14.355  10.867  14.842 -0.1780  0.0059  0.3644
20827W        W36961   5.431   1.143   3.606  0.0812 -0.0124  0.1269
20828W        W36962   6.129  12.734   5.574 -0.4815  0.0299 -0.1274
20829W        W36963   3.262  17.866  10.276  0.2506  0.2143  0.0948
20830W        W36964  13.970  11.541  13.196 -0.0415  0.2557 -0.0445
20831W        W36965  13.645   4.236   1.320  0.3357  0.1431 -0.1412
20832W        W36966   7.204  10.536  12.161  0.0908  0.1144  0.1085
20833W        W36967   9.046  13.021  15.843 -0.0018 -0.0127 -0.0588
20834W        W36968   9.922  17.576   0.429  0.0665 -0.0591  0.0567
20835W        W36969  15.543   9.876   2.776 -0.2074 -0.0159 -0.1290
20836W        W36970  12.684   9.273  15.658 -0.0428  0.2991 -0.0575
20837W        W36971  17.075   9.042   5.785  0.1065  0.2954 -0.3444
20838W        W36972   3.975  11.924   2.095 -0.0063 -0.2089  0.0031
20839W        W36973  18.040   5.594   1.151  0.2375 -0.3826  0.1180
20840W        W36974  13.115  18.380  15.206  0.3434 -0.3129  0.3644
20841W        W36975   6.878   0.313   3.304  0.1316 -0.2869  0.0633
20842W        W36976  17.646  13.162  12.704 -0.2923 -0.3031 -0.1326
20843W        W36977   2.355  17.058  14.959  0.1086  0.1348 -0.0208
20844W        W36978   1.487   8.624  13.599  0.1438  0.0453 -0.3004
20845W        W36979  10.834  10.920   0.678  0.4086  0.2435 -0.1524
20846W        W36980   5.318  15.243   3.955 -0.2035  0.2248 -0.1131
20847W        W36981  10.884   0.491  14.727 -0.3101  0.0074  0.0076
20848W        W36982  12.211  10.799  11.179 -0.0116 -0.2523 -0.1324
20849W        W36983   5.707  17.323   4.282  0.0082  0.0606 -0.1706
20850W        W36984   4.891  13.538  13.986  0.0098  0.0195  0.2445
20851W        W36985  15.322   2.152   2.385  0.1519  0.0738  0.3712
20852W        W36986  11.792  16.486   4.057  0.0721 -0.2617 -0.0115
20853W        W36987   4.826  12.679   3.119 -0.1579  0.3577 -0.0745
20854W        W36988  17.541   5.137  15.688 -0.2465 -0.1022 -0.0345
20855W        W36989   2.677  15.815   4.721 -0.1250  0.0868  0.0211
20856W        W36990  16.154   9.691   3.378  0.4184 -0.1081  0.3474
20857W        W36991  15.990   4.695  14.656  0.0851  0.0984  0.1958
20858W        W36992  15.781   0.423  10.922 -0.0007  0.0889 -0.2143
20859W        W36993  14.911   6.019   0.415 -0.2451  0.2303  0.2428
20860W        W36994  14.237  17.536   3.142 -0.3163  0.2164  0.0610
20861W        W36995   8.206  10.860  12.458 -0.1534  0.0532  0.0218
20862W        W36996  16.991   3.785   3.011  0.0902  0.0822 -0.1235
20863W        W36997   3.390   8.984  15.203  0.1103  0.0951 -0.0714
20864W        W36998  13.071   4.709  12.839  0.1741 -0.0094  0.0690
20865W        W36999  15.135   1.603  15.242  0.0566 -0.0486  0.0890
20866W        W37000   0.540  11.572  14.705  0.1152 -0.0657 -0.0116
20867W        W37001  15.131  10.143   4.062  0.1968  0.0658  0.2698
20868W        W37002  11.866  17.713  14.983  0.0274 -0.0287 -0.0264
20869W        W37003  15.423  17.486   2.715  0.0258  0.2333 -0.2520
20870W        W37004   8.335  12.049   0.528  0.0136  0.0712 -0.0202
20871W        W37005   5.804   2.907  15.474 -0.1312 -0.0130 -0.2411
20872W        W37006  12.248  14.553  11.383  0.1077  0.0716  0.0955
20873W        W37007  10.255  17.613  15.450 -0.2274 -0.3765 -0.0600
20874W        W37008  13.815   1.676  14.863  0.0063 -0.1212  0.0389
20875W        W37009   7.359   2.224   3.618 -0.1240  0.0844 -0.2611
20876W        W37010   9.365   2.411   2.075 -0.0923  0.0834  0.4416
20877W        W37011   2.979  10.338  10.755  0.2831 -0.5331 -0.0339
20878W        W37012  14.385  14.771   3.505  0.1071  0.0825  0.2320
20879W        W37013   1.875   6.826   3.371 -0.1007 -0.3998  0.0115
20880W        W37014   6.676  17.355   3.490 -0.1541 -0.0215  0.0234
20881W        W37015   1.401  12.346   2.515  0.0462  0.1857  0.1890
20882W        W37016  17.380  15.495   0.753 -0.2052  0.0451 -0.3400
20883W        W37017   8.104   6.665   4.628 -0.1303 -0.2772  0.2017
20884W        W37018  14.902   4.037  15.170 -0.3648 -0.0818 -0.0822
20885W        W37019  12.469  14.463  14.689 -0.0959 -0.2054  0.2498
20886W        W37020   2.215  10.141  11.900  0.1388 -0.1658 -0.3036
20887W        W37021  15.396   8.537  12.462 -0.3303  0.0448 -0.4238
20888W        W37022   0.518  14.880   5.193  0.1509  0.0006 -0.1399
20889W        W37023  16.524   5.036  15.604 -0.0516 -0.1029  0.2241
20890W        W37024   5.827  14.463  13.217 -0.1019  0.2306  0.0672
20891W        W37025  10.859   6.889  12.024 -0.0762 -0.0037  0.4363
20892W        W37026   5.317   3.120  14.527 -0.3241  0.0006 -0.0232
20893W        W37027   0.899   7.659  10.681  0.0579  0.1056  0.2176
20894W        W37028   1.248   9.251  11.144 -0.2481  0.0564 -0.1704
20895W        W37029   5.697   8.212  12.225  0.3636  0.3407 -0.1501
20896W        W37030  11.581   9.054  15.339 -0.0262  0.0526  0.1745
20897W        W37031   2.085  10.975  14.029  0.0906 -0.2392  0.0470
20898W        W37032  13.353   2.923   0.323 -0.3460  0.3802  0.1587
20899W        W37033  11.281   3.190  14.661  0.3688 -0.1124  0.3622
20900W        W37034  14.938  11.653   0.472  0.2322  0.0734  0.0416
20901W        W37035  11.552  12.905   2.652 -0.0723 -0.1915  0.2486
20902W        W37036   6.618  10.218   2.878 -0.0060 -0.1270  0.1629
20903W        W37037   8.488   7.270  10.643 -0.1128 -0.1076  0.0068
20904W        W37038   9.180  14.892   0.585 -0.1205 -0.0481  0.0117
20905W        W37039   6.650  12.165   1.232 -0.1842  0.0258  0.1332
20906W        W37040   6.089   7.477   4.105 -0.1725  0.1561 -0.2431
20907W        W37041   0.016   6.953  12.437  0.1618  0.1915  0.2238
20908W        W37042   5.347   4.661  15.167  0.0525 -0.1432  0.1500
20909W        W37043  10.044   3.793  11.371 -0.0483  0.1671 -0.1498
20910W        W37044   1.667  17.898   2.809 -0.1234  0.2989 -0.4114
20911W        W37045  12.211  17.872   3.349 -0.1355 -0.2448 -0.3059
20912W        W37046  12.423  11.355   5.489  0.1440  0.1428  0.1248
20913W        W37047  18.265  15.485  10.797  0.1267  0.2140 -0.0050
20914W        W37048   5.994  15.868  13.378 -0.0034 -0.2131 -0.0627
20915W        W37049   4.195  13.571  12.789 -0.2670 -0.2072 -0.0794
20916W        W37050  10.950   8.167   1.867  0.0016 -0.0491 -0.0235
20917W        W37051   9.955   7.777  15.524 -0.4291  0.0517  0.0627
20918W        W37052  11.601   9.045   0.341  0.0458  0.0302 -0.1028
20919W        W37053  16.465   0.316   1.342  0.0080  0.0627  0.3155
20920W        W37054   8.175   0.493   3.892  0.0795 -0.2601  0.0364
20921W        W37055   3.296  15.910   2.537 -0.1306 -0.0789 -0.1028
20922W        W37056  12.670   2.842   3.244 -0.0674  0.0237 -0.1074
20923W        W37057   6.622   9.796  10.933 -0.3138  0.0515 -0.0490
20924W        W37058   6.315   2.526   1.186 -0.1517 -0.1733  0.0506
20925W        W37059   7.255  12.244  14.600 -0.1449  0.2092 -0.2046
20926W        W37060  16.039  14.934   4.493 -0.1410 -0.0158  0.0646
20927W        W37061   5.962   7.802  11.343  0.1276 -0.2728  0.2449
20928W        W37062   8.090   9.464   1.428  0.1646  0.1109  0.1303
20929W        W37063  18.221  18.284  13.143  0.2697 -0.0287  0.0930
20930W        W37064  17.890  14.831  11.063  0.2951  0.1181  0.1458
20931W        W37065   9.160  14.164  14.668 -0.0422 -0.3736 -0.0817
20932W        W37066   4.342   5.226  12.476  0.1708  0.0582  0.2087
20933W        W37067   5.137   2.428  14.901 -0.1498 -0.0058  0.0771
20934W        W37068   1.794   5.533  11.370 -0.0591 -0.2119 -0.1502
20935W        W37069   5.823   7.198  12.473  0.0371 -0.2130 -0.0407
20936W        W37070   5.268  10.376   2.298 -0.0391 -0.1285  0.1381
20937W        W37071   8.974   3.172   4.684  0.2559 -0.1157 -0.3173
20938W        W37072  12.755   9.315  12.405 -0.2116  0.0086  0.0070
20939W        W37073   6.233  17.826   0.097  0.0514 -0.2646 -0.2062
20940W        W37074   9.096   5.581  10.021  0.0210 -0.1163  0.2200
20941W        W37075   7.612  17.599  11.572  0.0169  0.0018 -0.3600
20942W        W37076  17.487  14.134   0.393  0.3094  0.1038  0.0436
20943W        W37077   0.154   8.955  11.363 -0.0438 -0.0490  0.1415
20944W        W37078   8.040   4.607   1.529 -0.0075  0.1199  0.1728
20945W        W37079  11.209  14.587   3.634  0.1292  0.3547  0.2299
20946W        W37080   0.226   7.319  12.103  0.1378  0.3225 -0.0528
20947W        W37081   1.581  13.820   3.581  0.0412 -0.2016  0.1992
20948W        W37082  15.831   4.160   4.093 -0.0776  0.1694 -0.0008
20949W        W37083   0.609   0.113   1.883 -0.2776  0.3578 -0.1599
20950W        W37084  12.412   8.156  10.716 -0.2010  0.2346  0.3163
20951W        W37085   0.398  14.101  13.644 -0.1316  0.1613 -0.3392
20952W        W37086  12.911   1.626  12.135  0.0786  0.0100  0.2771
20953W        W37087   5.929  13.114   2.404  0.3350 -0.1882 -0.0946
20954W        W37088  14.674  11.186  14.509  0.0577  0.1558 -0.0488
20955W        W37089   4.015   7.526  14.246 -0.0374 -0.2998  0.2467
20956W        W37090  12.646   0.651   1.766  0.0049  0.0751  0.0136
20957W        W37091  11.094  16.257  15.202 -0.1479  0.1943 -0.2125
20958W        W37092   5.361  15.540   5.518 -0.0605 -0.0826  0.2431
20959W        W37093  11.735   9.498  13.742 -0.0294  0.0530 -0.4419
20960W        W37094   2.006  17.700   2.420 -0.2185 -0.1213 -0.1878
20961W        W37095  12.747   7.342  12.446  0.4375 -0.2240  0.0344
20962W        W37096   9.646   7.924   5.293  0.0515  0.1489 -0.0051
20963W        W37097   6.976  14.915   4.947  0.0217 -0.3386 -0.0518
20964W        W37098   5.109  10.250   3.926  0.0774 -0.1573 -0.5019
20965W        W37099  15.791   0.153   0.805  0.1089  0.2439  0.0502
20966W        W37100   5.385   4.168   5.083  0.1460  0.0128 -0.0649
20967W        W37101  12.588   4.345   2.202 -0.0791 -0.2666 -0.1579
20968W        W37102  10.814  10.215   3.542 -0.2553 -0.1503  0.1065
20969W        W37103  10.985  11.923  14.997 -0.0533 -0.1094 -0.1912
20970W        W37104   1.897  11.610  11.059  0.0459  0.2245 -0.0208
20971W        W37105  11.244   5.511   4.946 -0.1404  0.0229 -0.2436
20972W        W37106   6.360  14.424  13.504 -0.1820  0.2266  0.3006
20973W        W37107  13.031  10.856   0.715  0.0021  0.0633  0.0908
20974W        W37108   5.926  15.479  10.562  0.2417 -0.0270  0.4545
20975W        W37109   0.345   0.377   2.746 -0.0927  0.2262  0.2481
20976W        W37110  11.480  17.100  12.037 -0.0819  0.0078 -0.0798
20977W        W37111   7.416   5.183  15.700  0.1576 -0.1746 -0.0361
20978W        W37112   6.140  14.808   2.737  0.0878  0.1520  0.0925
20979W        W37113   0.223  16.260   0.219  0.0685 -0.3391 -0.0214
20980W        W37114  10.669  10.104  13.222 -0.1675 -0.0348 -0.1354
20981W        W37115   2.501   3.226   5.451 -0.0049 -0.2521  0.0105
20982W        W37116  16.219  10.273  13.709  0.1098  0.0951  0.2674
20983W        W37117  11.242   3.978   4.283  0.0561 -0.1644  0.0676
20984W        W37118  14.617   4.801  12.736 -0.0042 -0.1018  0.0068
20985W        W37119   3.542   7.862  11.599  0.2546 -0.0041 -0.0686
20986W        W37120  16.035   7.644   3.869  0.0735 -0.2253 -0.5196
20987W        W37121  17.257   2.093   4.246  0.0696  0.0059  0.3180
20988W        W37122  12.220   5.568  15.552  0.0034  0.1156  0.1368
20989W        W37123   6.130  13.261   5.249  0.4098  0.0774 -0.3013
20990W        W37124  12.336   1.715  11.966  0.1520 -0.0658 -0.1246
20991W        W37125   3.547   3.536  11.494  0.0929 -0.1588  0.1702
20992W        W37126   9.918   1.138   2.505  0.1330  0.2112  0.0679
20993W        W37127   2.500  15.848   0.247 -0.2384 -0.1421 -0.1277
20994W        W37128  15.393   5.727  14.928 -0.1357  0.1424 -0.1213
20995W        W37129  10.710  15.027   1.946 -0.0397 -0.1182 -0.1416
20996W        W37130   7.063   5.468   0.659  0.0708  0.0775 -0.2898
20997W        W37131  15.404  16.780   6.036 -0.0063  0.1375 -0.1058
20998W        W37132   6.618  13.860   1.133  0.1709 -0.0420 -0.1570
20999W        W37133   0.496  15.602  12.024  0.1407  0.1318 -0.0601
21000W        W37134  17.043   9.074   2.348  0.1446  0.1058  0.2000
21001W        W37135   0.767   1.955  15.273  0.0073 -0.1427  0.1235
21002W        W37136  13.469   4.558  12.596 -0.2234  0.1810  0.2185
21003W        W37137  11.527  16.908  14.357 -0.0497  0.0934 -0.3379
21004W        W37138   5.605  16.245   5.995  0.0880 -0.1545  0.0163
21005W        W37139   2.665  15.294   4.751  0.1361  0.2229 -0.2180
21006W        W37140  18.424   8.801  12.167  0.1130 -0.0150 -0.2012
21007W        W37141   6.718  17.895  13.441 -0.1575  0.3195  0.0814
21008W        W37142  10.735   4.091  13.974 -0.0719  0.3100  0.0216
21009W        W37143   5.273  15.143  14.122  0.0352  0.1526  0.0292
21010W        W37144   1.671  13.824   2.332 -0.2322  0.0091  0.0343
21011W        W37145  17.277  17.402  15.235  0.3282  0.3830 -0.0575
21012W        W37146   0.152  15.559   0.419  0.2236  0.1694  0.0410
21013W        W37147   9.778  11.285  14.324  0.2891  0.1456 -0.1453
21014W        W37148   5.635   9.180   2.322 -0.1597  0.1145 -0.1246
21015W        W37149  17.231   7.063  12.934  0.0249 -0.0307 -0.0499
21016W        W37150   8.036   1.425   5.325  0.0064  0.0468  0.0471
21017W        W37151  18.180  14.413  11.990  0.1290  0.0420  0.2242
21018W        W37152   6.359   7.703  13.941 -0.4368 -0.2762  0.0328
21019W        W37153   2.210  17.847   5.447  0.3193 -0.1710 -0.0320
21020W        W37154  11.510  18.457   1.453 -0.0065  0.3744  0.0476
21021W        W37155  12.762  17.777   1.820 -0.0757  0.1171 -0.0783
21022W        W37156   4.277   1.759   1.053 -0.1118  0.0512 -0.1566
21023W        W37157   2.302   3.399   4.691 -0.3590  0.0605 -0.2002
21024W        W37158   8.832   9.682  12.101  0.2231 -0.1236 -0.4724
21025W        W37159   9.230   6.107   0.437 -0.2608  0.1070 -0.1607
21026W        W37160  13.410  18.138  11.288 -0.0679  0.0185  0.1189
21027W        W37161  14.860  18.397  15.893 -0.0295  0.0809  0.1597
21028W        W37162   0.276   8.556  13.955 -0.0638  0.3461 -0.0171
21029W        W37163   7.690   2.630  11.443 -0.0412  0.0054 -0.1180
21030W        W37164   6.759  12.565  10.005  0.2497 -0.0009  0.0031
21031W        W37165  12.371   0.880  14.914 -0.0015  0.0020 -0.1642
21032W        W37166  12.470   2.776   3.994 -0.1260 -0.0292 -0.1860
21033W        W37167   1.745   0.230   0.317  0.0815  0.1545 -0.2114
21034W        W37168  11.241  16.924  11.278 -0.0870 -0.1247  0.0025
21035W        W37169   2.127   5.484   3.564 -0.0692  0.3564 -0.0663
21036W        W37170  13.527  17.384  11.974  0.1466 -0.1452 -0.2752
21037W        W37171   2.367   5.388   5.094 -0.0040  0.2431 -0.0077
21038W        W37172   1.053   2.612  12.697 -0.2484 -0.1482 -0.0358
21039W        W37173   2.723   5.988  10.651  0.1141  0.0909  0.2024
21040W        W37174  10.120   3.896  15.332  0.0103 -0.1577  0.0078
21041W        W37175   4.281  11.014  11.999 -0.0082  0.2643  0.2486
21042W        W37176  10.331   8.819   4.674  0.0495  0.1687  0.3112
21043W        W37177  14.497   9.164  13.870 -0.2271 -0.0550 -0.2078
21044W        W37178   4.129  16.636   0.955  0.0465  0.1182  0.1864
21045W        W37179   7.603   0.428   0.760 -0.0119  0.1927  0.1132
21046W        W37180  15.204   6.617  13.782 -0.4100  0.2444 -0.1310
21047W        W37181   7.769  12.888   6.044 -0.0208  0.1490 -0.0435
21048W        W37182  13.846  10.411   3.772  0.0189 -0.3066  0.2836
21049W        W37183  18.328   3.517   2.805  0.2258 -0.0945 -0.0082
21050W        W37184  14.472   7.352  11.090 -0.0496 -0.1662  0.0152
21051W        W37185   3.374  14.086  15.183 -0.1160  0.1985  0.1491
21052W        W37186   1.609  13.401  15.054 -0.0492  0.2450 -0.2970
21053W        W37187  13.666  16.793   2.527 -0.1316 -0.4623  0.5246
21054W        W37188   6.822  13.781   0.578 -0.1321 -0.1148  0.0103
21055W        W37189  15.535   7.681   3.984 -0.0566 -0.3577  0.2547
21056W        W37190   5.040  17.421  11.620 -0.3442  0.1428 -0.0032
21057W        W37191   9.421  13.504   3.187  0.0577  0.1870  0.0834
21058W        W37192   8.330   2.330   0.969 -0.0644 -0.0496  0.0421
21059W        W37193   6.673  12.732   2.034 -0.1816  0.2527  0.0512
21060W        W37194   3.317  15.445  15.086 -0.0407  0.0323 -0.3382
21061W        W37195   3.806  15.820   1.182 -0.0320 -0.0692  0.0434
21062W        W37196  17.093   3.656   4.871 -0.5401 -0.0973  0.0284
21063W        W37197  17.385   8.027  13.859 -0.0725 -0.0531  0.0056
21064W        W37198  18.296   7.793  14.515 -0.0412 -0.1465  0.0374
21065W        W37199  17.400  16.972  11.462  0.0300 -0.2012 -0.2648
21066W        W37200  10.482  16.487   2.934  0.2609  0.4927 -0.0176
21067W        W37201  11.483   1.641   0.499 -0.0501  0.0022  0.3473
21068W        W37202   5.091  12.043   0.658  0.3710  0.2989 -0.2588
21069W        W37203  16.981  10.252   1.287 -0.2540  0.4744  0.1660
21070W        W37204  11.871  12.081   2.731  0.2513  0.2517 -0.3424
21071W        W37205  11.905   5.855   4.388  0.2316  0.1876 -0.0233
21072W        W37206   6.331   9.370   0.890 -0.1632 -0.2076 -0.2530
21073W        W37207  13.384  15.563  12.485  0.1844  0.2594 -0.1430
21074W        W37208  16.496   5.006  15.097  0.2680 -0.0175  0.0095
21075W        W37209  12.073  13.730   0.598  0.1672  0.1464  0.2958
21076W        W37210   1.310   1.921  11.222  0.1779  0.0723 -0.0651
21077W        W37211   1.357   7.877   0.231 -0.0353 -0.2002  0.0311
21078W        W37212   3.418  15.843  11.366  0.1997 -0.1721 -0.0155
21079W        W37213  13.335   1.846   4.690 -0.2963 -0.1854  0.0767
21080W        W37214   9.241  13.107   2.750 -0.1608 -0.1134 -0.1504
21081W        W37215   6.562   7.292   2.369  0.1161 -0.1059  0.1113
21082W        W37216   6.827   3.895   4.688  0.2159 -0.1575  0.0100
21083W        W37217  14.891   8.755   4.023 -0.2270 -0.1400  0.0144
21084W        W37218  12.454   1.470  10.728  0.3571 -0.0720  0.2715
21085W        W37219   4.350  16.784  13.238  0.4400  0.1730  0.0153
21086W        W37220  12.246   3.499   4.539 -0.2134  0.2561 -0.1376
21087W        W37221   6.866  14.127  15.786 -0.0507  0.0432 -0.0284
21088W        W37222   1.985  12.458   3.232 -0.2680 -0.1070  0.0561
21089W        W37223   8.523   1.328  13.536  0.1744 -0.0893  0.0847
21090W        W37224  10.040  16.462   2.376 -0.3407  0.1924 -0.1675
21091W        W37225  11.965   5.898   0.610 -0.4125 -0.0285 -0.4200
21092W        W37226  10.329  11.131   0.863 -0.0674  0.2865  0.0425
21093W        W37227   0.863   2.254  12.009 -0.2681 -0.2810  0.2128
21094W        W37228   9.064   1.561   2.405 -0.1341 -0.2176  0.1033
21095W        W37229   9.810   8.068   5.746  0.1791  0.1241 -0.0498
21096W        W37230   8.865  14.952  11.932  0.0839 -0.1917  0.2891
21097W        W37231   8.911   1.663   3.850  0.1010 -0.0371  0.0799
21098W        W37232  16.210  13.597   0.465  0.0478  0.0143 -0.1685
21099W        W37233  15.279  12.000   4.790  0.1042 -0.0167 -0.4186
21100W        W37234  17.380  10.155  13.494 -0.0864  0.0061  0.1229
21101W        W37235   6.419  11.240  10.596 -0.2783  0.0736 -0.0992
21102W        W37236  16.360  14.860   0.054  0.0661 -0.3383 -0.0286
21103W        W37237   1.526  17.409  11.987  0.3898  0.1913 -0.1165
21104W        W37238   4.312  17.761  12.169 -0.2605 -0.2074  0.0385
21105W        W37239  13.084  16.881   1.624 -0.0156  0.0505  0.2373
21106W        W37240   2.348  18.314   4.307 -0.0571  0.1415  0.2752
21107W        W37241  18.196  11.300  13.455  0.0975  0.0893 -0.0832
21108W        W37242   4.374   9.989   4.726 -0.3542  0.2749  0.2475
21109W        W37243   3.212   2.317  11.372 -0.3687  0.0266  0.1095
21110W        W37244   5.156   8.334   2.415 -0.2806 -0.2312  0.0257
21111W        W37245   0.726  17.640   5.157 -0.0724 -0.2411 -0.1260
21112W        W37246   9.974   8.204  13.041 -0.1412 -0.2578  0.3094
21113W        W37247   2.475   2.732   5.121 -0.0797 -0.0321 -0.0834
21114W        W37248  14.900  13.322  13.905  0.1601  0.1452 -0.0832
21115W        W37249  16.930  14.189   0.364 -0.0295 -0.3101  0.0967
21116W        W37250   6.718   5.138   2.674  0.0483  0.1277  0.1140
21117W        W37251  14.391  11.994  11.435 -0.1276  0.2117 -0.2629
21118W        W37252   4.948  16.531  11.852 -0.0303 -0.0848  0.0817
21119W        W37253   1.838  16.593   2.182  0.0378 -0.2719  0.0440
21120W        W37254  12.066   1.368   0.384  0.0233 -0.2310  0.0577
21121W        W37255  12.184   2.582   6.184 -0.0025 -0.2567  0.0982
21122W        W37256   6.314  16.231   3.521  0.3439 -0.0565 -0.1084
21123W        W37257  12.697  16.360   3.850  0.0868 -0.2109  0.0749
21124W        W37258   6.440  17.817   0.592 -0.1540  0.1326 -0.1464
21125W        W37259  13.440  17.609  14.189  0.0425 -0.1434 -0.1146
21126W        W37260  12.298  12.921   0.866  0.0008  0.0863  0.1527
21127W        W37261  18.429  15.110   4.594  0.2287  0.0055  0.0725
21128W        W37262  14.447   2.489  13.030 -0.0384 -0.0633 -0.1451
21129W        W37263   1.106   0.316  15.520 -0.0603 -0.0678  0.3146
21130W        W37264  13.364  10.163   2.137  0.0672  0.1257  0.4751
21131W        W37265   7.950   7.163   4.603  0.2899  0.0632  0.2491
21132W        W37266  15.280  18.251  14.751  0.1392 -0.1400  0.1984
21133W        W37267   8.153   2.287  10.003  0.1182  0.4091  0.2493
21134W        W37268  12.697  17.890   3.030  0.2670  0.2083  0.0310
21135W        W37269   3.640   2.497  10.525 -0.0907 -0.0611  0.0690
21136W        W37270   9.886   6.963  11.478  0.0370  0.1827  0.4463
21137W        W37271   3.537   0.112   1.119 -0.0965 -0.2561 -0.0667
21138W        W37272  10.105  16.105  14.467  0.2494  0.0584  0.0651
21139W        W37273   6.242  10.866  14.080 -0.1349 -0.1730  0.0632
21140W        W37274   3.303   0.440  13.802  0.1359  0.1179  0.0181
21141W        W37275  10.645   9.835  11.712 -0.0969 -0.4112 -0.0321
21142W        W37276  17.001  14.507  11.428 -0.0391  0.1869  0.0380
21143W        W37277   2.457   5.245   1.643  0.0079 -0.1264  0.3020
21144W        W37278  16.732  15.792  14.425  0.2103  0.1066 -0.0795
21145W        W37279  13.044  11.959   5.328  0.2857  0.1608 -0.2103
21146W        W37280  17.423   5.237   0.460  0.0042  0.1329  0.1271
21147W        W37281  13.914  18.214   1.549  0.0586 -0.0528  0.0621
21148W        W37282   0.021  17.947  15.867 -0.2346 -0.4183 -0.0113
21149W        W37283  14.868  11.969   0.088 -0.0332 -0.0913 -0.2465
21150W        W37284   6.424   3.441   5.045  0.2208  0.0626 -0.2924
21151W        W37285  14.258  10.776  15.331 -0.1177  0.0678  0.2620
21152W        W37286   7.446   0.505  11.242 -0.1265  0.0566 -0.3527
21153W        W37287   7.788  12.725   4.199 -0.1680 -0.1429  0.2187
21154W        W37288  12.450   7.847   4.338 -0.1659 -0.0281 -0.0099
21155W        W37289   7.737   7.026  11.343 -0.1979  0.2539  0.0085
21156W        W37290   2.338  13.598  15.103 -0.0344 -0.2278 -0.0909
21157W        W37291  12.826  14.512   5.309  0.2289  0.0054  0.1683
21158W        W37292  15.406  11.227  15.521  0.2094  0.2261  0.1719
21159W        W37293   0.125   9.475  10.424  0.1344 -0.1218  0.2027
21160W        W37294   4.177  13.771  15.432 -0.3943 -0.0486 -0.0759
21161W        W37295   1.968   7.392  13.163 -0.1040 -0.0071 -0.0804
21162W        W37296  11.546   1.365   3.322  0.0013 -0.2692  0.0714
21163W        W37297   3.802   3.308  10.658  0.1459 -0.1944  0.2689
21164W        W37298  15.222   5.790   5.525  0.0725  0.2178 -0.1017
21165W        W37299  15.316  17.191   3.667 -0.2279  0.0719  0.1273
21166W        W37300   9.953   0.177   2.846  0.2625  0.1189  0.0314
21167W        W37301  14.485   2.276  10.649 -0.0132  0.2977 -0.0724
21168W        W37302  15.217   1.688   3.273  0.3195 -0.3702  0.0562
21169W        W37303  14.183   5.990  15.443  0.2739 -0.3765 -0.2581
21170W        W37304  18.080   4.383   4.642 -0.3428  0.3265  0.0718
21171W        W37305   3.804  16.958   0.048 -0.2381  0.0648  0.3409
21172W        W37306   0.668  16.312   4.748 -0.4299 -0.2010  0.1297
21173W        W37307   4.874  14.251   2.261  0.2058  0.0547 -0.1917
21174W        W37308   2.637   7.325  12.383  0.1614 -0.0484  0.0315
21175W        W37309  16.816  14.830  13.251  0.2368  0.0483 -0.2910
21176W        W37310   9.914  16.677   3.696  0.0704  0.1986  0.0973
21177W        W37311   8.427   9.672  10.792  0.2310  0.0399 -0.2400
21178W        W37312   0.256  11.711   0.723 -0.1061 -0.0121 -0.3355
21179W        W37313  10.988  13.597  15.604  0.2824 -0.2009 -0.2242
21180W        W37314  11.936  11.451  11.647  0.0851  0.1480 -0.3615
21181W        W37315   3.038  12.261   1.755 -0.0783  0.3615  0.0925
21182W        W37316  17.475   5.337  12.610 -0.3678 -0.2188  0.0139
21183W        W37317   0.555   1.819  12.104 -0.3872 -0.0044  0.1710
21184W        W37318   2.468  14.585   1.262  0.2001  0.1098  0.1786
21185W        W37319   2.357  15.642   3.955  0.0070  0.3108  0.0946
21186W        W37320   7.567   5.909  12.069 -0.0824  0.0898  0.0065
21187W        W37321   7.499  12.295   4.530  0.1559  0.0307 -0.1636
21188W        W37322   1.644   3.776   4.537  0.0250  0.1204 -0.0288
21189W        W37323   1.156   3.423  10.715 -0.4074 -0.1763 -0.0852
21190W        W37324   3.023  17.706  12.104 -0.0965 -0.1564  0.1389
21191W        W37325  17.777   0.506   3.568  0.0262  0.0175  0.3411
21192W        W37326   0.589   2.812  11.026 -0.0983  0.0241 -0.0937
21193W        W37327   1.331   1.987  14.333 -0.2407  0.1713  0.0558
21194W        W37328   4.564  13.065   5.008 -0.0352 -0.2357  0.0116
21195W        W37329  18.036  12.853  12.804 -0.3300 -0.1091 -0.0397
21196W        W37330   8.904  18.083   0.571  0.1661  0.3645 -0.0523
21197W        W37331   5.253   6.270  14.557 -0.1879  0.3300 -0.1155
21198W        W37332  16.578   3.927  11.023  0.0829  0.0532 -0.3112
21199W        W37333   9.213   3.878  15.700  0.0091 -0.2304  0.1109
21200W        W37334  12.459  13.533   6.000 -0.2882 -0.1057 -0.1508
21201W        W37335  17.250  12.279   0.039  0.3860 -0.1076 -0.1285
21202W        W37336  14.630  14.261  11.226 -0.1129  0.2248  0.0403
21203W        W37337  14.477  15.914   2.904  0.1974  0.1666 -0.0266
21204W        W37338   7.523   8.997   3.217 -0.1714 -0.1589  0.2051
21205W        W37339  12.566  17.174   4.679  0.0498  0.1725 -0.0512
21206W        W37340   3.591  14.076  15.705 -0.0209  0.0954 -0.1524
21207W        W37341  16.050  16.695  14.431 -0.2406 -0.2471 -0.0090
21208W        W37342   5.555   0.309   3.428 -0.1388 -0.2013 -0.0121
21209W        W37343  17.872   5.855  13.430  0.0398  0.3830  0.1768
21210W        W37344  11.844  11.899  15.321 -0.1054 -0.0341  0.0408
21211W        W37345   2.756  13.657  11.029 -0.1089 -0.2242  0.1128
21212W        W37346   2.815  17.015  12.092  0.0006 -0.1240  0.0731
21213W        W37347  16.432  11.132  12.643  0.0862  0.3019 -0.0339
21214W        W37348   7.490   5.603   3.551 -0.0044 -0.2316  0.1413
21215W        W37349   0.423  16.399  13.177  0.0689  0.1597  0.1439
21216W        W37350  18.246   7.881   0.471 -0.0998 -0.3141  0.2832
21217W        W37351   0.785  14.817  11.997 -0.2210  0.0699  0.0575
21218W        W37352  10.780  10.479   1.533 -0.1630 -0.1071  0.4231
21219W        W37353   4.523   6.601   0.864  0.3344  0.3540 -0.1541
21220W        W37354  16.224   5.733  10.272  0.2069 -0.1604  0.0809
21221W        W37355  14.641  14.550   0.470 -0.1337 -0.1067  0.0429
21222W        W37356  14.723   8.890   1.306  0.2346 -0.1177 -0.1686
21223W        W37357   0.998  14.577  14.665  0.2257  0.0434  0.1644
21224W        W37358   5.950   2.549  12.836  0.1517  0.2136 -0.0543
21225W        W37359  16.888   9.955  11.503 -0.3352  0.0325 -0.3483
21226W        W37360  17.179  11.066   4.036 -0.2572 -0.1309  0.0853
21227W        W37361   4.953   0.277   1.233 -0.3022  0.3626  0.2266
21228W        W37362  14.528  15.880   2.110 -0.1682  0.0161  0.0381
21229W        W37363   8.262   7.528  12.071 -0.1284  0.2351 -0.1121
21230W        W37364   6.957   7.471   4.884 -0.0968  0.2847  0.2342
21231W        W37365   8.670   8.892   1.807  0.1529 -0.2067  0.0291
21232W        W37366  11.966   7.400   0.056 -0.2744 -0.0256 -0.0077
21233W        W37367   8.822  14.541   2.188 -0.1109  0.1560  0.1517
21234W        W37368   7.093   7.246   1.694  0.3202  0.3653 -0.0536
21235W        W37369  12.984  10.477  15.717 -0.0384  0.1511 -0.2218
21236W        W37370   5.884  13.316   1.908 -0.0727  0.0192  0.0385
21237W        W37371   9.529   8.032   1.960 -0.1385  0.0599  0.2599
21238W        W37372  10.221  13.255  12.870 -0.0333 -0.1205 -0.3483
21239W        W37373   5.560   3.603  11.306 -0.0591 -0.0157 -0.0953
21240W        W37374  13.714   9.368  14.424 -0.1385 -0.0422  0.1032
21241W        W37375   2.474   1.102   1.211  0.2181  0.1368 -0.3266
21242W        W37376   9.819  10.501   4.122 -0.2757 -0.1455 -0.2471
21243W        W37377   1.534   9.963   0.177 -0.1531 -0.1080  0.3033
21244W        W37378  10.463  11.498  15.184  0.0871 -0.0095 -0.0756
21245W        W37379   2.090   1.345  11.565  0.4706  0.3039 -0.2739
21246W        W37380  16.446  12.200   4.624 -0.1940  0.1387  0.3113
21247W        W37381   8.532   8.285  15.309 -0.1400 -0.0232  0.5136
21248W        W37382  15.614   4.326  15.539 -0.0130 -0.2018  0.0709
21249W        W37383  16.938   4.565  13.630 -0.2594  0.0499 -0.0136
21250W        W37384  11.219  12.125   0.451  0.0409  0.1791 -0.0992
21251W        W37385  12.701  10.666   2.551 -0.0214 -0.2164 -0.0021
21252W        W37386  16.450   0.382  14.790 -0.0657 -0.0155 -0.1861
21253W        W37387  18.462  13.066  11.054  0.1307 -0.1351  0.0533
21254W        W37388  17.063  13.227  11.000  0.0277 -0.4550 -0.0408
21255W        W37389   3.454  15.972  10.908  0.2214 -0.3415 -0.0616
21256W        W37390   7.961  17.404  12.530  0.0191  0.1490 -0.0099
21257W        W37391  12.413   5.602   5.050  0.0149 -0.0849 -0.0801
21258W        W37392  16.038  13.605  11.847  0.0941 -0.2203  0.0694
21259W        W37393  16.210  16.461   0.871  0.1867  0.5082  0.0455
21260W        W37394  11.566  16.489   5.315  0.0615  0.1799 -0.4068
21261W        W37395   8.648  17.357  14.586 -0.3057 -0.0577 -0.1460
21262W        W37396   0.402   4.192  11.768 -0.1702 -0.1019 -0.0807
21263W        W37397   9.957  16.882   5.311  0.0615 -0.0478  0.1145
21264W        W37398   1.394   2.280   0.730  0.2111  0.1809 -0.2057
21265W        W37399   7.709   8.162   4.833 -0.4297 -0.2012 -0.2164
21266W        W37400  17.171   9.606   4.022 -0.1562 -0.0100  0.2220
21267W        W37401   6.575  17.675   4.354 -0.0820 -0.0559  0.1944
21268W        W37402   4.777  16.370  12.323 -0.1613  0.1662 -0.4368
21269W        W37403   3.732  15.899  14.531 -0.0905  0.2355  0.6218
21270W        W37404  10.975   0.068   1.527  0.2321  0.3031  0.0777
21271W        W37405   8.453   4.590  12.757 -0.3300  0.1714  0.1507
21272W        W37406   8.988  10.947  12.471 -0.0147 -0.0681  0.0382
21273W        W37407   2.815   6.957  14.039 -0.0292  0.3034  0.0628
21274W        W37408   1.803   0.291  11.399  0.0841 -0.0565 -0.1386
21275W        W37409   0.196   8.432   1.647  0.2131 -0.1677  0.1895
21276W        W37410  13.059   4.869  11.454 -0.2280  0.2080  0.2072
21277W        W37411   0.584   0.283   1.092  0.0507  0.4287 -0.0846
21278W        W37412   6.164  12.314   5.144 -0.0267 -0.0059  0.1980
21279W        W37413  17.348  12.989   4.595 -0.2170  0.3361 -0.1638
21280W        W37414  10.992   4.823  11.491 -0.0725 -0.1135 -0.1231
21281W        W37415  14.864  15.895   4.710 -0.0677  0.0976 -0.0577
21282W        W37416   4.322   7.296  15.282  0.1928 -0.0854 -0.2367
21283W        W37417   0.204   3.118  13.056  0.3006 -0.1434  0.1135
21284W        W37418  15.729  11.454   0.948 -0.1724  0.1686 -0.1157
21285W        W37419   2.649   2.247   2.663 -0.0273  0.0980 -0.0794
21286W        W37420   4.064  15.565  14.501  0.0209 -0.0410  0.2317
21287W        W37421  10.982  11.888  13.934  0.0357 -0.1005  0.0480
21288W        W37422   8.051  17.441   1.514 -0.0571  0.0470  0.0667
21289W        W37423   9.600  17.071   3.475 -0.3712  0.1767 -0.0743
21290W        W37424   0.603   4.559   4.711 -0.0513 -0.0776  0.2313
21291W        W37425   4.858  13.636   4.810 -0.3486 -0.3667  0.6192
21292W        W37426   5.140   8.753   1.145  0.0394 -0.1577 -0.1479
21293W        W37427  10.634  15.939  10.519 -0.0059  0.2126  0.1902
21294W        W37428   6.129  14.247   3.952  0.3876  0.2546  0.0766
21295W        W37429   7.748   7.346  15.388  0.0387 -0.1256  0.0502
21296W        W37430   5.156  18.321   5.581  0.1897  0.2170 -0.3062
21297W        W37431   6.639   1.274  14.855  0.2209 -0.0347 -0.0524
21298W        W37432  17.428  10.295  13.998 -0.0216  0.0229  0.0997
21299W        W37433   3.690  13.577  15.490  0.0879 -0.1656  0.1815
21300W        W37434  11.487   7.480   3.666 -0.1902  0.0439  0.0688
21301W        W37435   1.259  16.020   0.008 -0.1071 -0.1265  0.1252
21302W        W37436  16.818  16.400  13.217  0.2925  0.2581  0.3217
21303W        W37437  10.040   3.764  13.166  0.0494  0.0315  0.0429
21304W        W37438  16.677  11.024   0.691  0.1440 -0.0282  0.0886
21305W        W37439  17.571   6.495   2.394  0.2250 -0.0567 -0.2036
21306W        W37440   7.219   4.810  14.925  0.1472 -0.0132 -0.0452
21307W        W37441   8.339  15.434   4.366 -0.0731 -0.0328 -0.3472
21308W        W37442   4.694   7.027  12.056 -0.1453 -0.4066  0.0680
21309W        W37443  14.904  12.989   9.723  0.1027 -0.1782  0.0655
21310W        W37444   6.571  10.003   1.013 -0.1514  0.4260 -0.0143
21311W        W37445  16.795  12.941  14.947  0.2339  0.0888  0.1101
21312W        W37446   0.341  18.440  11.257 -0.2932 -0.0792  0.2713
21313W        W37447  11.463   7.730  12.515  0.2963  0.0603 -0.0498
21314W        W37448   0.303  12.627   0.948  0.0853  0.1376 -0.1514
21315W        W37449   5.620  16.842  13.489  0.0373  0.0981  0.2478
21316W        W37450   4.978   5.303   3.925 -0.0745 -0.1923  0.2891
21317W        W37451   0.459  10.416  15.388 -0.0718 -0.0850 -0.0510
21318W        W37452   1.837   6.491  14.173  0.1341  0.1473 -0.2904
21319W        W37453   7.964  11.063   0.694  0.2749  0.1107 -0.2092
21320W        W37454  10.589  12.405   3.884  0.1907  0.2641  0.1487
21321W        W37455  18.323  10.942  14.664 -0.2720 -0.1541 -0.1460
21322W        W37456   7.814   5.816  11.618 -0.1572 -0.1728  0.2299
21323W        W37457  18.152   0.661  15.100 -0.0464  0.0601  0.3687
21324W        W37458  14.775  13.021   2.339  0.0797 -0.0779  0.2525
21325W        W37459   6.656   6.375   5.714  0.0189  0.0141  0.1682
21326W        W37460   1.359  14.218  14.010  0.0338  0.1322  0.2935
21327W        W37461   9.506  13.232  11.922 -0.2568  0.0740 -0.0342
21328W        W37462  10.365   6.885   2.294 -0.0905  0.1777 -0.0760
21329W        W37463  13.175   1.569   1.786  0.1848 -0.2128  0.0834
21330W        W37464  16.204  18.267   2.794 -0.1754  0.0119  0.2610
21331W        W37465  11.749   6.305  12.041 -0.1488  0.0970 -0.1260
21332W        W37466   6.632   6.186   2.606  0.1607 -0.2206  0.3357
21333W        W37467   5.551   9.782  13.568  0.0508  0.0345 -0.0667
21334W        W37468  12.387  15.307  10.762  0.2578 -0.0076  0.1566
21335W        W37469   6.613   4.610  12.447  0.1586 -0.1408  0.4596
21336W        W37470   1.202   6.189  15.196 -0.0926  0.0642 -0.0285
21337W        W37471  12.091  17.190   1.730  0.3187 -0.0074 -0.0712
21338W        W37472  11.576   2.654   0.277  0.1185  0.1696  0.1725
21339W        W37473   5.421   5.390  14.722 -0.0951  0.2239 -0.0195
21340W        W37474   4.423  10.103  11.293  0.1074  0.1992  0.1488
21341W        W37475   2.953   1.643   3.406  0.0368  0.0155  0.1269
21342W        W37476   4.400   9.285   4.004  0.0869  0.1411 -0.0767
21343W        W37477  12.305  10.484   1.762  0.0167  0.1216  0.0893
21344W        W37478   8.913   5.343   0.344  0.0757  0.0086 -0.1663
21345W        W37479   7.356   7.988   2.233  0.2757  0.0856  0.1221
21346W        W37480   0.772  16.602   1.850  0.0358 -0.0101 -0.2400
21347W        W37481  12.686   4.808  15.880 -0.1069 -0.0476  0.1896
21348W        W37482  16.122   2.396  13.497 -0.0360  0.2393 -0.2334
21349W        W37483  10.829   5.707   5.154  0.0663 -0.0401 -0.1783
21350W        W37484   3.282  12.011  12.440 -0.1168  0.1298  0.0135
21351W        W37485  10.727   2.534  11.892 -0.0198 -0.1266 -0.0338
21352W        W37486  13.903  12.805  13.021  0.2356 -0.2478  0.1436
21353W        W37487  12.161  14.799  14.043  0.2756  0.2843  0.0605
21354W        W37488  13.699   9.974   4.820 -0.0291  0.3216 -0.0592
21355W        W37489  11.706  18.058  14.658 -0.1202 -0.3170 -0.0514
21356W        W37490  11.108   5.072   1.617  0.1138 -0.0944 -0.2619
21357W        W37491   6.054  16.377   2.438  0.2115  0.1906  0.0316
21358W        W37492   5.358   6.400  11.440  0.1500 -0.0656  0.1250
21359W        W37493  18.424   0.613   5.238 -0.5050 -0.0347  0.0359
21360W        W37494   1.578   0.813   3.925 -0.0508 -0.2075 -0.0204
21361W        W37495  12.080  15.561   4.112 -0.0274  0.2118  0.1310
21362W        W37496   4.592  13.608  12.445  0.2350  0.1512  0.0161
21363W        W37497  11.840   5.460  14.926  0.0134 -0.0996  0.4508
21364W        W37498   3.527  13.240   3.184  0.1603 -0.0496 -0.2635
21365W        W37499   0.385   9.561   3.517 -0.0116  0.0461  0.0291
21366W        W37500   4.102  16.268  15.487 -0.0277 -0.0787 -0.0515
21367W        W37501   1.342  11.339  11.896 -0.1697  0.1769  0.2795
21368W        W37502  15.428   5.581  12.258  0.2172 -0.1110 -0.1807
21369W        W37503   1.782  11.860   3.691  0.1304 -0.1950  0.3642
21370W        W37504  16.236  18.124  15.161 -0.1043  0.3364  0.2014
21371W        W37505  12.345  14.782   0.759 -0.2521 -0.0739 -0.4139
21372W        W37506  17.162  13.388   3.124  0.1701 -0.0347  0.1191
21373W        W37507  14.428  16.570  12.386  0.2110  0.3265 -0.1006
21374W        W37508   3.876  15.100   3.527  0.0318  0.4000  0.2596
21375W        W37509   6.784   7.517  13.457  0.3067 -0.0151 -0.1789
21376W        W37510   4.584   2.588   3.846  0.0805 -0.1127  0.0312
21377W        W37511   2.458  15.352  11.898 -0.0335 -0.1550  0.1281
21378W        W37512   3.773  16.659   5.879  0.1906 -0.2299  0.0844
21379W        W37513   6.221  12.737  11.280 -0.2424  0.1683  0.0152
21380W        W37514   7.274  10.308  14.942  0.2670 -0.2626 -0.1637
21381W        W37515   1.523  16.936  11.565  0.1510  0.1486 -0.0362
21382W        W37516   2.812   2.269   1.240  0.1393  0.1627 -0.1516
21383W        W37517  16.097   3.100  12.789 -0.1254 -0.1500  0.2038
21384W        W37518   2.008  17.882  15.758 -0.0635  0.2185 -0.1567
21385W        W37519   0.853   5.372  12.765 -0.0575 -0.1435  0.1876
21386W        W37520   5.184   6.249   1.357 -0.1790 -0.0381 -0.1383
21387W        W37521   5.487   6.318  12.937  0.0832 -0.1942 -0.0672
21388W        W37522  11.818  13.595   2.841  0.0200 -0.1426  0.3028
21389W        W37523  16.339   9.247   0.566 -0.1174  0.3225  0.1119
21390W        W37524  18.076   2.722   4.964 -0.1146 -0.1816  0.1400
21391W        W37525  10.216   0.607  15.773 -0.2521 -0.0305  0.0196
21392W        W37526   4.830   2.319  13.185  0.0889  0.1671 -0.2815
21393W        W37527   2.427   4.113   1.599  0.1353 -0.3647 -0.3971
21394W        W37528   7.319  18.433   2.308  0.1408 -0.0948  0.0136
21395W        W37529  11.697   6.417   0.311 -0.3502  0.1741  0.1031
21396W        W37530   8.061   6.981  14.628 -0.0498 -0.1337 -0.3659
21397W        W37531  13.499  16.066   3.153  0.0553  0.1153 -0.0284
21398W        W37532   7.807   8.062  14.110 -0.0633 -0.2110 -0.0400
21399W        W37533  12.315   9.033   0.112  0.1007 -0.1017 -0.1065
21400W        W37534   2.712  13.088  11.759  0.0105 -0.0947  0.1615
21401W        W37535  14.572   6.947   0.493  0.0311 -0.2611 -0.0796
21402W        W37536   1.343   7.164   2.747 -0.1818  0.1671 -0.1868
21403W        W37537   6.434   8.839   1.497  0.1759  0.1762 -0.0322
21404W        W37538   5.338   1.615   4.298  0.2766 -0.0615  0.0175
21405W        W37539   1.210  18.074   5.074  0.1316  0.1177 -0.2716
21406W        W37540  13.440   2.629  11.496  0.3078 -0.1426 -0.0953
21407W        W37541  12.170   9.929   3.656 -0.0865 -0.1799 -0.0163
21408W        W37542   8.855   1.009  12.077  0.3088  0.1354 -0.1644
21409W        W37543  13.314   1.663  11.376  0.0873 -0.2138  0.1421
21410W        W37544  17.079  12.886  13.698  0.2294 -0.0288  0.0887
21411W        W37545   2.475   0.037   3.028  0.0411 -0.1805  0.0651
21412W        W37546   6.056  14.003  13.375 -0.2751 -0.1588 -0.0780
21413W        W37547  12.318  17.497   5.138  0.3383 -0.0031  0.3113
21414W        W37548  17.937  14.851  14.732 -0.1144 -0.2160  0.3327
21415W        W37549   0.596  10.601   3.642  0.0164 -0.0214 -0.1207
21416W        W37550   1.733   5.172   9.753  0.2501  0.3537 -0.0125
21417W        W37551   6.256  13.870  15.015 -0.1712  0.1793 -0.0760
21418W        W37552   8.551   5.432   3.646 -0.0752  0.1032 -0.0762
21419W        W37553  12.946  17.419  12.647 -0.2384 -0.1203 -0.4307
21420W        W37554  10.066  12.691  15.272  0.0327  0.0549  0.0397
21421W        W37555  18.463   8.397  14.830 -0.1829  0.6013  0.0304
21422W        W37556   8.501  15.812   5.251  0.2530 -0.0464 -0.3835
21423W        W37557  10.250   5.863   1.611  0.1598 -0.0543 -0.1439
21424W        W37558  13.868   8.450   1.196 -0.2204  0.1336  0.0933
21425W        W37559  11.383   8.444   1.743 -0.3647 -0.4006 -0.1357
21426W        W37560  15.999  12.135   5.881  0.1037 -0.4395 -0.0441
21427W        W37561  14.640  16.903   2.617  0.1588  0.0717  0.1075
21428W        W37562   1.878  14.816   2.851  0.0185  0.2507  0.0765
21429W        W37563  17.914   6.868  12.532  0.0222 -0.3379  0.0255
21430W        W37564  16.441  18.308   1.985 -0.2895  0.0765  0.0735
21431W        W37565  10.249  15.251  12.488  0.0892 -0.0050 -0.2070
21432W        W37566   7.075  13.151  13.471  0.0032 -0.2332  0.0037
21433W        W37567  16.275  15.632   1.568  0.0280  0.0004 -0.0663
21434W        W37568   0.135  13.404   1.085  0.2031  0.0255  0.0109
21435W        W37569   4.121   5.615   0.215  0.2550  0.0129  0.0587
21436W        W37570   6.045  11.465  14.634 -0.2764  0.2502 -0.0445
21437W        W37571  16.356  15.165   1.480 -0.2252  0.0868  0.3555
21438W        W37572   9.014  11.861  12.804 -0.1139 -0.0502  0.0402
21439W        W37573   3.784   8.229   4.584 -0.0305  0.1774 -0.1597
21440W        W37574   6.772   1.924   1.901 -0.2443 -0.0507  0.1168
21441W        W37575   5.057   3.612  13.826 -0.0575 -0.2673  0.0765
21442W        W37576  15.499   6.859   0.883  0.2328 -0.0914  0.2430
21443W        W37577   9.087  13.073   1.193 -0.0842  0.3443 -0.2557
21444W        W37578   0.507   8.118   5.962 -0.1440 -0.0861  0.1419
21445W        W37579  16.043   6.508  10.933 -0.0347 -0.1458 -0.1537
21446W        W37580  17.592   6.989   0.015 -0.2258 -0.0035 -0.1603
21447W        W37581  16.995   8.604  13.128  0.0426  0.1675  0.1557
21448W        W37582   8.086   0.585  13.696 -0.0508 -0.3637 -0.1957
21449W        W37583  17.395   4.571  11.025 -0.2463  0.3897  0.0012
21450W        W37584  13.558  12.707   1.307  0.0261 -0.1615 -0.1440
21451W        W37585   8.282  13.916   1.902 -0.0377 -0.0432 -0.1581
21452W        W37586  17.890   6.290   1.113  0.2951 -0.1355 -0.0689
21453W        W37587   7.231   5.622   1.784 -0.3068 -0.2916  0.1220
21454W        W37588   3.741  13.676   0.274 -0.0846  0.2900 -0.3371
21455W        W37589   1.493  17.888   3.282 -0.1547 -0.0103  0.0803
21456W        W37590  11.287   2.088   0.753  0.0549 -0.2846 -0.1523
21457W        W37591   8.002  12.203   0.161  0.0232 -0.1888  0.1954
21458W        W37592   3.353  14.726   0.102 -0.2062  0.1035 -0.3683
21459W        W37593  11.221  15.076   4.419  0.4528 -0.3096 -0.0267
21460W        W37594   6.778  11.994   0.736 -0.4036  0.1829 -0.4464
21461W        W37595  18.344   9.918   4.226 -0.1204 -0.1897  0.0365
21462W        W37596  14.352  17.992   1.539  0.0573 -0.1838  0.0101
21463W        W37597  16.588  15.593   2.831 -0.0349 -0.0307 -0.1013
21464W        W37598  12.217  12.314  13.504  0.0895 -0.1936 -0.1431
21465W        W37599   1.702  15.395  11.965  0.2515 -0.3254  0.0751
21466W        W37600   7.181   4.526   1.642  0.3238  0.1108  0.0510
21467W        W37601  10.851  15.475   0.972  0.0111 -0.0743 -0.0460
21468W        W37602  12.409  10.091   0.011  0.1286 -0.0010  0.3423
21469W        W37603  12.355  12.243  12.961 -0.0606 -0.2987  0.0956
21470W        W37604  14.917   6.964   2.666  0.0863 -0.0198 -0.0721
21471W        W37605   6.042  15.910  15.740  0.4332  0.3747 -0.0878
21472W        W37606  14.840  17.292  12.226  0.1543  0.0167  0.4239
21473W        W37607   6.227   5.946   2.402 -0.0558 -0.1314 -0.0625
21474W        W37608  14.317   6.612  14.022 -0.1291 -0.0135 -0.1522
21475W        W37609   2.224  15.763  14.382 -0.1826 -0.2140 -0.1421
21476W        W37610   8.871  13.302   2.518 -0.3143 -0.1838  0.1811
21477W        W37611  16.685   4.110  15.114  0.0898 -0.1791  0.0332
21478W        W37612   1.760   0.917   1.816  0.3966  0.4110  0.0946
21479W        W37613   3.948   4.184  13.348 -0.0376  0.0898  0.0079
21480W        W37614   1.332   2.891   0.670  0.1516  0.1558 -0.1150
21481W        W37615  11.377   8.569  12.693 -0.2654 -0.0896  0.1404
21482W        W37616   3.855  15.761  12.179  0.2057 -0.0546  0.0920
21483W        W37617   1.670  17.377   4.991 -0.0517 -0.0802 -0.0482
21484W        W37618   0.969   6.819  12.612  0.1113  0.0845  0.1378
21485W        W37619   6.335  15.166  15.791 -0.1559 -0.1540  0.1022
21486W        W37620  13.066  11.739   0.272  0.1080  0.0747  0.0789
21487W        W37621   8.843   3.510  15.768 -0.0016  0.0492  0.1461
21488W        W37622   1.397   8.940  12.980  0.3749  0.0776  0.0620
21489W        W37623   5.023   5.521   1.740 -0.0219  0.1295  0.2112
21490W        W37624  18.389  14.951   3.243 -0.0142  0.2721  0.0716
21491W        W37625  14.195   9.796   1.097 -0.3171 -0.1658 -0.2171
21492W        W37626  13.748  17.999  15.767 -0.0110  0.1347  0.1388
21493W        W37627   7.615   2.001   2.207  0.4116  0.2123  0.1230
21494W        W37628   9.100  16.600   1.815  0.0542  0.0376  0.0312
21495W        W37629  11.962   6.470  14.240  0.1110 -0.1097  0.0677
21496W        W37630  18.392   3.851  11.136 -0.1546 -0.1745 -0.1683
21497W        W37631   3.049   6.405  14.252  0.2530  0.0376  0.1756
21498W        W37632  12.890  14.227  11.527  0.2200 -0.0118 -0.0052
21499W        W37633   4.752  10.335   4.861 -0.3387 -0.1156  0.0209
21500W        W37634   3.515  14.805  11.496  0.0616  0.1193 -0.2018
21501W        W37635  15.598   9.261   2.195 -0.1766 -0.1015 -0.0240
21502W        W37636   6.210   8.175   2.871 -0.0265 -0.2390  0.0644
21503W        W37637  14.679  16.443   5.441  0.0951  0.1877 -0.1499
21504W        W37638  10.177   2.522   4.032 -0.0196 -0.0416 -0.1235
21505W        W37639   9.345   8.079  14.134  0.1149  0.2905 -0.0346
21506W        W37640  16.479   6.967   4.920  0.2280  0.1432  0.1432
21507W        W37641  14.041   9.971   1.942 -0.1338  0.1018  0.3101
21508W        W37642  18.303   1.690   3.050  0.2766  0.2111 -0.0489
21509W        W37643   9.199  15.862   1.702 -0.0696  0.2045  0.0964
21510W        W37644   0.478  16.547  10.573 -0.1520 -0.2999 -0.0834
21511W        W37645   2.961   7.688  12.343 -0.2337 -0.3028  0.0915
21512W        W37646   3.061  14.580  11.389  0.0023 -0.3035  0.5172
21513W        W37647   4.134  16.195   1.227  0.2292 -0.2121 -0.0905
21514W        W37648   8.925   8.297  15.662 -0.0987  0.2425 -0.0154
21515W        W37649  17.366  11.604   1.117  0.3814 -0.1363 -0.3167
21516W        W37650   1.583   2.713   3.601 -0.1523  0.1257 -0.2177
21517W        W37651  14.800   4.535  15.421  0.2159  0.0332 -0.3374
21518W        W37652   7.521  16.766  13.149  0.0014  0.0366 -0.4556
21519W        W37653   6.171   8.026   0.462 -0.4213  0.0616 -0.1547
21520W        W37654   4.917   5.938   0.401 -0.2332 -0.2338 -0.4396
21521W        W37655   6.267   7.048   2.038 -0.1133  0.5834 -0.3652
21522W        W37656   0.691   8.851   3.013 -0.0568 -0.0444  0.1032
21523W        W37657  17.485  12.081   1.209  0.1077 -0.2947 -0.0233
21524W        W37658  14.318   2.006   0.387 -0.0334 -0.1985 -0.0375
21525W        W37659  17.689  18.366   1.741 -0.2385 -0.3999 -0.0357
21526W        W37660   7.708   3.021  14.785  0.1887 -0.0669 -0.0201
21527W        W37661  11.432   7.874  13.310  0.4163 -0.1617  0.0247
21528W        W37662   2.768   1.114  15.319  0.6050 -0.0059  0.1344
21529W        W37663   5.093  15.756  15.292  0.0857 -0.0005  0.1144
21530W        W37664   6.967  18.023   2.346 -0.0830 -0.0522 -0.0521
21531W        W37665   1.298   2.456  10.540 -0.0058 -0.0825  0.1671
21532W        W37666   1.486  12.294   0.609 -0.0918  0.1137 -0.0561
21533W        W37667  14.932   7.041  13.048 -0.0183  0.2472 -0.1971
21534W        W37668  11.513   4.855  11.261 -0.0365 -0.1048 -0.0505
21535W        W37669   4.841  11.724  15.644  0.0897  0.3168 -0.2142
21536W        W37670  13.461  11.542   3.245  0.3629 -0.3545 -0.0439
21537W        W37671  11.066  14.098  11.298  0.1477  0.0658 -0.0624
21538W        W37672   9.983   9.460   3.642  0.0679 -0.2595 -0.1168
21539W        W37673   1.703   9.386   3.001  0.1888 -0.0777  0.1791
21540W        W37674   2.512   7.252  11.118  0.1003 -0.0657 -0.2106
21541W        W37675  14.748   3.234  13.464  0.2917  0.1555  0.2206
21542W        W37676   5.569   1.568   4.840  0.1363  0.0474 -0.2680
21543W        W37677  10.889  18.281   5.901 -0.0974  0.4789  0.1999
21544W        W37678   5.955  12.237   1.982  0.1261  0.0018 -0.1300
21545W        W37679   3.505  12.232   5.094 -0.1252 -0.0600 -0.0878
21546W        W37680   9.589  14.014   4.172 -0.0411  0.2491  0.0616
21547W        W37681   7.714  10.703  12.114  0.1444 -0.0276  0.0095
21548W        W37682  13.800   3.226  14.590  0.1222 -0.0252  0.0778
21549W        W37683  14.384  17.052   4.544  0.2586  0.0012 -0.0240
21550W        W37684   7.056   9.692  15.694 -0.1702 -0.1929  0.0263
21551W        W37685   0.644  17.934   2.955 -0.0144 -0.0590  0.1103
21552W        W37686   5.656  16.644   4.854  0.0419 -0.0475 -0.1461
21553W        W37687   6.611  17.942   3.886 -0.3140  0.0873 -0.1387
21554W        W37688  15.426  13.100  12.965  0.1946 -0.1121 -0.0203
21555W        W37689  13.286   2.063   0.130 -0.2209  0.1693 -0.0419
21556W        W37690   4.576  12.699   1.187 -0.3268 -0.2428 -0.0562
21557W        W37691   6.768  12.048   5.893  0.0366 -0.0589  0.3535
21558W        W37692   1.586  17.483  13.573  0.0054  0.2370 -0.0451
21559W        W37693  11.143  13.948  14.170 -0.1995 -0.2674  0.2206
21560W        W37694   4.694  13.731   2.463  0.1615  0.1351  0.2136
21561W        W37695   3.182   0.281   4.217  0.1246 -0.0140  0.0113
21562W        W37696   5.751   2.125  11.293  0.1427 -0.3513  0.2808
21563W        W37697  15.511   1.682  14.947 -0.1176 -0.2935  0.0251
21564W        W37698  15.731   7.482   0.116 -0.3318  0.1743  0.1122
21565W        W37699   1.275  12.324   1.373  0.2068  0.1916  0.0740
21566W        W37700  11.735  12.427   3.985  0.1867  0.1802 -0.0377
21567W        W37701   8.606   7.856  11.098 -0.2047 -0.2847  0.0640
21568W        W37702  13.104   5.131   2.209  0.0650 -0.0368 -0.1100
21569W        W37703  13.813  16.519  14.228  0.2013 -0.1255 -0.0769
21570W        W37704   4.215   7.035   9.800 -0.3208 -0.1530  0.1854
21571W        W37705   9.413   8.063  14.717 -0.1368 -0.1164 -0.0013
21572W        W37706  15.955   3.828  13.071 -0.0811  0.1217  0.0627
21573W        W37707   5.257   1.922   1.796  0.0149 -0.0315  0.0827
21574W        W37708   0.087   6.034   0.509 -0.2677  0.0514  0.0527
21575W        W37709  12.782   6.292   3.754  0.2446  0.1483  0.1540
21576W        W37710  17.676  10.965  13.837 -0.3118 -0.1109  0.1369
21577W        W37711  11.679  18.367  13.160  0.0245 -0.1739  0.3268
21578W        W37712  16.475   7.257   2.908  0.3674 -0.1314 -0.2056
21579W        W37713   9.819  13.856   5.696 -0.0682  0.2033  0.4681
21580W        W37714  11.476   8.739  10.014  0.1954  0.0765  0.3443
21581W        W37715  10.824   8.358  15.361  0.0233  0.0838 -0.2294
21582W        W37716  14.506   3.483   3.081  0.0166 -0.1987 -0.0899
21583W        W37717   0.208   5.319  12.534 -0.0443 -0.1802  0.0446
21584W        W37718   5.305  18.292  13.378 -0.1304  0.0475  0.1449
21585W        W37719   2.071   6.766  11.502 -0.0238 -0.0766 -0.0786
21586W        W37720   6.531  15.111   4.595 -0.1882 -0.1097  0.2024
21587W        W37721  15.674  12.336  14.291 -0.0182  0.4992  0.2497
21588W        W37722  18.055  11.476   4.340 -0.0782  0.0849  0.0155
21589W        W37723   1.831  15.393   4.602  0.2773 -0.0672 -0.0703
21590W        W37724  10.295   6.921   4.903 -0.1591 -0.1868 -0.1605
21591W        W37725  16.881   5.508  13.722  0.0426 -0.0229 -0.0015
21592W        W37726   5.291   9.391   1.636  0.1013 -0.0328 -0.3099
21593W        W37727  17.718   1.206   5.659 -0.2240 -0.3176 -0.1440
21594W        W37728  12.751  13.486   0.923  0.1714  0.2466  0.1549
21595W        W37729   3.183  16.479   3.227  0.1631  0.1308  0.0536
21596W        W37730  14.471   8.139  12.852 -0.0436  0.1002  0.1244
21597W        W37731   1.194   7.338  12.364  0.0132 -0.1607  0.0655
21598W        W37732   4.009   4.690   4.835  0.1911  0.0204 -0.0720
21599W        W37733  11.170   4.023  11.941  0.4614  0.2386  0.0845
21600W        W37734  17.268   1.914   5.600 -0.1034 -0.2752  0.1204
21601W        W37735  15.253   4.469  11.330 -0.0932  0.1981 -0.1154
21602W        W37736   6.200   5.694  14.558 -0.0937 -0.0034 -0.0773
21603W        W37737  10.912  18.281   4.136  0.0801 -0.1933 -0.1173
21604W        W37738   3.308  13.249  15.356 -0.1577 -0.1149 -0.2065
21605W        W37739  14.531   6.420  11.318  0.2190 -0.1623 -0.1663
21606W        W37740   8.460   5.536   0.598  0.1548  0.2627 -0.0390
21607W        W37741  16.959  10.610   3.891  0.3105 -0.0093  0.0074
21608W        W37742   9.533  17.669   5.009 -0.0465 -0.0071  0.2178
21609W        W37743   7.959  16.891   1.357  0.1237 -0.0808  0.2701
21610W        W37744  18.035  17.420   4.569  0.0419  0.1412  0.1750
21611W        W37745  16.945   3.218   5.227 -0.0073 -0.5611  0.0960
21612W        W37746   5.485  17.304   0.461 -0.1463 -0.0465 -0.2300
21613W        W37747  13.986   0.002   0.969  0.0148  0.3083  0.0260
21614W        W37748  15.275   0.882   2.249  0.0263  0.1756 -0.0734
21615W        W37749  14.938   7.629  15.871 -0.3659  0.2939  0.2045
21616W        W37750  17.927  15.179   5.936  0.1114 -0.5379  0.0430
21617W        W37751   2.438  14.136  12.818 -0.0189 -0.2895 -0.1046
21618W        W37752   0.781   6.933  11.375 -0.0556  0.0891 -0.1207
21619W        W37753  15.573   7.177  14.216 -0.2850 -0.3599  0.3351
21620W        W37754  18.339  16.161  10.919 -0.0655 -0.2679  0.1632
21621W        W37755   3.352   3.080  11.702  0.0058  0.3023  0.0671
21622W        W37756  13.766  12.885   2.334  0.1610  0.1446 -0.0266
21623W        W37757  17.665  12.162  11.268  0.0725 -0.3866  0.0590
21624W        W37758   5.287  12.513   2.843  0.1516 -0.0856  0.0491
21625W        W37759   1.988   0.286  13.037 -0.0163 -0.0760  0.1297
21626W        W37760  11.947   7.760   4.332  0.0463  0.0982 -0.0624
21627W        W37761  16.177   9.722   0.744  0.0583  0.3433 -0.1716
21628W        W37762   0.890   4.344   2.682 -0.1798  0.2272 -0.0565
21629W        W37763  12.435   9.147   4.271  0.1532 -0.1431  0.2091
21630W        W37764  13.228   6.832   1.076  0.0686  0.0326 -0.5462
21631W        W37765   5.481   0.565   2.384  0.3575 -0.0062 -0.3084
21632W        W37766   5.218   1.663   3.477 -0.0003 -0.0100  0.0589
21633W        W37767   6.686  15.528  12.564  0.2130 -0.1030 -0.0588
21634W        W37768   9.429  11.168   4.581  0.3617  0.1907  0.0153
21635W        W37769  11.445   4.719  13.752  0.0185  0.1387  0.0924
21636W        W37770   4.056  10.472  11.239 -0.1700 -0.2899  0.0988
21637W        W37771  18.433  14.623   4.496 -0.1053 -0.2254  0.0134
21638W        W37772   2.798  16.008   1.520 -0.1634  0.3753  0.0488
21639W        W37773   9.372   1.866  10.278  0.0880 -0.1863 -0.3703
21640W        W37774  16.054  11.255   3.239  0.0440 -0.1442 -0.0085
21641W        W37775   5.991  11.027  15.809  0.1445 -0.1847 -0.3562
21642W        W37776  10.207   2.044  12.871 -0.1406  0.1994 -0.0433
21643W        W37777   1.651   7.143  12.149 -0.1969  0.0051 -0.0627
21644W        W37778   0.986   8.526  10.996 -0.0463 -0.0348 -0.0018
21645W        W37779  10.547   5.834  14.738  0.1567  0.2635  0.1247
21646W        W37780   4.385   5.540  11.655 -0.1200  0.1440  0.2392
21647W        W37781   0.180  11.315   0.013 -0.1370  0.2572  0.3607
21648W        W37782   2.600  10.362  11.638  0.1175  0.2458  0.0886
21649W        W37783   5.544  10.833   3.559 -0.1147  0.0281  0.2626
21650W        W37784  17.795   9.881  11.451  0.0952  0.1645  0.2505
21651W        W37785   6.283   6.398   2.204 -0.2487  0.0155 -0.0584
21652W        W37786   3.903   6.033  12.527 -0.0919  0.0793  0.3167
21653W        W37787  11.771   1.503  12.163  0.1175  0.0721 -0.0659
21654W        W37788   5.341  17.831   1.076  0.1340  0.4026  0.0636
21655W        W37789   0.180  15.355  13.546  0.0989 -0.5485  0.1116
21656W        W37790   4.740  15.467   5.251 -0.2943  0.0505  0.0700
21657W        W37791  14.100   3.447  11.455 -0.1588  0.0163  0.0932
21658W        W37792  11.978  10.413   1.321 -0.0155 -0.3007 -0.1923
21659W        W37793   0.711  18.144  12.845  0.0604  0.0059  0.3538
21660W        W37794   0.341   9.235   0.129  0.0601 -0.0842  0.1037
21661W        W37795   6.930  18.159  15.733 -0.2995  0.3303  0.0438
21662W        W37796   4.056   9.529  12.904 -0.1210  0.2844 -0.0059
21663W        W37797   2.326   7.845   0.270  0.0752 -0.3124 -0.2803
21664W        W37798  13.214  12.928  12.522  0.0519  0.2697 -0.0805
21665W        W37799   1.025   1.760   5.924  0.2598 -0.1648  0.0593
21666W        W37800   9.130  12.024  15.328  0.0031 -0.0704  0.4217
21667W        W37801  14.468   9.238   0.944 -0.2284  0.1432  0.3040
21668W        W37802   4.629  10.745  13.286 -0.1093 -0.2605  0.0002
21669W        W37803   1.819  11.559  15.800 -0.1110  0.0854  0.1764
21670W        W37804   9.392  17.926  15.092  0.1700  0.0160  0.0103
21671W        W37805  10.177  10.998   1.305  0.0302  0.2424  0.1463
21672W        W37806  10.007  11.963  14.720  0.0222  0.0999  0.2648
21673W        W37807  11.319   2.958   4.128  0.0759  0.2665 -0.0663
21674W        W37808   9.175  14.678  14.741 -0.1550 -0.2695  0.2481
21675W        W37809  18.056  13.137   3.208  0.1243 -0.0226 -0.1838
21676W        W37810   3.325  16.137   0.017  0.0176 -0.0206 -0.4415
21677W        W37811  15.926  13.275  11.204  0.0276 -0.3278  0.0183
21678W        W37812   6.917  15.345   3.805  0.0022 -0.2975  0.1807
21679W        W37813   0.197   2.954   2.959 -0.0983 -0.0916 -0.0507
21680W        W37814   2.636  11.332   4.580 -0.0602 -0.0610  0.2039
21681W        W37815   5.057   0.293   4.865 -0.1535 -0.2748  0.1656
21682W        W37816   1.208  14.235   4.272  0.2245  0.6077 -0.0090
21683W        W37817   5.958   9.083  13.129  0.0851  0.0565 -0.2002
21684W        W37818   7.604   4.879   0.155 -0.0863 -0.0536  0.2386
21685W        W37819  16.758   2.523   2.156  0.2271  0.1899 -0.1424
21686W        W37820   7.089   8.919   0.159 -0.2308 -0.0926  0.1506
21687W        W37821   9.934  17.915  13.258  0.1646  0.3994 -0.0602
21688W        W37822   6.970  10.804   3.694  0.0862 -0.0402  0.2805
21689W        W37823   4.116   6.843  15.423 -0.1172 -0.0190  0.2074
21690W        W37824  14.277   2.620   3.151 -0.0792  0.1753  0.1145
21691W        W37825   5.203  15.465   0.319  0.1530 -0.0846 -0.0990
21692W        W37826  16.374  12.229  11.732  0.0664 -0.0607  0.2120
21693W        W37827   8.571   5.827  14.250  0.1112 -0.2586 -0.0532
21694W        W37828  11.589  10.447   2.374  0.1994  0.1065 -0.1646
21695W        W37829  14.447  15.368  15.317 -0.1187 -0.0412  0.2449
21696W        W37830  10.746  12.346   2.421 -0.3215  0.1168  0.3467
21697W        W37831  16.980  12.880  11.455 -0.2019 -0.2665  0.2025
21698W        W37832   2.585   4.178  15.418  0.1319 -0.3250  0.1503
21699W        W37833   2.093   1.919   3.392  0.1507  0.0745  0.0439
21700W        W37834  12.801   0.921   3.079 -0.0253 -0.0628 -0.1647
21701W        W37835   4.088   2.162  14.562  0.1503 -0.1649  0.2618
21702W        W37836   7.843  13.910   3.090  0.0783  0.0309  0.1593
21703W        W37837  12.458   1.084   1.808 -0.2393  0.0277  0.0004
21704W        W37838  10.948   7.384  15.701 -0.0518  0.0707  0.1345
21705W        W37839  17.367   4.021   1.009  0.1281  0.1094 -0.1148
21706W        W37840  15.858  15.179  12.947 -0.1155 -0.2614 -0.2104
21707W        W37841  11.236  11.313  14.715  0.0316  0.0214 -0.0447
21708W        W37842  13.868  16.497   4.845  0.4016 -0.0648 -0.0622
21709W        W37843  17.708   6.990   3.455  0.1170 -0.1019 -0.0459
21710W        W37844   1.370  15.530  15.823 -0.1545  0.1977  0.2660
21711W        W37845  13.708   4.558   2.110  0.0897 -0.0329  0.2180
21712W        W37846   9.654  10.007  13.764 -0.0462  0.0646 -0.2311
21713W        W37847   9.824  14.927   1.114  0.1582 -0.0615 -0.0876
21714W        W37848   9.625  12.457   2.296 -0.0524  0.1524 -0.2929
21715W        W37849  16.018  12.482  12.007 -0.0067  0.2407  0.1514
21716W        W37850   4.095  17.099  10.829 -0.0621 -0.3534  0.0574
21717W        W37851  11.699   6.399   4.487 -0.1583  0.1466 -0.0346
21718W        W37852  13.013  15.956   4.027 -0.0655  0.0799 -0.1764
21719W        W37853  16.156   1.751  12.090  0.1662 -0.0045  0.1540
21720W        W37854  16.712   3.020   1.923  0.2941 -0.2728 -0.0209
21721W        W37855  11.104   1.505   2.879  0.1546  0.1826  0.1107
21722W        W37856  11.102   3.641   4.629  0.1355  0.2786  0.0052
21723W        W37857  14.591   9.218  12.795  0.3259 -0.0743  0.1638
21724W        W37858   9.023   7.608   4.760 -0.2549  0.4412  0.0604
21725W        W37859   4.315  18.465  12.245 -0.1862  0.0285 -0.3133
21726W        W37860  10.154   8.568   2.753  0.1031  0.0527 -0.2970
21727W        W37861   7.670   7.095  15.828 -0.0031 -0.1442  0.0804
21728W        W37862   6.808  12.746  15.637  0.2970  0.3319 -0.1723
21729W        W37863  13.448  18.239  14.248  0.1121 -0.0446 -0.0627
21730W        W37864  12.642   6.335  15.510  0.0857 -0.0063  0.1870
21731W        W37865   6.164  18.207  13.536 -0.0819  0.0275  0.0645
21732W        W37866  15.655  17.155   3.215 -0.4007 -0.2437  0.0429
21733W        W37867   4.963   5.046  13.769  0.0815  0.1068  0.1272
21734W        W37868   4.822   6.166   3.049 -0.0465  0.1242  0.2555
21735W        W37869  10.086   4.380  15.646 -0.0080 -0.0594  0.0924
21736W        W37870   0.998  17.887   2.460  0.3446  0.1260  0.1303
21737W        W37871   0.595   6.811   2.800 -0.2631 -0.5208  0.0777
21738W        W37872  10.167   1.073   3.739  0.0182  0.2427  0.0748
21739W        W37873  14.644   1.356   1.674  0.0048 -0.0057  0.3266
21740W        W37874   8.250   4.134   4.876 -0.0131  0.0858  0.0827
21741W        W37875  16.013   5.757   3.328 -0.1629  0.3203 -0.1733
21742W        W37876  17.763  13.667  15.423  0.0595  0.1324  0.0098
21743W        W37877   0.856  15.900  12.169  0.2072 -0.1032  0.1822
21744W        W37878  14.264   7.167   0.839  0.0614 -0.3273  0.2012
21745W        W37879  12.279   3.251   5.001 -0.2000 -0.1831  0.0120
21746W        W37880   1.627   7.793   3.881  0.0927 -0.1948  0.1340
21747W        W37881   3.879   8.662  13.943  0.0220 -0.1005 -0.0055
21748W        W37882   8.937   5.236  10.997  0.1853  0.0118  0.0162
21749W        W37883   2.440   9.582   1.032  0.3382  0.4669 -0.3232
21750W        W37884  14.727   6.907   5.142 -0.0054  0.2756  0.0841
21751W        W37885   0.893   6.997   0.125 -0.0265  0.3468 -0.1186
21752W        W37886   3.748  15.753   6.007  0.5137 -0.1509  0.2632
21753W        W37887   5.698  12.815  15.722  0.1946  0.1568  0.3768
21754W        W37888   7.136  16.897  13.461 -0.0017  0.1291 -0.2405
21755W        W37889   2.848   2.501  11.769  0.2436  0.0499  0.1920
21756W        W37890  10.780   5.322  11.759  0.0118  0.1570  0.0539
21757W        W37891  17.055   9.081  14.644 -0.1290 -0.0501  0.0435
21758W        W37892  10.880   2.859  14.555 -0.0844  0.1408  0.2082
21759W        W37893   0.588  10.279  12.666  0.2774 -0.1501  0.1502
21760W        W37894  11.909  15.246  10.827 -0.1104  0.3172 -0.0785
21761W        W37895  13.019  18.392  13.125  0.4455 -0.2240 -0.1854
21762W        W37896   5.244  14.276   3.220 -0.3195 -0.2509  0.0098
21763W        W37897  16.880  10.687   1.669 -0.0056  0.0329 -0.1019
21764W        W37898   0.450   9.431  11.878  0.3306 -0.2796  0.1534
21765W        W37899  13.858   3.624   6.113  0.0418 -0.1593  0.0136
21766W        W37900   0.147  11.032  11.233 -0.0142 -0.0186  0.1140
21767W        W37901   0.213   7.168   4.315  0.3719 -0.1133  0.0854
21768W        W37902  15.009   0.695  12.797 -0.0676 -0.4416  0.3421
21769W        W37903  17.962  17.843   2.923  0.0027 -0.1016 -0.0045
21770W        W37904  16.062   6.291   5.442  0.1817 -0.2353  0.1038
21771W        W37905   8.438  10.805   4.685 -0.0220 -0.0133  0.0905
21772W        W37906   4.275  11.464   2.961  0.0707  0.2921  0.2222
21773W        W37907   0.570  16.945   4.685 -0.3233 -0.0700 -0.2293
21774W        W37908   8.542  16.514  13.430 -0.0691  0.0577 -0.0937
21775W        W37909   2.978  13.368   3.554  0.1667 -0.1652  0.2028
21776W        W37910  10.034   8.296   2.149 -0.2454  0.0666  0.1693
21777W        W37911   1.461  16.639   2.636 -0.0022 -0.0945  0.2225
21778W        W37912  16.272  17.521  10.765 -0.2370  0.1081  0.2281
21779W        W37913   7.747   4.247   5.392 -0.1537  0.0628 -0.0897
21780W        W37914  17.135  13.985   2.767 -0.1964  0.0937  0.2139
21781W        W37915  18.377   1.587  12.278 -0.3004  0.1500 -0.0842
21782W        W37916   6.356  12.725  14.327  0.1834 -0.1022 -0.3156
21783W        W37917   7.484   6.654  11.568  0.0109  0.4466  0.2185
21784W        W37918  14.379  11.225  15.583 -0.4273  0.0588 -0.3071
21785W        W37919  10.648   7.175   4.573 -0.1079  0.3176  0.0465
21786W        W37920  16.304   5.550   4.903  0.2435  0.1087 -0.1725
21787W        W37921  15.417   8.654   1.508  0.0275 -0.0198 -0.1905
21788W        W37922  12.940  12.658  12.867  0.1875 -0.0393  0.0615
21789W        W37923  16.050   6.444   2.510  0.0735  0.3991 -0.1189
21790W        W37924   9.542  17.171  15.774 -0.0557  0.1394 -0.3668
21791W        W37925   6.532   8.808   4.149  0.0343  0.1660 -0.2281
21792W        W37926  14.938   3.111   1.696 -0.0078 -0.2198 -0.3140
21793W        W37927  16.128  10.782  13.024 -0.2806  0.3204 -0.3410
21794W        W37928   0.073   8.414  13.468 -0.0631 -0.0371  0.3924
21795W        W37929  17.136  11.699  15.397 -0.1409 -0.1301 -0.0131
21796W        W37930  18.019  17.542   3.299  0.1957  0.2628 -0.0451
21797W        W37931   2.026  13.364   0.470 -0.1445 -0.3087  0.3284
21798W        W37932   8.683  10.177   2.305  0.0096 -0.0316  0.3290
21799W        W37933  12.994   2.942   3.918  0.1224 -0.0803 -0.2156
21800W        W37934   3.167  12.368  11.340 -0.0512  0.0819 -0.3421
21801W        W37935  16.694  16.394  14.489 -0.0388 -0.1140  0.1431
21802W        W37936  10.289   1.771   3.032 -0.2189 -0.1584  0.0505
21803W        W37937   4.155   5.182   2.618 -0.1424 -0.1917  0.2539
21804W        W37938   1.822   5.330  13.827  0.0501  0.1971 -0.0842
21805W        W37939   6.705   4.473   3.737  0.0157 -0.0289  0.4280
21806W        W37940   7.607  12.308   5.016  0.0647  0.1125  0.1560
21807W        W37941  14.567  14.780   4.834 -0.2787  0.1683 -0.1977
21808W        W37942  18.235   1.864   4.458 -0.0222 -0.1484  0.1760
21809W        W37943  10.096   3.432  14.352  0.2866  0.1567  0.1210
21810W        W37944  12.949  16.800   3.698 -0.0442  0.3956 -0.0793
21811W        W37945   3.741  16.330  14.967 -0.0977  0.2046  0.0951
21812W        W37946   8.375   5.693   3.197 -0.0255 -0.3861  0.0322
21813W        W37947  15.052   5.973   5.997  0.0960  0.1355 -0.1370
21814W        W37948  13.265   1.152  13.934 -0.3354 -0.1575  0.1218
21815W        W37949   9.609  11.772   3.997  0.3780 -0.2315 -0.0527
21816W        W37950   2.054  12.073   4.818  0.4865  0.3376  0.2223
21817W        W37951  14.986  10.302   2.009 -0.1289  0.2828 -0.0907
21818W        W37952   7.126  14.869  13.823 -0.0995  0.0925 -0.0433
21819W        W37953  18.191  10.551   2.134  0.1356 -0.2722 -0.3615
21820W        W37954   9.251  12.037  13.207  0.1460 -0.1054 -0.0367
21821W        W37955   0.589   0.232   2.373  0.2997 -0.0449 -0.0175
21822W        W37956  10.968   0.547   1.807 -0.2577 -0.2962 -0.0218
21823W        W37957   0.026   0.660   4.312  0.2187  0.2565 -0.3224
21824W        W37958   0.966   9.531  11.878  0.1357  0.1072  0.0968
21825W        W37959   0.970   7.917   1.799  0.0056 -0.1584  0.0534
21826W        W37960   6.095   0.688   0.912 -0.0680 -0.0317 -0.1009
21827W        W37961   8.606   7.335   2.593  0.0675  0.1679  0.1361
21828W        W37962   2.748  14.763   0.822 -0.1275  0.0124 -0.0072
21829W        W37963   0.412  15.843   4.593 -0.0638  0.1439 -0.0318
21830W        W37964   8.203   4.678   1.053  0.0070  0.0313 -0.1827
21831W        W37965   0.758   5.577  14.575 -0.3741  0.1880  0.2018
21832W        W37966  16.431   5.209   3.791  0.0964 -0.0204 -0.1053
21833W        W37967   2.302  11.669   0.841  0.2970 -0.1673  0.2162
21834W        W37968   8.754   8.029  13.263  0.0676  0.1046  0.2522
21835W        W37969  10.267   5.404  11.383  0.3305 -0.1853  0.1925
21836W        W37970   5.099  17.880  14.115  0.0648  0.1734 -0.1890
21837W        W37971   0.323  15.314   4.920 -0.0778 -0.2526  0.0967
21838W        W37972   6.466  14.135   0.344 -0.0729 -0.1865 -0.2414
21839W        W37973   1.554   6.358  15.510  0.3512  0.0189 -0.2143
21840W        W37974   4.901  14.851  12.680 -0.2534 -0.2809 -0.1395
21841W        W37975   4.456  15.037  11.258 -0.4292 -0.1142  0.2179
21842W        W37976   5.484  16.509  11.829 -0.0193  0.0519  0.2865
21843W        W37977   5.731  16.654  12.532 -0.0720  0.0521  0.3427
21844W        W37978  15.456   7.548  12.260  0.2887  0.1657 -0.1140
21845W        W37979   4.036   2.563  11.999 -0.1154  0.2730  0.2624
21846W        W37980  17.083  11.497  11.557  0.0383  0.0476 -0.0049
21847W        W37981   3.664   0.428  14.600  0.0560  0.1229 -0.1253
21848W        W37982   2.167  14.329  11.740  0.0885 -0.1221 -0.0872
21849W        W37983   2.914   2.192   4.908  0.0243 -0.0756 -0.0456
21850W        W37984   9.927   4.391   4.579 -0.0619 -0.0431  0.1214
21851W        W37985   0.055  12.449   3.159  0.0579 -0.1314  0.0326
21852W        W37986   3.575   8.041   4.187  0.1392 -0.1529 -0.0741
21853W        W37987  11.632  11.908   1.808  0.2608  0.2605 -0.1982
21854W        W37988  15.631   8.548  15.850 -0.1718  0.0306  0.3170
21855W        W37989  13.238  14.043  13.473  0.2599 -0.2864  0.0397
21856W        W37990   5.906   5.365   3.560 -0.1072  0.0862 -0.0170
21857W        W37991   7.041   5.760  12.548 -0.1385 -0.3516 -0.2364
21858W        W37992   4.338  11.583   0.351 -0.0346 -0.2487 -0.2186
21859W        W37993   9.861   4.590   1.428  0.1233  0.1742  0.3817
21860W        W37994  17.794   4.111  13.804  0.0695  0.0679  0.2645
21861W        W37995  10.516  10.880   0.269  0.3234 -0.1848  0.0169
21862W        W37996   5.839   3.875  12.029  0.0658  0.0985  0.1939
21863W        W37997   8.168  15.129   2.348  0.2437  0.1361 -0.2844
21864W        W37998   8.717   0.061  14.617  0.0162 -0.2031  0.4490
21865W        W37999  13.072   3.855  12.426  0.0137 -0.0604 -0.1614
21866W        W38000   8.757   3.923   2.475 -0.0279  0.3103 -0.2661
21867W        W38001  17.733   1.372   2.178  0.2839  0.0931  0.1904
21868W        W38002  16.666  17.949   3.282 -0.0673  0.1222  0.0367
21869W        W38003  13.642  12.573  11.180  0.0460 -0.2321  0.0011
21870W        W38004  13.694   0.761   4.708  0.1832 -0.1667  0.0065
21871W        W38005  16.915   6.962   3.087 -0.3148 -0.2425  0.0759
21872W        W38006   2.164  11.656  11.496  0.0990 -0.1534 -0.0967
21873W        W38007  13.679   5.102  13.621 -0.0477 -0.3000  0.1409
21874W        W38008  15.461   2.643   2.290 -0.0840 -0.1688  0.1747
21875W        W38009   9.802  12.230   5.903 -0.2972  0.0655  0.0320
21876W        W38010  17.085   2.641  11.966 -0.4224 -0.5437  0.2691
21877W        W38011  13.420  18.385   1.815  0.1364 -0.0373 -0.2678
21878W        W38012  12.303   4.783   5.379  0.2733 -0.2052  0.0907
21879W        W38013  17.872   2.789  12.872  0.0783 -0.0739  0.0546
21880W        W38014   8.292  13.895   0.866 -0.0679 -0.1548 -0.3307
21881W        W38015   9.546  14.525   0.512  0.1359 -0.0011 -0.0357
21882W        W38016   7.598  10.689   4.939 -0.2474 -0.0658 -0.2288
21883W        W38017   4.268   8.698   2.306 -0.1082  0.2589 -0.1438
21884W        W38018  13.924  13.471   3.203  0.0450 -0.0782 -0.3666
21885W        W38019   9.808   0.109  11.464 -0.3035 -0.0011  0.0971
21886W        W38020  14.062  11.639  12.460 -0.1140  0.3360 -0.1412
21887W        W38021   4.205  10.891  13.721  0.2064 -0.0039 -0.0919
21888W        W38022   3.546  17.064   3.361 -0.0445 -0.3758 -0.1651
21889W        W38023  10.507   1.655   2.197  0.1514  0.0416  0.3632
21890W        W38024  11.247  17.002  14.949  0.2019 -0.1808  0.0346
21891W        W38025   3.294   1.292   4.187  0.4715  0.2135 -0.1318
21892W        W38026  17.874  14.215  12.953  0.3112  0.1251  0.2520
21893W        W38027   3.307  18.200   3.425 -0.0181 -0.3462 -0.2490
21894W        W38028   9.230   5.851   5.131 -0.0235  0.1569  0.0884
21895W        W38029  11.642  17.703  14.250 -0.0204  0.4671  0.0504
21896W        W38030   0.699   4.131   1.767 -0.0027 -0.1033  0.0686
21897W        W38031   0.874   5.532   9.642  0.1098 -0.2663  0.1240
21898W        W38032  14.144  11.249  14.529 -0.4603  0.3076 -0.0498
21899W        W38033  10.616   4.334   5.324  0.2033  0.0330  0.0155
21900W        W38034   8.887   3.251  12.422  0.1285  0.2629 -0.2549
21901W        W38035   7.547   8.045  11.840 -0.2000 -0.1496  0.2047
21902W        W38036  12.274   1.185  13.885 -0.1206 -0.0735 -0.0055
21903W        W38037  14.987   9.162   0.969  0.0225  0.1110  0.0756
21904W        W38038  10.036   9.203   5.030 -0.0237 -0.3035 -0.1110
21905W        W38039   3.658   3.524  10.214 -0.0753  0.0314 -0.2082
21906W        W38040  17.410  14.337  12.782  0.3298  0.0483  0.2640
21907W        W38041   0.426  17.891   3.479 -0.1874  0.0997  0.0121
21908W        W38042   9.481   3.336   1.068 -0.2839 -0.0034  0.0597
21909W        W38043   2.861  13.497  10.366  0.0929  0.3002  0.1161
21910W        W38044   8.255   7.938  14.944 -0.0537  0.0447  0.1716
21911W        W38045   4.045  18.036   1.033 -0.0756 -0.2010 -0.2275
21912W        W38046  10.784   0.034  14.553 -0.1489  0.0509 -0.0390
21913W        W38047  12.338   5.152   4.910  0.3656  0.0486 -0.0477
21914W        W38048   1.907  12.971  15.149 -0.2598 -0.1194 -0.1421
21915W        W38049   9.462   9.826  10.800  0.0222 -0.0381  0.0006
21916W        W38050  16.929  17.480   3.082 -0.2669 -0.0842 -0.0334
21917W        W38051   6.170   8.149   5.635 -0.1653  0.1066 -0.3378
21918W        W38052  12.525   0.585  11.038  0.3952 -0.0699  0.4098
21919W        W38053   9.586   1.728  14.056 -0.2555 -0.0535 -0.1892
21920W        W38054  12.465   7.876   5.651  0.1326  0.0305  0.0550
21921W        W38055   2.483   0.780  10.424  0.1418 -0.1240 -0.0843
21922W        W38056   6.905   3.618  11.596 -0.0800  0.3178  0.0130
21923W        W38057   2.040   8.198  12.281 -0.1600 -0.2890 -0.5329
21924W        W38058  12.259   6.666  14.922 -0.3614  0.0920  0.0565
21925W        W38059   1.433  15.074   3.595 -0.2762  0.2339 -0.1148
21926W        W38060   4.103  13.585  12.276 -0.3129 -0.0720  0.2771
21927W        W38061  16.669   3.807   0.083 -0.0625  0.1483 -0.1489
21928W        W38062  14.429  13.441  13.550  0.5141  0.1551 -0.2942
21929W        W38063  14.334  16.789  15.218 -0.1805 -0.1180 -0.1141
21930W        W38064   6.191  15.049  11.823  0.3030 -0.0001  0.2832
21931W        W38065   2.810  13.665  12.138 -0.0878 -0.0929 -0.2277
21932W        W38066  12.273   9.069   5.046 -0.0408 -0.2980 -0.4600
21933W        W38067   5.547   3.871  15.607  0.1058  0.0003 -0.2716
21934W        W38068   8.077   7.153  11.766  0.1834 -0.3625  0.1000
21935W        W38069   5.773  10.287  14.493  0.2242 -0.0263 -0.1786
21936W        W38070  16.449  15.185  15.545 -0.1123  0.4780  0.0383
21937W        W38071   2.657  17.028   4.895  0.3598  0.0985  0.3723
21938W        W38072  11.636  13.088   0.260 -0.1639  0.2457 -0.3249
21939W        W38073  12.325  16.075   0.905  0.0473 -0.3146 -0.0918
21940W        W38074   1.645   1.574   0.252  0.0080  0.3325  0.0410
21941W        W38075   6.770  13.604  14.895  0.1431  0.2008 -0.2627
21942W        W38076  13.475   1.171   2.615  0.1603 -0.1974  0.0622
21943W        W38077  15.224  16.191   5.412 -0.0451  0.2399  0.0428
21944W        W38078   4.522  11.356   2.537  0.1277  0.1500  0.1437
21945W        W38079  16.782  16.741   4.876  0.0038  0.0478 -0.4171
21946W        W38080  11.543   0.534   3.555 -0.3891 -0.1465  0.0623
21947W        W38081   5.807   8.874   2.682 -0.3063  0.1694  0.0084
21948W        W38082   2.734  17.633  11.729 -0.1143  0.1467 -0.1375
21949W        W38083  13.545   4.929  14.055  0.5317  0.2028 -0.2111
21950W        W38084   8.067   3.419   3.029 -0.0360 -0.0217  0.3044
21951W        W38085   8.418   5.279   1.902 -0.1028  0.0406  0.0919
21952W        W38086  10.598  13.383  12.589 -0.1795  0.1245 -0.0019
21953W        W38087   4.398   7.367  11.105  0.0512 -0.0560 -0.0746
21954W        W38088   7.762   4.045   4.935  0.2007  0.0755 -0.1677
21955W        W38089  13.948  11.459   4.816 -0.1406 -0.2612  0.2243
21956W        W38090   8.620   7.486   3.433 -0.1172 -0.1611 -0.1050
21957W        W38091  16.769  15.925  11.211  0.0751  0.2578  0.1572
21958W        W38092  13.695  15.564  13.854  0.0933  0.0629  0.1934
21959W        W38093   0.567   9.656   0.861  0.1547  0.0571  0.0587
21960W        W38094  16.931  16.505   3.094  0.2302  0.2214 -0.1214
21961W        W38095   6.174   5.288  14.308 -0.1333 -0.0074 -0.2431
21962W        W38096   8.210  18.315  14.774 -0.0228  0.0846  0.2907
21963W        W38097   8.594  10.014  14.754 -0.4817 -0.1523 -0.0401
21964W        W38098   8.425   5.104   5.264  0.4712  0.1619  0.1678
21965W        W38099  14.347  13.610   5.453  0.4242  0.2757  0.1840
21966W        W38100   6.265  17.741   4.843  0.0352 -0.0837  0.1283
21967W        W38101  17.710   1.328   2.682  0.1059 -0.1271  0.0961
21968W        W38102  16.208   8.088  11.400 -0.0216 -0.1663 -0.1318
21969W        W38103  13.543   0.895   5.189 -0.4810  0.1505 -0.1467
21970W        W38104   0.127   5.527  14.562  0.2647  0.1603  0.0377
21971W        W38105  15.221  17.708  10.872 -0.1194  0.1265 -0.0334
21972W        W38106  14.081  17.145  11.742  0.0289  0.2199 -0.0332
21973W        W38107  15.304   6.534   1.259  0.0148  0.1264  0.0939
21974W        W38108   0.058   6.459  14.421  0.1498 -0.0306  0.2709
21975W        W38109  13.112   4.942   1.266 -0.1323  0.2391  0.0636
21976W        W38110   6.411   6.318   4.028  0.1893 -0.0361 -0.1904
21977W        W38111  18.139   7.727  10.307 -0.0452 -0.0814  0.3806
21978W        W38112   2.218  16.331   0.198 -0.0985 -0.2684  0.1413
21979W        W38113   4.624  13.677   1.470 -0.0273 -0.2283  0.0341
21980W        W38114  10.446   6.690   1.694  0.0558 -0.1857  0.2156
21981W        W38115  14.420  12.867   1.038 -0.1222  0.0645  0.1957
21982W        W38116   9.071   6.523   1.223  0.2900  0.0154 -0.1179
21983W        W38117   0.809   2.089  12.475  0.2768 -0.2253 -0.0476
21984W        W38118   0.604   2.438  15.562 -0.0772  0.0186 -0.1314
21985W        W38119   8.448   3.808   5.727 -0.1499 -0.3688 -0.1140
21986W        W38120  12.665  10.090   4.627  0.3990 -0.0436  0.1548
21987W        W38121   2.270  12.545  11.317 -0.2192 -0.3028 -0.3030
21988W        W38122  16.442  15.287  14.184  0.3379 -0.0315  0.1436
21989W        W38123  15.576  14.669  10.318  0.0715  0.1198 -0.1108
21990W        W38124  17.330   0.407   6.174 -0.0571  0.1696 -0.1362
21991W        W38125   2.694   4.477  11.953 -0.2018  0.0016  0.2421
21992W        W38126   0.962   0.640   5.192 -0.2503 -0.0958 -0.0468
21993W        W38127   3.844   4.172   1.756 -0.0457  0.1115  0.2870
21994W        W38128  15.376   4.298   0.916  0.1457 -0.1166  0.3876
21995W        W38129  12.036   5.367   5.329 -0.0038 -0.3378 -0.0312
21996W        W38130  12.293  15.913  15.800 -0.0546 -0.0681 -0.1013
21997W        W38131  16.388   8.557  11.342 -0.0582 -0.0015  0.1199
21998W        W38132   2.966   1.585   4.754  0.0674  0.1858 -0.2186
21999W        W38133   9.405  15.965   4.010  0.1307 -0.0082 -0.3202
22000W        W38134  11.828  15.093   2.740  0.0503  0.1261 -0.0208
22001W        W38135  15.094   7.038   4.836 -0.0077  0.0530  0.0891
22002W        W38136   2.216   4.835  13.828 -0.1473  0.1906  0.1337
22003W        W38137  18.047  10.083   2.446  0.1496  0.0018  0.0435
22004W        W38138  13.949   5.249  14.056 -0.3077 -0.1395 -0.2229
22005W        W38139   5.731   6.685   2.785 -0.1773  0.1752 -0.1242
22006W        W38140   4.768   9.969  13.507 -0.1306 -0.1619 -0.0958
22007W        W38141   9.586  13.891   3.556  0.2641 -0.5092 -0.0168
22008W        W38142   8.384  16.662  15.598 -0.0867  0.2730  0.0195
22009W        W38143   3.497   2.227   2.811 -0.1788 -0.1896  0.1030
22010W        W38144  15.370  10.117   0.755  0.2756 -0.2450  0.3264
22011W        W38145   2.100   9.358  11.652  0.0365  0.0758  0.2631
22012W        W38146   4.758  15.816  14.842  0.3842 -0.0215  0.3650
22013W        W38147   1.241  17.362   2.112  0.2346  0.0723  0.0347
22014W        W38148  11.119  10.391   2.226 -0.2147  0.1045 -0.2828
22015W        W38149  12.821  11.487   1.792 -0.0106 -0.0712  0.1499
22016W        W38150   7.825   7.489  13.933 -0.1123  0.2237  0.2274
22017W        W38151  13.579   4.667   3.675  0.0595  0.0775  0.1393
22018W        W38152  18.269  14.683   0.104 -0.2170 -0.2096  0.1647
22019W        W38153   7.465   9.469  15.810 -0.1601 -0.3917 -0.0816
22020W        W38154   1.835  17.975   0.760 -0.0407  0.0476 -0.4001
22021W        W38155  13.525  17.150  10.056  0.0413  0.0028 -0.0037
22022W        W38156  11.332  10.336  14.942  0.4317  0.1852 -0.2132
22023W        W38157  10.214  13.880   0.225 -0.0614 -0.0779 -0.0185
22024W        W38158   7.685  16.994   1.841 -0.2495 -0.1924  0.1656
22025W        W38159   2.075  16.328  10.919  0.1285 -0.1385 -0.0492
22026W        W38160   8.790   4.199  12.863 -0.0769  0.0826  0.0102
22027W        W38161  11.251  11.963   4.526 -0.0556  0.1796  0.1799
22028W        W38162   4.208   4.902   0.768  0.0722  0.0912  0.2049
22029W        W38163   2.537  12.254   5.477 -0.0617  0.0709 -0.4449
22030W        W38164  12.654   0.601   3.776  0.1599  0.0043 -0.0970
22031W        W38165   0.921   9.624  12.790  0.1846 -0.3603 -0.1623
22032W        W38166   2.613  10.925   4.926 -0.1775 -0.1003 -0.0909
22033W        W38167  17.647  13.540   4.424  0.2054  0.3975 -0.1237
22034W        W38168  12.813  14.677  15.909 -0.2003  0.2823 -0.1706
22035W        W38169  15.942  11.024  10.988 -0.1924  0.2067  0.3040
22036W        W38170   1.384  11.924   2.866  0.2329  0.0648 -0.0775
22037W        W38171   2.532   3.048  13.702  0.2482  0.0411 -0.0103
22038W        W38172  16.393   0.071  14.168 -0.2288  0.0301 -0.0270
22039W        W38173  12.730   7.186   4.539  0.0021 -0.0890  0.3539
22040W        W38174   9.733   7.787  13.173  0.2339  0.2208  0.0392
22041W        W38175   9.164  18.328  14.826 -0.0857 -0.0618  0.2187
22042W        W38176   3.602   9.994   4.333  0.0837  0.2518  0.0542
22043W        W38177  11.234   5.358  15.470  0.0341 -0.1227 -0.0844
22044W        W38178  13.205   4.538  11.815 -0.0808 -0.1696  0.0248
22045W        W38179  11.767  14.774  11.303  0.1774 -0.0015  0.0731
22046W        W38180  12.923  12.101   3.013  0.0646 -0.0077 -0.0219
22047W        W38181  11.665   1.860  14.134  0.0956 -0.1035 -0.0381
22048W        W38182  11.854   1.419  14.848  0.0674 -0.0391  0.0669
22049W        W38183   3.120   0.774  11.247 -0.0468 -0.0439  0.0243
22050W        W38184   5.010   9.101   3.721 -0.0336  0.0318 -0.0947
22051W        W38185  14.620   1.404  14.132  0.0531  0.0956 -0.0725
22052W        W38186   0.870   4.334   0.907  0.2043  0.2883 -0.4643
22053W        W38187   6.257   2.790  13.498  0.0578 -0.1332 -0.1171
22054W        W38188  15.686  13.991   1.644  0.3049  0.1420  0.1638
22055W        W38189   4.632  12.332   0.574  0.0365 -0.1330 -0.4055
22056W        W38190   4.437  17.810   3.918  0.0569  0.0578 -0.3752
22057W        W38191  17.957   6.230   1.983 -0.0274 -0.2552 -0.1042
22058W        W38192   9.192   6.934   0.465 -0.0490  0.0388  0.1349
22059W        W38193  12.341  12.127  11.237  0.2007 -0.3811  0.2744
22060W        W38194   3.186  14.466  12.495  0.0385 -0.2368 -0.3450
22061W        W38195  12.716   4.108  15.455  0.0382  0.0932 -0.1288
22062W        W38196   6.063   8.830  14.539  0.1715 -0.1680  0.1178
22063W        W38197   2.988  12.767   0.465  0.1951  0.1904 -0.2828
22064W        W38198  16.110  13.083   4.111 -0.2856 -0.0471  0.0279
22065W        W38199   2.928  13.678  14.758 -0.3856  0.1567  0.1133
22066W        W38200   7.943  11.297   1.127 -0.3908 -0.0267  0.1868
22067W        W38201   4.012  12.325  13.412 -0.0958 -0.1009  0.2136
22068W        W38202   2.611   8.667  14.377 -0.2208 -0.0303  0.2207
22069W        W38203   8.821   8.831   4.946  0.1069 -0.1290 -0.3332
22070W        W38204  17.746   2.895   1.372  0.0665 -0.2044  0.1321
22071W        W38205   3.420  10.193  15.839  0.1293 -0.0575 -0.1607
22072W        W38206   9.714   7.317   5.439  0.1728 -0.0857 -0.0012
22073W        W38207   0.496  11.630   4.683 -0.1932 -0.1879  0.2533
22074W        W38208  16.262   3.118   4.910  0.1921  0.1658 -0.1356
22075W        W38209  11.172  18.104   2.883 -0.1426 -0.1657 -0.3176
22076W        W38210   7.574   6.276  14.646  0.1116 -0.3474  0.2195
22077W        W38211  12.541  17.735  12.564 -0.0484 -0.1145  0.1488
22078W        W38212   0.676  17.714  12.517 -0.0616  0.3513 -0.1333
22079W        W38213  11.223   1.724   5.188  0.1998  0.0835 -0.2701
22080W        W38214   0.567   7.144   1.500  0.2660 -0.0368 -0.1022
22081W        W38215  12.776   2.641   2.763 -0.0544 -0.2351 -0.0094
22082W        W38216   2.482  14.730   5.027 -0.1605 -0.0584 -0.0300
22083W        W38217  16.540  10.118  11.176 -0.0332 -0.1680 -0.0242
22084W        W38218   6.894  13.104  12.157 -0.0252  0.1103 -0.3408
22085W        W38219  14.024   3.613   4.418  0.2065 -0.1261  0.1264
22086W        W38220   7.198   3.204   3.275 -0.0281 -0.2073 -0.0581
22087W        W38221  12.729  14.905  14.789  0.2485 -0.1058  0.1407
22088W        W38222  12.480   5.959   4.686 -0.2445 -0.1239  0.2402
22089W        W38223  13.820  13.088  15.446  0.0788 -0.1014 -0.0815
22090W        W38224  13.318  16.623   5.579  0.0576  0.1260  0.1533
22091W        W38225   9.374   4.317  13.770 -0.4146  0.3164  0.0163
22092W        W38226   3.568   2.522   2.307  0.0124  0.2506 -0.1793
22093W        W38227   7.827   9.798   4.374 -0.2458  0.0422  0.1445
22094W        W38228   5.394  15.096  11.083 -0.0529 -0.2138  0.0367
22095W        W38229   0.564  14.438   3.528  0.1252  0.0140 -0.2687
22096W        W38230   5.894  15.432   5.464  0.0148 -0.1812  0.1509
22097W        W38231   4.825   2.604   6.034 -0.1115  0.0182 -0.1064
22098W        W38232  16.439   1.849   1.169  0.1711 -0.0827 -0.0289
22099W        W38233  18.136   9.741  10.599  0.2344 -0.1273  0.2252
22100W        W38234   7.387   8.558   2.997  0.0615  0.1024 -0.1899
22101W        W38235  15.086   0.475   5.361 -0.1945  0.2271 -0.1447
22102W        W38236   9.661   1.050  14.425 -0.1693 -0.0615 -0.0832
22103W        W38237   5.154  13.163  11.104  0.0830  0.1983 -0.2286
22104W        W38238   0.179  13.559  15.108 -0.0593  0.1315 -0.1792
22105W        W38239   2.992  14.554   4.260  0.1335 -0.0811 -0.1921
22106W        W38240  13.183   2.469   3.817 -0.2081 -0.0866  0.1727
22107W        W38241  17.620  17.936   5.060 -0.2801  0.1753  0.2648
22108W        W38242   4.481   1.377  12.051  0.1798 -0.0222  0.1250
22109W        W38243  10.097   0.802  14.345  0.1388  0.1231  0.1343
22110W        W38244   6.250   8.315   0.000  0.1578  0.2617 -0.2165
22111W        W38245   9.178   4.401   5.178  0.2665 -0.0986  0.1042
22112W        W38246  14.679  15.583   0.686 -0.1497  0.2756 -0.0905
22113W        W38247  10.042   6.815   3.160 -0.0427  0.1681  0.1707
22114W        W38248   9.248   0.964   4.357 -0.2468 -0.3258  0.0123
22115W        W38249  14.953  11.818   3.173  0.1673  0.0969 -0.0405
22116W        W38250  10.102  16.212   0.460  0.1827 -0.2218 -0.0838
22117W        W38251   0.692  18.456  15.240 -0.0788  0.0423  0.0173
22118W        W38252   2.763   6.953   0.036 -0.0130  0.4912  0.0784
22119W        W38253  16.389  14.201   0.303 -0.0885 -0.0547  0.3101
22120W        W38254   7.015   1.611   5.568  0.2146  0.0247 -0.1104
22121W        W38255  18.441   1.282   0.970  0.0627  0.0014 -0.4455
22122W        W38256  15.776   3.976  12.621 -0.0768  0.0091 -0.1563
22123W        W38257   6.990   3.073   1.554 -0.2098 -0.1480  0.2105
22124W        W38258  12.562  11.858   1.510 -0.3385  0.3693  0.2378
22125W        W38259   1.190   5.121  13.653 -0.1770  0.2017 -0.5663
22126W        W38260   8.730  15.187  15.643 -0.3212 -0.1411 -0.4986
22127W        W38261   0.401  13.465  13.101 -0.1458 -0.0360  0.1469
22128W        W38262  14.853  13.843  11.339 -0.2028  0.2318 -0.0354
22129W        W38263   8.770  18.210   4.866 -0.0109 -0.3302 -0.1505
22130W        W38264   5.842  16.302   5.193  0.0633  0.0093 -0.0908
22131W        W38265  18.232   7.960  13.340 -0.1727  0.1483 -0.1743
22132W        W38266   3.520  18.193  11.547  0.3115  0.0039 -0.2145
22133W        W38267  10.838  12.677  11.497  0.1393  0.0944  0.2441
22134W        W38268  14.720   9.335   0.351 -0.0194 -0.1302 -0.3854
22135W        W38269   8.216  13.409   0.723  0.2935  0.1833  0.0475
22136W        W38270   7.061   9.890   4.165  0.3707 -0.1457 -0.2893
22137W        W38271  10.195  17.645   5.769  0.2122 -0.0216 -0.2417
22138W        W38272   9.420   1.954  11.830 -0.3353 -0.2201  0.1694
22139W        W38273   7.565  12.352   5.556  0.1361 -0.1050  0.1628
22140W        W38274   0.639   7.052  14.219  0.1602 -0.1297 -0.3845
22141W        W38275  12.338   6.143  14.401 -0.2998  0.1144  0.1401
22142W        W38276  12.317  17.621  11.667  0.0385  0.2841  0.0060
22143W        W38277   1.610   0.425   3.325  0.0339  0.0814 -0.1488
22144W        W38278  16.058  12.630  13.984  0.2545 -0.0330 -0.2083
22145W        W38279  16.369  13.159   0.260 -0.0582  0.2057  0.0742
22146W        W38280  16.261  10.606   5.066  0.0207 -0.1003  0.0762
22147W        W38281  17.354  13.198  11.807 -0.0610 -0.0686 -0.0358
22148W        W38282   2.109   8.729  13.595  0.0108 -0.1194  0.0552
22149W        W38283  17.596   2.398  12.685  0.1782 -0.2719  0.1508
22150W        W38284   8.609   3.987  10.815 -0.1681 -0.1124 -0.2581
22151W        W38285   6.919  14.530  11.308  0.0061 -0.0044 -0.0641
22152W        W38286   1.442  17.939  15.759 -0.2104  0.1911 -0.1195
22153W        W38287  15.162   2.938  13.357  0.0369 -0.0234  0.1143
22154W        W38288   3.783   3.700  13.566 -0.0730  0.2261  0.0243
22155W        W38289   3.428   4.779   0.999 -0.1922 -0.1019  0.1547
22156W        W38290   0.881   6.208   1.877 -0.1290  0.0588  0.1075
22157W        W38291  17.379  13.327   2.007  0.1712  0.0683  0.2494
22158W        W38292  12.208   1.310   4.186  0.1029  0.1284  0.1282
22159W        W38293   0.573  17.193  12.329 -0.1784 -0.2905  0.1265
22160W        W38294  17.378   8.744   1.775 -0.0598  0.0621  0.1331
22161W        W38295  11.359  11.288   2.552  0.0277  0.1473  0.1747
22162W        W38296   3.187  11.843   2.106 -0.0831  0.2306  0.0412
22163W        W38297  18.379  13.241   1.590 -0.0451 -0.1739 -0.2057
22164W        W38298   9.121  16.672   2.308 -0.1683 -0.1381  0.3470
22165W        W38299   1.936  14.372  14.431 -0.0585  0.0963  0.0728
22166W        W38300  10.023  13.114   3.988 -0.1121  0.1428  0.0386
22167W        W38301  17.522   6.223  12.848  0.1700 -0.1686 -0.0150
22168W        W38302   8.753  13.948  13.243 -0.2383  0.2657 -0.0028
22169W        W38303  10.484   5.469  15.510 -0.0083 -0.0298 -0.0210
22170W        W38304   2.291  17.527   4.178 -0.0610 -0.2170 -0.1537
22171W        W38305  15.665  13.557   1.757 -0.2144 -0.2500 -0.0653
22172W        W38306  10.737  13.726   4.601 -0.2427 -0.0435  0.0698
22173W        W38307   4.162   3.881   1.044 -0.0648 -0.1648  0.0810
22174W        W38308  11.984   5.790  12.060  0.1127 -0.0196  0.1863
22175W        W38309   9.528  14.081   1.744 -0.1839  0.0963  0.3173
22176W        W38310   3.724   6.816  10.862 -0.0800  0.0990 -0.0831
22177W        W38311   5.237  17.485   3.022  0.0935  0.0622 -0.0964
22178W        W38312   4.420   2.638   2.502  0.3082 -0.0553 -0.1767
22179W        W38313   7.089   0.207   0.830 -0.3254  0.0904  0.0480
22180W        W38314  10.947   5.333   4.223  0.2084 -0.0579  0.0972
22181W        W38315  17.790  13.640  12.915  0.0306 -0.1214 -0.1795
22182W        W38316   7.022   9.910   2.392 -0.0062  0.1307 -0.2400
22183W        W38317   6.140  13.892   3.059  0.1304  0.0831  0.0005
22184W        W38318   9.897  13.423   2.495 -0.0433 -0.2653  0.0890
22185W        W38319   0.572   8.143   0.887 -0.1410  0.0713  0.2024
22186W        W38320  13.077  13.823  15.531  0.1682  0.1410  0.2855
22187W        W38321   6.099  12.766  14.790  0.1326 -0.1426  0.1825
22188W        W38322   2.823  15.002   2.390  0.1182  0.0236  0.2476
22189W        W38323   6.191  12.947  13.479 -0.0409  0.3485 -0.3358
22190W        W38324  15.801   7.210  12.098 -0.0508  0.1326 -0.0977
22191W        W38325   9.006  10.668  12.857 -0.5036 -0.1109 -0.1320
22192W        W38326  11.770  13.040  15.218  0.1907 -0.1222  0.0768
22193W        W38327  11.905   0.871   0.374  0.1929  0.0332  0.2933
22194W        W38328  16.938   2.504  15.221 -0.0334 -0.2369 -0.0471
22195W        W38329   4.223   9.141   0.587 -0.0597  0.1221  0.1993
22196W        W38330   0.326   9.405   2.261 -0.3430  0.1212  0.0771
22197W        W38331   5.997  16.555   0.578 -0.1160 -0.2312  0.0372
22198W        W38332  16.332  18.140  12.784 -0.1317  0.0856  0.1372
22199W        W38333  11.086  11.192  15.589  0.0115  0.0218 -0.0399
22200W        W38334   3.901  11.718   4.316 -0.1319  0.0970  0.1871
22201W        W38335  18.401  14.439   2.452  0.0606 -0.0755  0.0523
22202W        W38336  10.799   8.948   6.119  0.3090  0.0187  0.0800
22203W        W38337   7.135  11.910  12.644  0.1715 -0.0687  0.0756
22204W        W38338   2.315  10.921   4.450  0.1252  0.0408 -0.0471
22205W        W38339   4.695   6.391   5.021 -0.2152  0.1985  0.1179
22206W        W38340   4.155   8.522  13.460 -0.3112 -0.4056  0.1674
22207W        W38341  15.859  10.375  11.487  0.3526  0.2071 -0.0534
22208W        W38342  14.327  13.623  11.047 -0.0790 -0.0715 -0.3576
22209W        W38343  15.978   5.237  10.975  0.1645  0.0153  0.0009
22210W        W38344  16.990  18.402   5.629  0.0865  0.0515  0.0634
22211W        W38345  16.384   1.044  12.030  0.1442 -0.3389 -0.2039
22212W        W38346   9.278  13.806  14.411  0.0747  0.3231 -0.0396
22213W        W38347   5.948   6.239   4.181 -0.1728  0.2235  0.0528
22214W        W38348   9.195  11.858  11.152 -0.0765  0.2718 -0.1488
22215W        W38349   9.091  14.330   0.771 -0.1950  0.1002 -0.0615
22216W        W38350  18.427  13.738   1.689  0.1506 -0.2047 -0.2593
22217W        W38351  17.726   1.740   0.729 -0.0252  0.1468 -0.1060
22218W        W38352   5.581   2.968   4.844  0.2737  0.2026  0.0407
22219W        W38353   9.215   5.056  13.367 -0.1415 -0.0822 -0.2699
22220W        W38354   7.680   6.647  14.966 -0.2268 -0.2529  0.0887
22221W        W38355   0.638   3.060  14.736 -0.1157  0.2047 -0.3047
22222W        W38356  12.436   5.649  11.204 -0.1320  0.0169 -0.1432
22223W        W38357   4.005   1.618   1.423 -0.0433 -0.0087 -0.0930
22224W        W38358   6.804  14.152  12.092 -0.1595  0.2254  0.2371
22225W        W38359   2.392  13.486  11.612 -0.2121 -0.1121 -0.1636
22226W        W38360   3.393   5.371  13.900  0.1586 -0.0357 -0.2335
22227W        W38361   2.427   6.121  15.667  0.0173 -0.2638 -0.1575
22228W        W38362   0.448   8.904   5.651  0.2912  0.0193  0.0575
22229W        W38363  11.620   6.565  13.893 -0.0812 -0.1359  0.1396
22230W        W38364  10.958   9.064  13.411  0.1464 -0.2327  0.0211
22231W        W38365  13.824  14.334  11.316 -0.1461 -0.1681  0.3352
22232W        W38366   1.611  15.317  14.948 -0.1735 -0.0875 -0.1589
22233W        W38367  15.686  15.505   0.945  0.2644 -0.1085  0.2663
22234W        W38368  15.472  15.256  11.307  0.0908  0.0608  0.0752
22235W        W38369   2.920   4.896   1.357 -0.1743  0.0447 -0.1119
22236W        W38370  16.545   4.905  13.274 -0.2711 -0.2752  0.2338
22237W        W38371  12.410  17.499  15.207 -0.0465  0.1764  0.1300
22238W        W38372   1.545  14.382  12.986  0.4426  0.0137  0.2423
22239W        W38373   1.370  12.857   3.248 -0.1923 -0.1050 -0.1366
22240W        W38374  12.609  10.212   1.046  0.0721  0.2952 -0.0002
22241W        W38375  14.346  12.622   3.082 -0.1389 -0.1034 -0.1263
22242W        W38376  17.445  10.868   2.567 -0.1229 -0.0152 -0.3323
22243W        W38377  15.990  12.203   4.171 -0.1706 -0.3596  0.0323
22244W        W38378  17.579   7.200  13.288  0.0726  0.1015 -0.1378
22245W        W38379   4.899   6.565   2.705  0.3056  0.0535  0.0081
22246W        W38380  13.089   3.879  13.420 -0.0283 -0.0666 -0.0724
22247W        W38381   1.475   9.156   0.294 -0.0759  0.0128  0.1307
22248W        W38382   7.854   5.469  14.439 -0.1098 -0.0485  0.1003
22249W        W38383  14.074  17.248   0.973  0.2560 -0.0463 -0.1343
22250W        W38384   9.929  11.494  12.601 -0.1130  0.1016 -0.2458
22251W        W38385   6.739  14.012  13.643  0.3689  0.3967 -0.0275
22252W        W38386  15.876  13.090   3.602 -0.2554 -0.2029 -0.3993
22253W        W38387   4.234  16.407  11.319 -0.3988 -0.0287  0.0730
22254W        W38388  12.101  11.690  11.138 -0.1303 -0.4048  0.0501
22255W        W38389   9.357   7.311   0.833 -0.2226  0.0075  0.1474
22256W        W38390   3.728   0.383   1.582  0.0292  0.2091 -0.1503
22257W        W38391  12.221  15.715   1.286 -0.3697 -0.1898  0.1432
22258W        W38392   3.914  11.008  13.015 -0.0034 -0.1782 -0.2125
22259W        W38393   1.336  15.298   4.739  0.1980  0.1827 -0.0435
22260W        W38394   3.605   2.861   1.481 -0.0297 -0.0808 -0.0030
22261W        W38395   2.250  10.439   0.738  0.1308 -0.2999  0.1033
22262W        W38396   8.928  12.863   1.719 -0.0008 -0.0951  0.0300
22263W        W38397   9.819   7.826   2.987 -0.2201  0.1293 -0.0561
22264W        W38398  17.787  16.671  13.180  0.2810  0.3522 -0.1239
22265W        W38399   6.046   5.392   1.400 -0.0145 -0.1442 -0.2135
22266W        W38400   6.044  17.692   2.338 -0.1339 -0.1155 -0.0419
22267W        W38401   5.455  17.286  11.396 -0.2536  0.1271  0.0044
22268W        W38402  16.624   6.636  11.667 -0.0737 -0.2240 -0.0293
22269W        W38403  12.183  12.232  15.489 -0.1581 -0.0128  0.2393
22270W        W38404   6.412  18.418   4.732 -0.3376  0.0023 -0.2086
22271W        W38405   7.462  14.653   4.217 -0.0966  0.0373  0.0408
22272W        W38406  18.073  12.952   5.167 -0.0266  0.3931 -0.1549
22273W        W38407  17.519   4.092   5.461  0.1792 -0.0625 -0.0471
22274W        W38408   2.957  15.075   4.352 -0.2138  0.1274 -0.0395
22275W        W38409  11.486   8.404   2.613  0.0427 -0.2812 -0.2126
22276W        W38410   1.346  16.474   5.207 -0.2537 -0.2100 -0.0685
22277W        W38411  13.430  10.041  11.292  0.1127  0.2751 -0.2381
22278W        W38412   8.843   3.659   4.668  0.2006  0.1341 -0.2160
22279W        W38413  17.528   0.351   1.926 -0.0474  0.2261 -0.1139
22280W        W38414  17.997   3.808  12.865  0.1624 -0.1479  0.2400
22281W        W38415   4.865   9.849  13.024  0.1366  0.2692 -0.0617
22282W        W38416   9.512  16.021  11.374 -0.2264 -0.0329  0.1372
22283W        W38417  13.712  14.700  14.909 -0.1054  0.0696  0.1632
22284W        W38418   4.966   2.894  14.759 -0.1503 -0.1982  0.0975
22285W        W38419  13.870   4.910   1.383 -0.3867 -0.2777 -0.0831
22286W        W38420   9.756  12.867  11.628  0.2092 -0.0228  0.1935
22287W        W38421   8.596   0.538  11.955  0.3166 -0.2373 -0.3426
22288W        W38422   1.152   2.928   4.937 -0.0633  0.1224  0.1096
22289W        W38423  10.985   2.331  15.895  0.1858  0.0780  0.0246
22290W        W38424   3.362   6.173   1.198 -0.0411 -0.0215 -0.1314
22291W        W38425   7.063   4.327  15.200 -0.1135  0.0073 -0.0052
22292W        W38426   6.443  11.531   0.111 -0.2191 -0.2310  0.2348
22293W        W38427  11.494   9.728  14.154 -0.2613  0.0814 -0.1131
22294W        W38428  10.027   2.601  12.776 -0.1742  0.4441  0.1466
22295W        W38429   8.461  14.225   2.348 -0.3435  0.2537  0.2158
22296W        W38430  17.314   7.593  13.027 -0.1122  0.0599  0.0181
22297W        W38431   0.041  16.498  13.585  0.0975 -0.2490 -0.0120
22298W        W38432  10.563  18.144   4.519 -0.2723 -0.0083  0.1817
22299W        W38433   1.298  11.551   1.830  0.1307 -0.1664 -0.2351
22300W        W38434  10.297   6.973   4.089 -0.1786 -0.3189 -0.1616
22301W        W38435  15.237  16.110  14.297  0.4671 -0.1779  0.0179
22302W        W38436   8.539  13.504  15.543  0.1206 -0.2951  0.0978
22303W        W38437  15.838   4.906   0.279  0.1242  0.2923 -0.0903
22304W        W38438   3.261  11.993  14.883  0.0283 -0.0191  0.0677
22305W        W38439   2.157   8.718   2.555  0.1661  0.3153 -0.1611
22306W        W38440  14.705   3.430  11.534 -0.1365  0.0767 -0.1787
22307W        W38441   5.260  11.850   5.004  0.0767 -0.1681  0.0209
22308W        W38442   9.970   7.539   1.290 -0.0305 -0.0130  0.1104
22309W        W38443  17.462  10.423  10.710 -0.1237  0.2382  0.0408
22310W        W38444   1.563  11.140   4.774  0.1737 -0.0535  0.2062
22311W        W38445  16.742  14.238  14.046  0.1689  0.1021  0.0686
22312W        W38446   7.057  14.632  15.838  0.0797  0.0212 -0.0661
22313W        W38447   9.800  11.525   4.891  0.1655 -0.1605 -0.0499
22314W        W38448   7.172  14.814  15.374 -0.1179  0.0957 -0.0969
22315W        W38449  13.769  18.452  12.481  0.3302 -0.3234  0.2422
22316W        W38450  16.343   8.007   1.220 -0.1338  0.0438 -0.2330
22317W        W38451  14.339   5.037   3.718  0.0383 -0.2370 -0.2134
22318W        W38452   4.419  12.985   2.944  0.1184 -0.0136  0.1469
22319W        W38453   5.239   7.963  14.950  0.1284 -0.1118  0.0243
22320W        W38454   9.430  17.007  11.659  0.2502 -0.0470 -0.1946
22321W        W38455   9.872   1.918  11.562 -0.0497 -0.2839 -0.1931
22322W        W38456  14.829  10.661  12.873  0.0409  0.1184 -0.1289
22323W        W38457   8.177  15.234  11.817  0.3500  0.1591  0.0982
22324W        W38458   4.421   1.458   0.693 -0.0387  0.1817  0.0140
22325W        W38459  15.120  11.997  14.914  0.1860 -0.1581  0.1618
22326W        W38460  14.337   9.242  15.223  0.0057 -0.0540 -0.0657
22327W        W38461  13.799   2.213  12.185 -0.1589  0.0866 -0.0498
22328W        W38462   7.964  14.677  14.143  0.0765  0.0714  0.0726
22329W        W38463  16.532   4.188   5.484  0.0142  0.0458  0.1385
22330W        W38464   6.272  12.217  11.071 -0.0071 -0.1051 -0.0330
22331W        W38465   9.799   5.054   1.209 -0.1760 -0.1252  0.0865
22332W        W38466  10.466  17.632  12.504 -0.5061  0.1310 -0.1253
22333W        W38467   2.164   5.517   1.993  0.1073  0.1770 -0.0903
22334W        W38468  13.728   0.018   2.179 -0.2195 -0.2567  0.1953
22335W        W38469   6.778  13.012  14.353  0.0529 -0.0362  0.1013
22336W        W38470   5.834   5.347  13.912  0.1087  0.0554  0.1168
22337W        W38471  15.748   9.443   0.391 -0.1225  0.0316  0.2675
22338W        W38472   3.138   0.609   0.722 -0.0506  0.2199 -0.1281
22339W        W38473  15.230  17.119   2.333  0.0273  0.1423 -0.1225
22340W        W38474   2.434   8.997   3.489  0.1147  0.1470 -0.1449
22341W        W38475   5.210   6.145  12.466  0.1197 -0.0035 -0.1422
22342W        W38476  13.415   8.675  11.402 -0.2080 -0.0190  0.0933
22343W        W38477   9.708  16.651  15.141  0.0376  0.0739 -0.0401
22344W        W38478   9.540  16.968  12.260 -0.0272  0.1444  0.2336
22345W        W38479   4.519   4.622   3.117 -0.0283  0.0228 -0.0036
22346W        W38480  15.462  15.107   0.688  0.0737  0.0789  0.0810
22347W        W38481  12.415   2.208  15.684 -0.1784  0.3088  0.1635
22348W        W38482   3.740  10.328   3.354 -0.0683  0.1222  0.1244
22349W        W38483  15.318   7.701   5.627 -0.3168  0.3576  0.0668
22350W        W38484  11.968  16.982   0.783 -0.0989  0.1119 -0.0028
22351W        W38485   3.827  16.072   5.104 -0.2158 -0.0304  0.1967
22352W        W38486   7.975   2.989  12.566  0.3611 -0.3782 -0.1591
22353W        W38487   8.689   8.889  13.960 -0.0073 -0.0881 -0.2480
22354W        W38488  13.522   3.812  14.052  0.3742  0.0787  0.3129
22355W        W38489   6.260  13.348   4.323 -0.0118  0.1689 -0.0998
22356W        W38490   7.410  17.303  15.094 -0.4406  0.0193  0.0416
22357W        W38491  17.793  10.678  11.990  0.1583 -0.1592  0.1388
22358W        W38492   6.998   1.741   1.408  0.0746 -0.1074  0.2188
22359W        W38493  13.706  15.380  12.151  0.1910 -0.0084  0.0745
22360W        W38494   9.029  14.055  11.184 -0.1284  0.0399  0.0800
22361W        W38495   1.694   2.921   3.049  0.0892  0.0768  0.0096
22362W        W38496   8.665   7.102  14.223  0.3443 -0.2324  0.0746
22363W        W38497   2.518   1.327   2.283 -0.1363 -0.0529 -0.0904
22364W        W38498  17.772  18.244  12.300 -0.0916 -0.5867  0.2882
22365W        W38499  14.999   3.473  14.813  0.0124 -0.2617  0.1380
22366W        W38500   7.979   5.932  14.771  0.1711 -0.0023 -0.1078
22367W        W38501  16.256  10.522  12.492  0.0135 -0.2152  0.0825
22368W        W38502   4.823  13.391   3.830  0.0477 -0.1749 -0.0705
22369W        W38503   5.584  11.873  13.540  0.3178  0.2192  0.2461
22370W        W38504  15.981   1.846   9.572  0.0516  0.0626 -0.1320
22371W        W38505   4.659  10.271  13.887  0.0228  0.1307 -0.3855
22372W        W38506  16.441   6.221  10.987 -0.0104  0.0199  0.1860
22373W        W38507  16.682  10.804  11.005 -0.0547  0.0004 -0.0991
22374W        W38508   4.091  11.955  12.328  0.3009  0.0837 -0.1724
22375W        W38509  15.546   9.589  12.591  0.0197  0.0493  0.1675
22376W        W38510  17.201  18.293   2.512 -0.0657  0.0953 -0.2020
22377W        W38511   6.178  12.458  11.914  0.1365  0.1031 -0.1860
22378W        W38512  16.418  13.116  15.197 -0.1160 -0.0198  0.0731
22379W        W38513   8.592   3.245   5.098  0.0803  0.2033  0.2689
22380W        W38514  17.324  11.427   2.722 -0.0848 -0.0055 -0.0817
22381W        W38515   3.356   0.534   1.274  0.1428 -0.3686 -0.0092
22382W        W38516   6.882  11.065   5.732  0.2267 -0.1918  0.0292
22383W        W38517   8.928   5.508   5.012  0.0596  0.0410 -0.1785
22384W        W38518   5.867   8.470  13.072 -0.1586 -0.2381  0.2612
22385W        W38519  15.763  11.599  13.101  0.0336 -0.0072  0.1389
22386W        W38520  13.735   4.864   5.509 -0.1261  0.0864  0.0991
22387W        W38521  13.183  12.684   0.403  0.0434 -0.3070  0.2018
22388W        W38522  12.699  10.820  11.579  0.2272 -0.1419  0.2620
22389W        W38523   0.691  13.854  15.716 -0.0251 -0.0150 -0.1468
22390W        W38524   3.828  18.114  15.069  0.1446  0.1115 -0.1955
22391W        W38525  14.830   3.411   2.173  0.1565 -0.1740 -0.3798
22392W        W38526  18.139  12.813  13.491  0.3315  0.2067  0.1933
22393W        W38527   6.646  14.332   1.288 -0.0477 -0.0537  0.0137
22394W        W38528  11.926  18.465  13.656  0.1848 -0.1244  0.0235
22395W        W38529  14.272  14.426  11.584  0.1416 -0.1149  0.0497
22396W        W38530   2.605   2.112  12.464 -0.0677 -0.0655 -0.0097
22397W        W38531  11.773   7.482   2.665  0.0856 -0.0183  0.0397
22398W        W38532  10.855   4.524  15.269 -0.1043  0.0435 -0.1330
22399W        W38533  15.355  12.395   0.182 -0.0430  0.5550 -0.3928
22400W        W38534  13.376  12.021  11.068  0.2887  0.0160  0.1857
22401W        W38535  11.622  10.430   4.201 -0.2113 -0.0309  0.2033
22402W        W38536   9.419   2.058  11.329  0.2947 -0.0434 -0.0383
22403W        W38537   2.191   6.494   5.326  0.0708 -0.0513 -0.0920
22404W        W38538   1.612   9.123  10.751  0.0541  0.2202  0.1806
22405W        W38539   6.873   3.970   1.069  0.2016 -0.1952 -0.0078
22406W        W38540   2.506   0.249  13.027 -0.1425 -0.0770  0.0748
22407W        W38541   5.111   5.633  12.164 -0.0402 -0.1892 -0.0433
22408W        W38542   3.564   8.776  12.973 -0.3574 -0.3664 -0.1503
22409W        W38543   4.239   1.339   3.071  0.0094  0.2547  0.0484
22410W        W38544   6.956  12.692  11.333 -0.0941  0.0744  0.2971
22411W        W38545  16.333   1.662   0.002  0.1463 -0.0990 -0.0560
22412W        W38546  12.162  17.622   1.452  0.0086  0.2158  0.2976
22413W        W38547   5.742  12.711  13.455  0.1147 -0.3122 -0.0480
22414W        W38548   5.708  15.312   0.955  0.2719 -0.0632 -0.0150
22415W        W38549  11.827  17.432  15.377 -0.1350 -0.1227 -0.3450
22416W        W38550  13.158  15.172   4.687 -0.2573 -0.0887 -0.1786
22417W        W38551   1.153   6.218  12.054  0.3700 -0.0145  0.2662
22418W        W38552  12.373  11.078  14.955  0.0928 -0.0247  0.0811
22419W        W38553  13.689  11.204   0.152  0.0798  0.0686 -0.4421
22420W        W38554  12.378   6.575   3.988 -0.2531 -0.4460 -0.3090
22421W        W38555  18.294   8.638  15.442  0.0946  0.0121  0.0317
22422W        W38556   7.053   1.691   0.435 -0.2650 -0.1322 -0.3060
22423W        W38557   7.240   8.020  12.361 -0.2156  0.0690  0.0749
22424W        W38558   0.529  10.504   4.696  0.0415  0.0636 -0.0219
22425W        W38559   9.144  13.923  12.899  0.1163  0.0680  0.4355
22426W        W38560   4.832  10.337   1.755 -0.0224  0.0178  0.1072
22427W        W38561  10.139  13.320  13.425 -0.2031  0.1356  0.0220
22428W        W38562   1.617   4.701   1.953 -0.1429  0.0571 -0.4120
22429W        W38563  11.588  14.254   1.283 -0.4016  0.2219  0.1313
22430W        W38564   9.723   7.248   3.592  0.2932  0.3749 -0.4233
22431W        W38565   3.843   8.401   1.987  0.0149  0.3597 -0.2736
22432W        W38566   5.988   5.554  15.374  0.0255 -0.0800 -0.0080
22433W        W38567  16.534  16.964  14.511  0.0592 -0.0958 -0.0801
22434W        W38568   4.705  14.661   4.599  0.3576 -0.0787  0.0736
22435W        W38569  12.396   0.369  14.896 -0.1694  0.3990 -0.0395
22436W        W38570  11.689   8.659   4.714 -0.2061  0.1835 -0.0486
22437W        W38571   1.824  16.015   1.406  0.0007 -0.0743 -0.0653
22438W        W38572   4.112  11.363  15.810 -0.0783 -0.1292 -0.0617
22439W        W38573   0.852   5.202  14.863 -0.2688  0.0661  0.2285
22440W        W38574   9.445   4.824   2.561  0.1033 -0.0064 -0.0078
22441W        W38575   6.317  11.013   0.753  0.0520  0.1333  0.1434
22442W        W38576   8.065   5.235   4.539 -0.1467  0.2112 -0.1324
22443W        W38577  11.564  11.688   0.469  0.1380  0.1105  0.0571
22444W        W38578   7.415  16.547  13.679 -0.1367 -0.0305  0.0484
22445W        W38579   1.277  14.526  11.698 -0.0441  0.1853 -0.1039
22446W        W38580  11.438  13.101  14.775  0.0605  0.1066 -0.1960
22447W        W38581   1.198   1.166  15.357 -0.0520  0.1435  0.0592
22448W        W38582  17.314   5.130   3.569  0.0805 -0.0031 -0.0574
22449W        W38583  11.376  17.271   5.028 -0.0185  0.3540  0.2778
22450W        W38584   0.662   9.905  12.088  0.0231  0.2391  0.1989
22451W        W38585   8.805  13.891  15.486  0.2557  0.0197 -0.0760
22452W        W38586  17.238   9.146   3.236  0.1323 -0.0026  0.1440
22453W        W38587  15.067   0.592   4.064 -0.2767 -0.0810  0.1470
22454W        W38588  18.254   2.955  11.980  0.3354  0.0990  0.0067
22455W        W38589   0.052   2.745  13.324  0.3212  0.0854  0.2690
22456W        W38590  10.463   8.542   3.503 -0.0354  0.2928 -0.2355
22457W        W38591   0.577   1.367   0.416 -0.2564 -0.0092  0.2563
22458W        W38592  14.681  14.062  13.346  0.2069  0.0432  0.0733
22459W        W38593   3.199  12.567   4.832 -0.2977  0.0381  0.0096
22460W        W38594  18.263   5.717  10.703 -0.1516  0.0434  0.2150
22461W        W38595   3.789   7.147   5.732 -0.0750 -0.3436 -0.1165
22462W        W38596  17.160  16.633  13.605  0.1298 -0.2437  0.0749
22463W        W38597   4.840  12.203  15.717  0.2869 -0.1379 -0.0825
22464W        W38598   0.259  13.963  15.465  0.2168  0.1423  0.0226
22465W        W38599  16.510  10.335   1.542 -0.3123 -0.1570  0.2318
22466W        W38600  15.641   2.202   1.990  0.0349 -0.0805 -0.2794
22467W        W38601  14.367  11.837   2.530 -0.0507 -0.0702  0.4008
22468W        W38602  10.350  14.850   2.762 -0.2044 -0.1899  0.0168
22469W        W38603   0.023  14.606  11.125  0.2145  0.1429 -0.2210
22470W        W38604   7.981   6.759   0.117 -0.1564  0.3350  0.0938
22471W        W38605   3.783  11.676   1.665 -0.0971 -0.0675  0.2037
22472W        W38606  15.091  17.083  14.942 -0.0776  0.2683 -0.1830
22473W        W38607   2.633  14.241   2.503  0.0800 -0.1025 -0.1422
22474W        W38608  13.056   1.769   4.211 -0.1082  0.1921  0.1860
22475W        W38609   5.648  10.699  11.323 -0.2618 -0.1071  0.1931
22476W        W38610   5.124   4.398  14.497  0.1357 -0.2242 -0.0613
22477W        W38611   1.827   3.472  14.894  0.1409  0.0586 -0.1417
22478W        W38612   9.172  15.758   0.914  0.0682  0.1290 -0.1643
22479W        W38613  11.103   7.218  12.805 -0.2972 -0.2543 -0.1333
22480W        W38614  13.935   2.948   3.407 -0.0912 -0.1202  0.0916
22481W        W38615   7.463  10.966   4.411 -0.2559  0.1928  0.1565
22482W        W38616   6.963  10.215  13.641  0.0974 -0.0631  0.1481
22483W        W38617   9.955   9.573  13.809 -0.1797 -0.4470  0.0394
22484W        W38618   3.828   1.244   1.791  0.0858 -0.0529 -0.1648
22485W        W38619  11.221  11.263   3.911 -0.1439  0.1781 -0.3637
22486W        W38620   3.211   1.229   3.643  0.0795  0.2335 -0.2924
22487W        W38621   7.786   2.621  13.367  0.1668  0.2500  0.0317
22488W        W38622   8.572   2.572  13.727  0.2533  0.3217  0.1769
22489W        W38623  12.002   3.835   3.398 -0.2670  0.0328 -0.1385
22490W        W38624   4.399  11.157   2.077 -0.2749 -0.0785  0.1815
22491W        W38625  18.007  11.593   5.938 -0.0865  0.0444 -0.3505
22492W        W38626   1.639   1.558  11.409 -0.0501  0.2179 -0.4200
22493W        W38627   9.699  11.017   1.436 -0.0282 -0.1637 -0.2752
22494W        W38628  13.725   6.688   0.169  0.1915  0.0839 -0.0808
22495W        W38629   8.058   0.307  12.825  0.0390 -0.1088 -0.4500
22496W        W38630  10.681   2.769   0.258  0.3211  0.2603  0.0072
22497W        W38631  17.174  14.606   0.523  0.0286  0.0962 -0.2174
22498W        W38632   2.543   1.503   1.476 -0.3329  0.0073 -0.2835
22499W        W38633   8.387   1.571  15.450 -0.0512 -0.1668  0.1684
22500W        W38634   4.107  18.187   4.031  0.1277  0.2408  0.1417
22501W        W38635   8.560   1.580   4.710 -0.1512 -0.1217 -0.1056
22502W        W38636   8.913   7.361  13.233 -0.2590  0.1555  0.2657
22503W        W38637  17.467  10.462  13.130  0.1844 -0.0701  0.2501
22504W        W38638  15.071  14.923  13.755 -0.0756  0.2556 -0.1856
22505W        W38639   2.871  10.284  14.029 -0.0390  0.0069 -0.0612
22506W        W38640   0.517  11.726  13.360 -0.3374  0.0172 -0.1255
22507W        W38641   0.572   4.231   0.411 -0.0995  0.1285 -0.1476
22508W        W38642  15.978  14.326   5.610 -0.0257  0.0591  0.0720
22509W        W38643  15.314   3.137  11.801  0.0270 -0.0600  0.0467
22510W        W38644   6.675   9.284  12.154  0.2290 -0.0350 -0.0696
22511W        W38645  16.191   1.847  14.432  0.0290 -0.0420 -0.1283
22512W        W38646  11.239   9.197   2.082 -0.0941  0.0563 -0.1351
22513W        W38647   0.834   0.612   2.060  0.0637  0.2860  0.0725
22514W        W38648  14.308  15.166  12.634 -0.1074 -0.2304 -0.0776
22515W        W38649   3.716   5.623   0.531  0.0852  0.0507  0.1869
22516W        W38650   8.648   9.651   3.627 -0.0976  0.0372  0.0101
22517W        W38651   7.794   7.188   0.406  0.3177  0.0353  0.1298
22518W        W38652  17.408   1.232  14.591 -0.2064  0.3904  0.1450
22519W        W38653   7.285  15.207  14.591  0.2176 -0.1664 -0.0655
22520W        W38654  16.434   2.495  15.163 -0.1469  0.2301  0.1560
22521W        W38655   6.134  18.063  12.151  0.1188 -0.0481 -0.0545
22522W        W38656   3.594  13.556  12.033  0.0611 -0.0805  0.2349
22523W        W38657  17.049  11.424   2.274 -0.0448 -0.0662  0.0860
22524W        W38658  17.352   3.274  13.673  0.1877  0.0317  0.1723
22525W        W38659  12.630  10.249  11.607  0.0924  0.1698 -0.1361
22526W        W38660  16.747   9.464  11.745 -0.2329 -0.1879 -0.0879
22527W        W38661   8.356   1.178   2.189  0.1051 -0.0061 -0.0753
22528W        W38662  16.543   9.450  13.270 -0.2614  0.3602  0.0063
22529W        W38663   8.410  15.424   0.576  0.1464 -0.0599 -0.0963
22530W        W38664  16.342   7.010   3.735  0.0997  0.1347 -0.2820
22531W        W38665   0.576  11.532   0.356 -0.2578  0.0358  0.2403
22532W        W38666   0.969  11.927  13.501 -0.3234 -0.2178 -0.0750
22533W        W38667   0.416  15.323  12.885 -0.3639 -0.2775  0.0207
22534W        W38668  16.816  17.240   0.481 -0.0451  0.0511 -0.0109
22535W        W38669  15.242   2.622  13.734 -0.0812 -0.0266 -0.1397
22536W        W38670   3.464  11.104  15.376 -0.2022 -0.0214  0.0862
22537W        W38671   6.536  11.629   3.568 -0.1737 -0.0080 -0.2229
22538W        W38672  11.879  12.402  13.003 -0.1463  0.2879 -0.3174
22539W        W38673  10.524   4.903  15.043 -0.1558 -0.3056  0.2506
22540W        W38674  13.150   2.205  12.779  0.2726 -0.0119 -0.0449
22541W        W38675   2.184   7.553   4.988  0.0602  0.0411 -0.2016
22542W        W38676   1.517  15.558  13.929 -0.2175 -0.1747 -0.1182
22543W        W38677  13.191   0.268  11.948  0.3800  0.2201  0.0373
22544W        W38678   6.776   3.600  14.450  0.3615  0.0899 -0.1369
22545W        W38679   0.155  11.438   3.061 -0.2930  0.0141  0.0828
22546W        W38680   6.871  12.189  15.877 -0.1576 -0.2679 -0.1227
22547W        W38681   6.278   4.094   3.700  0.2617  0.0736  0.2774
22548W        W38682   1.346   8.695   1.915 -0.3260  0.1595  0.0826
22549W        W38683  13.442   2.220   0.611 -0.0517  0.1006  0.4851
22550W        W38684  11.824  10.852   3.298  0.3531 -0.2526 -0.0110
22551W        W38685  11.176   1.298   4.807  0.1270 -0.0801  0.1738
22552W        W38686  17.502   0.284   4.912  0.1332 -0.0438  0.0308
22553W        W38687  11.178   5.334   3.087  0.2105 -0.0213  0.0705
22554W        W38688   5.248  10.660   4.589  0.0319 -0.0621  0.0446
22555W        W38689   3.846   1.499  12.586 -0.0222 -0.2377 -0.1973
22556W        W38690   2.594   4.703  15.692 -0.0881 -0.0157 -0.2427
22557W        W38691  14.411  12.681  12.954 -0.1748  0.1918  0.0471
22558W        W38692  11.934  14.157   2.636 -0.0711  0.2488 -0.1138
22559W        W38693  12.906  15.656   2.182 -0.1235  0.0911  0.0003
22560W        W38694  15.768   4.687   5.769  0.2149  0.2487  0.3260
22561W        W38695  16.116  11.126   2.528 -0.3088 -0.1786 -0.0554
22562W        W38696   0.068   5.459  13.436  0.2358  0.4116  0.0913
22563W        W38697   3.776   9.311  13.743 -0.0957  0.0326  0.2427
22564W        W38698  14.132   0.136   1.894  0.1765 -0.1751 -0.1216
22565W        W38699  12.927   8.408  13.486 -0.1057  0.2157 -0.1007
22566W        W38700   9.149   6.078   4.125 -0.1056 -0.1109  0.0850
22567W        W38701  13.664  10.951  15.361  0.2404 -0.1909 -0.0073
22568W        W38702   0.745   1.750   1.177  0.1262 -0.1506 -0.1816
22569W        W38703  12.306   7.107   2.489  0.0912  0.0736 -0.1550
22570W        W38704  14.515   1.441  13.150  0.0037  0.0502 -0.2667
22571W        W38705   9.887   1.864   2.750 -0.0613 -0.1305 -0.0494
22572W        W38706  13.093   4.657   3.772  0.0393 -0.0351  0.2297
22573W        W38707  14.085  13.804   3.593  0.0432 -0.4119 -0.2050
22574W        W38708  12.368   0.260   0.691 -0.3116  0.0941 -0.1707
22575W        W38709   5.920  17.061   4.685  0.1479  0.1740  0.2087
22576W        W38710  18.043   5.313   4.189  0.0499  0.1428 -0.1341
22577W        W38711  17.056   4.725  11.974 -0.0799  0.0604  0.0925
22578W        W38712   3.758  13.832  10.271 -0.1115 -0.0465 -0.0217
22579W        W38713  15.704   2.670   2.796 -0.0355 -0.1088 -0.1054
22580W        W38714  16.553  18.463  15.061  0.1054  0.2048 -0.2342
22581W        W38715  11.755  13.428  11.452 -0.1514  0.1398 -0.1192
22582W        W38716  15.104   3.362  13.142  0.1556  0.2065  0.1050
22583W        W38717   4.234   7.118   2.834 -0.0036  0.3328  0.0025
22584W        W38718   4.451  11.537  12.510  0.0832  0.2334  0.1111
22585W        W38719  15.633   6.089  15.374 -0.0238  0.1113  0.0859
22586W        W38720   5.132  17.949   3.759  0.0389 -0.2872 -0.0888
22587W        W38721   4.089  16.943  12.828  0.2933 -0.1752 -0.0137
22588W        W38722   1.617  17.702  13.995 -0.3805  0.0382  0.2062
22589W        W38723  10.048   8.194  14.153  0.1187 -0.1324  0.0953
22590W        W38724   1.320   8.635  12.614  0.2469  0.0399  0.1625
22591W        W38725  14.791  11.559   5.284  0.0733  0.0593  0.0734
22592W        W38726  17.790   8.552  15.484  0.1203 -0.4141  0.0140
22593W        W38727   7.106  18.119   0.894 -0.1040 -0.0765 -0.3067
22594W        W38728  10.614  15.157   5.211 -0.0303  0.1037 -0.0276
22595W        W38729   9.653  14.960   2.677 -0.0376  0.1039  0.0331
22596W        W38730   8.412  10.609  15.456  0.1776  0.3460  0.2314
22597W        W38731  12.437   0.469  13.062 -0.3562  0.3736 -0.0616
22598W        W38732  10.084  15.696  15.417 -0.3151  0.2652 -0.1929
22599W        W38733   4.404  12.840  13.813 -0.3490 -0.2122 -0.0511
22600W        W38734   8.318  16.073  14.292  0.0443  0.0141  0.1024
22601W        W38735   4.850  12.138   2.307  0.2361  0.1212 -0.0662
22602W        W38736   1.062  14.868   1.766  0.1182  0.1244 -0.0311
22603W        W38737   0.806  16.982   3.094 -0.2488 -0.0219 -0.0743
22604W        W38738   0.385  14.277   2.225 -0.0516  0.1368  0.0774
22605W        W38739   4.096  17.049   5.823  0.1765 -0.0960 -0.1910
22606W        W38740  11.401  15.022  11.638  0.1538 -0.1634 -0.0551
22607W        W38741   3.638  18.035  12.903 -0.1085 -0.3109  0.2840
22608W        W38742  12.698  15.362   5.567  0.0782 -0.1553 -0.0426
22609W        W38743  15.075   6.448   2.586  0.0668 -0.3830 -0.1274
22610W        W38744  10.073   9.648   2.659 -0.0809 -0.1141 -0.1254
22611W        W38745   0.249  11.303   5.005  0.0918 -0.1218  0.3418
22612W        W38746  16.085  16.924  15.797 -0.1506 -0.4948 -0.0756
22613W        W38747   0.225  16.602   4.644  0.0379 -0.0865 -0.0256
22614W        W38748  14.493  10.175   2.877  0.0544  0.1761  0.0798
22615W        W38749   8.203   9.608  13.607 -0.1711  0.1487  0.1031
22616W        W38750   4.424  16.679   5.075 -0.0691 -0.3510 -0.0861
22617W        W38751   2.267   7.461   4.506  0.0540 -0.2959 -0.1567
22618W        W38752  15.731  11.002  14.536 -0.1216 -0.3247  0.0584
22619W        W38753  17.313  15.739   6.027  0.0993 -0.1936 -0.3386
22620W        W38754   4.768  17.339  14.425 -0.0255  0.1932 -0.0508
22621W        W38755  11.815   7.876   3.605  0.1785  0.2695  0.1209
22622W        W38756  18.082  11.001  11.126 -0.0508 -0.0717  0.3471
22623W        W38757   3.955  14.904  15.367 -0.0181  0.0343  0.1497
22624W        W38758  16.210   3.450   0.168 -0.0365  0.0850 -0.1557
22625W        W38759  17.630  15.617   2.544 -0.0052 -0.0347 -0.0985
22626W        W38760   2.055  13.072  13.409  0.0288  0.0049 -0.2214
22627W        W38761  15.887   1.406  13.309  0.1083 -0.1236  0.1670
22628W        W38762   1.515   3.910  12.434 -0.0134 -0.3179 -0.0002
22629W        W38763  14.151   4.611   3.672  0.2065 -0.0110 -0.0145
22630W        W38764   8.904   9.246  11.985 -0.0812 -0.1755 -0.0656
22631W        W38765   3.213   4.030  12.725 -0.0952  0.2394 -0.0686
22632W        W38766   2.002   2.565   4.449 -0.0745 -0.0753 -0.0003
22633W        W38767   9.215   5.184  15.910  0.0131  0.0492 -0.1053
22634W        W38768  17.318  16.029   0.696  0.2015  0.3161 -0.1072
22635W        W38769   0.983   5.492   4.251  0.0692  0.0650 -0.2377
22636W        W38770  11.189   1.513   1.482 -0.0405  0.3778  0.2106
22637W        W38771   6.292  16.313  13.464  0.0295  0.0261 -0.0384
22638W        W38772   5.398  15.911   2.529  0.1224 -0.2190  0.1192
22639W        W38773   1.318   5.985   2.929 -0.0703 -0.1039 -0.1272
22640W        W38774   0.014   0.251  14.644 -0.0181  0.0661  0.1232
22641W        W38775  18.011  11.975   1.136 -0.1755 -0.2416 -0.4230
22642W        W38776   4.653  17.766  11.506 -0.2129 -0.0001  0.0097
22643W        W38777   5.493  11.081   3.075  0.1754  0.0123 -0.1318
22644W        W38778  10.356   0.172  15.604 -0.0609 -0.0365 -0.0751
22645W        W38779  14.269  11.290   0.153  0.0987  0.1283  0.0308
22646W        W38780   6.673   3.410   4.608 -0.0078 -0.0459  0.0765
22647W        W38781  15.798   5.308  11.898  0.2348 -0.0586 -0.0288
22648W        W38782  11.390   7.097  15.544 -0.1113  0.1353 -0.0179
22649W        W38783   9.030  11.545  15.231 -0.2899  0.0065 -0.0931
22650W        W38784   7.283  13.999   4.872 -0.0934 -0.3828  0.1544
22651W        W38785   7.164   9.857   1.576 -0.1446  0.0067 -0.0000
22652W        W38786  17.247   8.911  12.031 -0.0621 -0.2536 -0.2285
22653W        W38787  14.067   6.412  14.837  0.0074  0.2752 -0.1911
22654W        W38788   1.616  16.916   0.281 -0.0133  0.0695  0.0389
22655W        W38789   4.981  13.653  14.889 -0.1530  0.0666  0.4670
22656W        W38790  13.516  10.703  15.804 -0.0139  0.0490  0.0117
22657W        W38791   1.141  12.866   0.457  0.2161  0.1407  0.1399
22658W        W38792   2.752  16.648   3.014 -0.0396  0.2454 -0.0202
22659W        W38793  15.277  16.434   0.998  0.0871  0.0674 -0.0124
22660W        W38794  10.276   6.065  12.792  0.1375 -0.1227  0.0332
22661W        W38795   8.244   7.546  10.989  0.1061  0.0212  0.0924
22662W        W38796   0.826   6.897  13.145  0.1002 -0.1683 -0.3046
22663W        W38797  12.256  16.543  15.797  0.1693 -0.1768  0.2058
22664W        W38798  18.294   6.984   0.750  0.1557  0.0795  0.0466
22665W        W38799  13.673   3.638  11.458 -0.3678 -0.0036 -0.0481
22666W        W38800  14.758   2.977   0.589 -0.0469 -0.0601  0.0318
22667W        W38801  17.086   7.531   1.377  0.0084 -0.1327 -0.3608
22668W        W38802   1.071   5.889  13.915 -0.1788  0.2487 -0.0863
22669W        W38803   3.005   0.009   3.180 -0.1070  0.1560 -0.0188
22670W        W38804   3.721   1.545   4.227  0.0178  0.1922  0.0969
22671W        W38805   9.676   5.345   0.865  0.0063  0.0839 -0.0490
22672W        W38806  11.677  12.845   4.908  0.0479 -0.0716 -0.0397
22673W        W38807   6.751   3.766   0.586 -0.2010  0.1397  0.0654
22674W        W38808  17.605  14.401  14.703  0.2362  0.2994 -0.2599
22675W        W38809  15.970   7.911   0.038 -0.0576 -0.2091 -0.3326
22676W        W38810  16.142  17.011   2.102  0.2090  0.1483 -0.1294
22677W        W38811   1.876   0.809   5.250  0.0062 -0.0844 -0.2094
22678W        W38812  13.546   8.979   2.814  0.2480  0.1218  0.0737
22679W        W38813   3.307   3.795   1.137 -0.0696  0.0510  0.0072
22680W        W38814   8.817  13.505   0.091  0.0926 -0.0016  0.1563
22681W        W38815  18.449  15.252  12.230  0.0162  0.1134 -0.1054
22682W        W38816  16.365  15.603  12.186 -0.1009 -0.0027 -0.3759
22683W        W38817  10.197   8.398   5.676 -0.3240 -0.0745  0.0594
22684W        W38818  14.533   3.798   2.044  0.0051 -0.1676 -0.0779
22685W        W38819   1.483   9.882  14.704 -0.2186  0.0674 -0.0581
22686W        W38820  10.615   9.988   4.083 -0.1120  0.0790  0.0190
22687W        W38821   2.668  10.213   2.974  0.0631 -0.0345  0.2597
22688W        W38822  17.558  14.487  13.241 -0.1070 -0.0814 -0.1169
22689W        W38823   5.173  15.178   3.496  0.1727  0.1196 -0.0887
22690W        W38824  10.965  16.840  15.702 -0.4218 -0.0991 -0.1380
22691W        W38825   6.278   7.910   1.010  0.1471  0.1048 -0.0110
22692W        W38826  12.538   5.219  15.269 -0.0153  0.1624 -0.0610
22693W        W38827   4.376   4.555  15.195  0.0606  0.1832  0.2003
22694W        W38828  11.702   3.073  11.709  0.2158 -0.1711 -0.1091
22695W        W38829  16.069   8.725  13.115  0.1953  0.0021 -0.0528
22696W        W38830  12.587   5.823   3.968  0.0204  0.1230  0.0947
22697W        W38831   3.258  12.518   2.120 -0.0738 -0.0605  0.2119
22698W        W38832  16.403  14.291   5.400 -0.0063 -0.1542 -0.0005
22699W        W38833   3.254  16.496  13.688  0.5025  0.1692  0.1158
22700W        W38834   1.044  10.129  11.884  0.1107  0.0371  0.0947
22701W        W38835  10.038   2.526  15.636  0.2198 -0.1317 -0.1111
22702W        W38836  10.761  13.060   2.310 -0.2924  0.2794 -0.2903
22703W        W38837   1.255   3.644   3.324  0.5018 -0.0541 -0.2182
22704W        W38838   0.376  18.055  15.536  0.2186 -0.0719 -0.1749
22705W        W38839   2.491  12.481  15.352  0.0112 -0.0387 -0.3530
22706W        W38840   6.764   1.610  12.905  0.1321  0.0374 -0.3621
22707W        W38841  12.723   7.086  10.334  0.0538 -0.1815 -0.0224
22708W        W38842   9.799  16.297  14.147 -0.1238 -0.0158 -0.2580
22709W        W38843   0.971  11.625  12.074  0.2302  0.0346 -0.0572
22710W        W38844   4.345  17.013   1.164 -0.1342  0.0438 -0.1615
22711W        W38845  10.115   7.946   0.093 -0.0007  0.2653 -0.1409
22712W        W38846  10.764  16.767   2.054 -0.0964  0.2276  0.1819
22713W        W38847   9.938  14.418  15.401 -0.0943 -0.2078  0.3576
22714W        W38848  14.976   9.703   4.324 -0.1410 -0.2177  0.1146
22715W        W38849   4.004  10.770   3.910  0.0067  0.0023 -0.0072
22716W        W38850  13.513  17.490   2.852 -0.1062  0.2969  0.0839
22717W        W38851  11.170   2.674  15.431 -0.0608  0.3229  0.1929
22718W        W38852  14.337   1.118   1.304  0.2158  0.0860 -0.0084
22719W        W38853   4.773   6.341  12.646  0.1931 -0.1348 -0.1293
22720W        W38854   5.215   8.888  11.217 -0.1903 -0.1270  0.1032
22721W        W38855   0.432  10.955  12.999  0.1234  0.2372 -0.0298
22722W        W38856   0.790   7.329  12.839 -0.0405 -0.0743 -0.2319
22723W        W38857   3.920   6.209  13.112  0.1309  0.0817  0.0525
22724W        W38858   9.482   3.885   4.007 -0.0273  0.0350  0.2298
22725W        W38859   5.188  16.247   6.311  0.0800  0.3826  0.3976
22726W        W38860   1.561  10.243  15.677 -0.1070 -0.5912  0.0216
22727W        W38861  14.935   6.073  15.667  0.0965 -0.2486  0.0123
22728W        W38862  12.121  13.729  15.009 -0.1416  0.0406  0.2632
22729W        W38863  16.713   0.482  12.617  0.0362 -0.1270  0.1723
22730W        W38864   6.067   3.082  12.828 -0.1385  0.0133 -0.0865
22731W        W38865  17.039  15.085   4.682  0.0582  0.2593 -0.0863
22732W        W38866   7.466   0.576   1.199 -0.0391  0.0627  0.2816
22733W        W38867  11.472   8.819   2.907  0.2231 -0.1182  0.1147
22734W        W38868  16.927   4.604  13.142 -0.0167 -0.1802 -0.1269
22735W        W38869  12.668  17.204  14.003  0.0724  0.0275 -0.1048
22736W        W38870   3.688  11.589  13.659  0.1558 -0.1891 -0.0445
22737W        W38871  14.392   2.920  13.711  0.1130  0.0926  0.2341
22738W        W38872   6.257  10.318  14.195  0.1627  0.1081  0.1696
22739W        W38873  11.459  17.659  12.312  0.1703 -0.3695  0.1344
22740W        W38874  10.727   6.984  11.218 -0.0559  0.0168  0.1825
22741W        W38875   6.137  10.234   1.054 -0.1728  0.3418  0.2963
22742W        W38876   9.741   1.068  12.981  0.0976  0.0692 -0.0519
22743W        W38877   3.491   9.904  13.259 -0.2367  0.0781  0.0031
22744W        W38878  14.888   9.926   4.803  0.3003 -0.1408  0.0707
22745W        W38879   0.506   7.644   0.796 -0.0110  0.1109  0.1272
22746W        W38880   0.548   6.612   3.296 -0.1353 -0.0703  0.1675
22747W        W38881  13.138   6.591  13.453  0.2171  0.0257  0.0044
22748W        W38882  11.916  12.590  12.074  0.0092 -0.1085 -0.0412
22749W        W38883   8.573   5.542  13.389 -0.1950  0.0495  0.1216
22750W        W38884  12.549   6.316   2.117  0.2215  0.1240 -0.0801
22751W        W38885   3.064   6.285   0.256 -0.1801  0.0530  0.0218
22752W        W38886  13.733  13.863  12.669  0.2630  0.0076 -0.0456
22753W        W38887  15.935  14.186   1.274  0.2070 -0.1487 -0.2307
22754W        W38888  15.430  14.420   2.601  0.1446  0.4289  0.0206
22755W        W38889  13.715   7.143   4.191  0.3178  0.1314 -0.0413
22756W        W38890  15.956  10.123   3.011  0.1003 -0.2781 -0.0330
22757W        W38891   8.917  18.300  13.389 -0.0727 -0.0132 -0.2713
22758W        W38892   8.216  16.570  12.518  0.1847 -0.3393 -0.0603
22759W        W38893   5.989  15.894  11.909 -0.0774 -0.0430 -0.0459
22760W        W38894   6.603   4.793  11.612  0.0250 -0.0775  0.2017
22761W        W38895   7.676   1.272  12.834  0.2179 -0.3442  0.0709
22762W        W38896   2.010   8.588   3.755  0.1824  0.1535  0.0321
22763W        W38897  11.487  14.422   0.045  0.0019 -0.3264 -0.2648
22764W        W38898   4.580  14.862  13.523 -0.0317 -0.0601 -0.1851
22765W        W38899   5.827   0.577   1.381 -0.1557 -0.0603 -0.2759
22766W        W38900   0.064  13.289   3.272 -0.1649 -0.1608 -0.2111
22767W        W38901  12.071   9.485  13.202  0.0241 -0.1837 -0.2101
22768W        W38902   5.454   0.847   5.309 -0.0741  0.1577 -0.1272
22769W        W38903   5.853   9.384  13.542  0.1022 -0.1664  0.0979
22770W        W38904  13.764  13.862   2.925 -0.1456  0.1414 -0.3008
22771W        W38905   6.433   8.392  15.237 -0.0210  0.0527 -0.1753
22772W        W38906   1.652  12.352   4.522  0.0965  0.0451 -0.1742
22773W        W38907   6.114  10.923  12.499 -0.0115 -0.1654 -0.2314
22774W        W38908   8.519   3.184   0.732 -0.2287 -0.1281 -0.0754
22775W        W38909   6.580   5.206   3.640  0.0393  0.1445  0.3064
22776W        W38910  16.975   9.619   1.960  0.3573 -0.0581 -0.0519
22777W        W38911  13.313   1.553  15.262 -0.3049 -0.0446  0.0998
22778W        W38912   0.407  17.989  13.261 -0.3203  0.1847  0.1757
22779W        W38913   7.533   5.041  15.239  0.3856 -0.1575 -0.0014
22780W        W38914   4.078   1.895   4.133  0.1034  0.1668 -0.2676
22781W        W38915   4.880  13.907  11.215  0.0919 -0.1095  0.6349
22782W        W38916   9.355  15.412  13.946  0.4005 -0.0490 -0.1642
22783W        W38917  15.204   6.244   3.535  0.0563 -0.1737  0.1884
22784W        W38918   0.652   8.104  10.953 -0.1518  0.2730 -0.0403
22785W        W38919   1.787   0.812  12.877 -0.0238  0.1016  0.1154
22786W        W38920   6.776  12.723  12.584  0.0674 -0.0054 -0.1906
22787W        W38921   0.433   7.281  13.219 -0.2320 -0.2322  0.2531
22788W        W38922  18.317  13.592   0.223 -0.3510  0.0469 -0.3274
22789W        W38923   3.914  11.339   3.949  0.1946  0.0294 -0.0447
22790W        W38924   3.659   8.204   0.900 -0.3250 -0.2357 -0.1206
22791W        W38925   5.190  11.874   0.099  0.1420  0.0638 -0.0328
22792W        W38926  11.792   6.936  10.222 -0.3737 -0.1024  0.2271
22793W        W38927   7.660  17.226   6.035 -0.0852  0.2855  0.1586
22794W        W38928   3.075   1.766   0.773 -0.2092 -0.0985 -0.0355
22795W        W38929   5.141   4.629   5.034  0.0824 -0.0994  0.0253
22796W        W38930   5.536   5.818   3.091  0.0414 -0.3420  0.0932
22797W        W38931  15.530  11.748   2.015 -0.0501 -0.1958  0.0579
22798W        W38932   3.544   9.404   4.504 -0.2395  0.0853 -0.3992
22799W        W38933   3.836  17.480   3.350 -0.2558 -0.1528  0.0065
22800W        W38934   7.584   2.078   3.113 -0.3822  0.0658 -0.0959
22801W        W38935   5.304  15.762   4.117  0.2150 -0.1397 -0.1723
22802W        W38936  11.052   0.534  10.985  0.2245  0.0116 -0.1301
22803W        W38937   0.360   7.171  11.210 -0.0774 -0.0087  0.1682
22804W        W38938  16.744  18.341   2.837 -0.2021  0.3803  0.2869
22805W        W38939   2.877   3.581   5.392  0.1773 -0.0787  0.0186
22806W        W38940  14.214  15.357  13.752  0.0797  0.1993 -0.0468
22807W        W38941   3.948   3.791  14.669 -0.1160 -0.1559  0.1249
22808W        W38942   9.192  12.876  14.335 -0.0599 -0.1931  0.1596
22809W        W38943   8.447   5.366   4.823  0.2517 -0.2221  0.0253
22810W        W38944   1.476   8.710   0.663  0.1239  0.1576  0.2059
22811W        W38945   2.187  13.531   4.274  0.0629  0.0158  0.0875
22812W        W38946  11.591  14.796   0.723 -0.0074  0.1966 -0.1905
22813W        W38947   3.452   4.493  13.265  0.1963 -0.4359  0.2016
22814W        W38948   6.482  13.525  12.492 -0.0789 -0.2927  0.1111
22815W        W38949   0.758   2.570  14.730  0.0528  0.1455 -0.2923
22816W        W38950  12.515   2.323  12.365  0.0785  0.0640  0.2528
22817W        W38951   4.520  16.770   3.008 -0.3240  0.0764  0.0322
22818W        W38952   4.116  17.347   2.395 -0.0544 -0.0183  0.1318
22819W        W38953  15.335   4.161  11.847 -0.0893  0.2731 -0.0363
22820W        W38954  16.612   6.132  14.404  0.0871  0.0250 -0.1073
22821W        W38955  10.243  10.662  12.584 -0.0235 -0.0863  0.0812
22822W        W38956  12.862  18.241   5.425  0.2045 -0.0123  0.0207
22823W        W38957  17.578   4.475   0.381  0.0349  0.2964 -0.1540
22824W        W38958   7.546  10.990   0.974  0.0375 -0.3099  0.2260
22825W        W38959   2.322   8.764   3.038  0.1166 -0.3063 -0.2522
22826W        W38960  11.784   9.676  15.623 -0.1789 -0.2059 -0.1777
22827W        W38961  17.368  10.158   0.669 -0.1185 -0.0690  0.1087
22828W        W38962   6.470   0.015  12.351 -0.2003  0.0541  0.2162
22829W        W38963   2.460   4.761   1.582  0.0546  0.1556  0.1133
22830W        W38964  15.725   1.013   3.717  0.2425 -0.1575 -0.2151
22831W        W38965  15.096   5.433   0.273  0.2005 -0.2399  0.0276
22832W        W38966  10.820  16.571   6.159 -0.1783  0.2036  0.0745
22833W        W38967  13.094  17.136   0.666 -0.2791 -0.0408  0.0439
22834W        W38968  14.629   3.020   3.272  0.0047 -0.0921 -0.0951
22835W        W38969   4.090  17.672   0.646 -0.4203 -0.2255  0.2464
22836W        W38970  16.550   6.239   5.356  0.1472  0.0756 -0.1028
22837W        W38971  12.146   0.217   1.119  0.2393 -0.0703  0.1643
22838W        W38972   2.176  11.553  14.908  0.0868  0.2375  0.0204
22839W        W38973   6.489  16.276   4.331  0.1584 -0.0287 -0.1510
22840W        W38974  16.780   6.861  12.960  0.3326  0.0620  0.0454
22841W        W38975   4.606   0.664   0.220  0.0811 -0.0431 -0.0929
22842W        W38976   9.154   1.295   3.616  0.1610  0.2402 -0.1430
22843W        W38977  15.233  18.417   3.246 -0.1260 -0.0240  0.4433
22844W        W38978   7.490   5.751   0.628 -0.0069 -0.2017  0.0394
22845W        W38979  12.970   8.489   2.350 -0.1329  0.0065  0.3688
22846W        W38980  16.616   5.331   1.227  0.0515 -0.1764 -0.0540
22847W        W38981  13.124   6.179  10.042  0.1177  0.0189 -0.0530
22848W        W38982   7.470   1.093   4.376  0.0033  0.0371  0.1781
22849W        W38983   5.553   5.414  15.236  0.4156 -0.0296  0.3582
22850W        W38984   7.739   8.571  14.545  0.1173  0.1719 -0.0964
22851W        W38985  14.782  15.960   5.313  0.2392 -0.1553  0.1212
22852W        W38986   6.335   0.148   2.493 -0.0375 -0.1531 -0.0164
22853W        W38987   3.175   3.217   1.085 -0.2843 -0.1001 -0.0465
22854W        W38988   6.511  13.172  15.750 -0.1599  0.2379 -0.3652
22855W        W38989   3.459   3.173   5.351 -0.1181  0.0918 -0.0310
22856W        W38990   3.992   6.094   2.544  0.3410  0.0625 -0.2603
22857W        W38991   4.833  11.604  15.084  0.5275  0.1281  0.0499
22858W        W38992   8.839   0.379   0.250 -0.1088 -0.1431  0.3164
22859W        W38993  11.199   8.897   0.753  0.1054  0.0320 -0.2285
22860W        W38994   9.003  16.460   4.113  0.2447 -0.1294  0.0999
22861W        W38995  12.588   3.938   0.460 -0.3056 -0.0074 -0.1766
22862W        W38996   1.982   3.049   3.436 -0.0606 -0.3569  0.1798
22863W        W38997   6.981   2.549  15.800  0.0109 -0.2174  0.1786
22864W        W38998   9.384   3.761   1.358  0.2521 -0.1611 -0.0306
22865W        W38999   3.788   5.370  14.187 -0.1021 -0.1036  0.1785
22866W        W39000   6.325   6.140  11.398  0.0230 -0.1988 -0.1774
22867W        W39001   1.586   5.742   4.778 -0.1163  0.0758 -0.3196
22868W        W39002  12.642   1.813   1.919  0.1456 -0.2941 -0.0262
22869W        W39003   1.159  13.668  12.652  0.2388 -0.1742 -0.1371
22870W        W39004   5.924   8.672   1.555 -0.0852 -0.2960  0.0687
22871W        W39005   3.726   6.953   3.500 -0.0441  0.1304  0.0305
22872W        W39006   0.148   2.000   0.435  0.0719 -0.1542 -0.1205
22873W        W39007   9.380   6.613  14.770  0.4026  0.2996 -0.3169
22874W        W39008   2.934   9.293  15.252  0.1174 -0.0677  0.3608
22875W        W39009   8.366  11.867  11.676 -0.1039  0.1930  0.0842
22876W        W39010  15.886  13.480   4.357  0.1377 -0.1854  0.0042
22877W        W39011   6.237   0.415  15.873  0.0007 -0.2658 -0.2984
22878W        W39012  10.964  16.589  11.501  0.0278 -0.3012 -0.1141
22879W        W39013  15.938   4.860   3.229  0.1598  0.0884 -0.2422
22880W        W39014   1.797  15.980   2.063  0.2846 -0.1160  0.0322
22881W        W39015  12.026   3.674   2.570  0.2245 -0.1306 -0.1047
22882W        W39016   7.123   8.446  10.406  0.1584  0.3865 -0.0861
22883W        W39017  18.363   0.399   1.795  0.0674 -0.3473  0.1632
22884W        W39018  18.173   3.081  13.162  0.0452  0.0199 -0.1159
22885W        W39019   7.846   1.565   1.606  0.3709  0.3667 -0.0891
22886W        W39020   1.938  10.210   9.577  0.1425  0.2135  0.2310
22887W        W39021   8.169   9.719  11.260 -0.0938  0.0076  0.1215
22888W        W39022   4.511   0.126   3.817 -0.0811 -0.2256  0.1076
22889W        W39023  17.248  16.117   4.329 -0.0943 -0.0805 -0.0645
22890W        W39024   6.748  17.883   0.189 -0.1651 -0.2059 -0.2595
22891W        W39025   5.854   9.493   0.998 -0.0498 -0.2442 -0.0325
22892W        W39026   0.214  17.301   3.916 -0.0252  0.2593 -0.1928
22893W        W39027  11.061   0.748   3.561  0.0857 -0.0757 -0.1140
22894W        W39028   9.783   1.488   0.190 -0.1007  0.0077 -0.0403
22895W        W39029  11.832   0.978   3.260 -0.2415 -0.0617  0.0979
22896W        W39030   2.037  16.737  14.040 -0.0497 -0.0299 -0.0733
22897W        W39031   9.219  16.510  11.800 -0.1412  0.4603  0.0888
22898W        W39032  14.307  17.185  15.800 -0.0191  0.1314 -0.0494
22899W        W39033   4.821   9.827   4.839  0.0989  0.0895 -0.0958
22900W        W39034   4.218   4.742   0.018 -0.1502  0.1196 -0.0411
22901W        W39035   6.023   4.123   2.245 -0.0702 -0.0361  0.3678
22902W        W39036   6.067   3.794   3.258 -0.3145 -0.1106 -0.0568
22903W        W39037  17.854   0.353   1.544  0.1030 -0.0409 -0.1292
22904W        W39038   5.128   3.607   1.000  0.0433 -0.0199  0.0644
22905W        W39039  13.126  16.041   3.520  0.1651  0.0045 -0.1491
22906W        W39040  16.668   6.330  15.680  0.1049  0.2023  0.0547
22907W        W39041  13.417   7.786  15.887 -0.1084 -0.0668  0.1690
22908W        W39042  16.708   4.448   1.627 -0.1270 -0.0287  0.3264
22909W        W39043   6.452   2.083  15.149  0.0686  0.0815 -0.3185
22910W        W39044   3.882   4.181   4.006 -0.3226  0.2780 -0.0038
22911W        W39045  11.523   5.597  11.970  0.1656  0.1482 -0.1985
22912W        W39046   0.094   5.592  14.053  0.0806  0.4237 -0.1330
22913W        W39047   8.443  12.202   4.835 -0.1212  0.0742  0.0043
22914W        W39048  13.100  11.148   4.389 -0.0247 -0.1336  0.0265
22915W        W39049   5.813   3.880   3.735  0.1191  0.1956 -0.2937
22916W        W39050  16.463  13.035   0.735 -0.2373  0.0749  0.3137
22917W        W39051   7.574  13.721  13.922  0.2575  0.3008  0.0358
22918W        W39052  17.593   4.515  12.565 -0.0109  0.0415  0.2084
22919W        W39053  10.820  16.183  11.782  0.1190  0.1780 -0.1388
22920W        W39054  15.566  18.206  13.288  0.0985 -0.2235 -0.3396
22921W        W39055   8.542  13.030  11.955 -0.2719  0.0259 -0.1150
22922W        W39056  14.448  17.647  13.322  0.0857 -0.0332  0.1231
22923W        W39057   1.559  11.971   1.063 -0.2517  0.1614  0.0857
22924W        W39058   1.094  17.725  11.791  0.1603  0.3191 -0.2459
22925W        W39059   5.981  14.023  14.593  0.3802 -0.3338  0.1287
22926W        W39060   0.665   1.534  12.842  0.2653  0.1205 -0.1346
22927W        W39061   3.866   1.996   1.006  0.1948 -0.3667 -0.0066
22928W        W39062  12.727  11.145   0.431 -0.1390  0.1393 -0.1441
22929W        W39063  11.507  12.800  15.662 -0.0774 -0.2168 -0.2312
22930W        W39064   1.189   2.311  14.775 -0.0267  0.1328 -0.0409
22931W        W39065   0.833   2.393  10.818  0.0980 -0.1031 -0.1091
22932W        W39066   7.958  17.013  13.168 -0.0149 -0.1026  0.2367
22933W        W39067   6.224   0.760   1.716 -0.0802  0.0673  0.2005
22934W        W39068   8.618   8.262   1.616  0.1092  0.1520  0.0219
22935W        W39069   2.555   6.200  15.194  0.0135  0.2835  0.2406
22936W        W39070  10.141  18.432   0.945  0.2969  0.2124 -0.1034
22937W        W39071   5.446   4.781  10.917  0.0824 -0.0426 -0.1287
22938W        W39072   6.663   1.278  14.340  0.1411 -0.1670 -0.0584
22939W        W39073  11.281  12.378   3.327 -0.1636  0.0958 -0.2342
22940W        W39074  17.164   1.389   0.020  0.1898 -0.2156 -0.1958
22941W        W39075  15.132   2.350  13.270 -0.0212 -0.2548  0.1455
22942W        W39076   3.406   4.892   1.590  0.4312  0.1712 -0.2765
22943W        W39077   2.042   0.017  14.289  0.0150  0.1439 -0.0618
22944W        W39078   9.620   2.673   0.323 -0.0406  0.0563 -0.0502
22945W        W39079   1.607  13.321  14.029 -0.2885 -0.3708  0.3859
22946W        W39080  17.152   9.586   2.483  0.0362  0.1577 -0.0048
22947W        W39081   8.797  16.626   5.429 -0.1036 -0.0599  0.2414
22948W        W39082   2.541  14.269   4.942 -0.0545 -0.0666  0.3587
22949W        W39083   4.207   8.458   4.486 -0.3798  0.0494 -0.2231
22950W        W39084   9.686   6.114  12.366  0.0864  0.3802  0.2261
22951W        W39085  13.321  15.136  13.235 -0.2570 -0.0922 -0.2936
22952W        W39086   8.701  18.293  15.653  0.2266  0.3990 -0.1717
22953W        W39087  13.197   5.207  13.774  0.2392 -0.1596  0.1688
22954W        W39088   1.107   0.872   3.825  0.1622 -0.1669  0.0179
22955W        W39089   8.584  11.723  15.301  0.1028 -0.1382  0.0595
22956W        W39090  15.342   5.169   5.128  0.1346  0.1585  0.0560
22957W        W39091   9.756  12.839  13.492 -0.1761 -0.0584  0.1568
22958W        W39092  16.253   0.468  13.526 -0.2621 -0.2249 -0.1075
22959W        W39093   0.483  10.688   2.565 -0.1994 -0.0332  0.1313
22960W        W39094  17.882  17.399   5.141  0.2946  0.0792  0.1177
22961W        W39095   7.359  12.383   3.494 -0.0938  0.4262 -0.1805
22962W        W39096  16.499  11.833   2.492  0.2174 -0.0606  0.2885
22963W        W39097   5.075   3.974  15.578 -0.1441 -0.0400  0.0463
22964W        W39098   2.251   3.263  15.080 -0.0896 -0.1563  0.2698
22965W        W39099  12.381   2.116  15.161 -0.0411  0.2374 -0.1805
22966W        W39100   7.359   2.799   0.729  0.1016  0.1577 -0.2183
22967W        W39101  17.683   5.579  14.839 -0.0343 -0.0424  0.2392
22968W        W39102   5.740  18.050  10.871  0.2521  0.1939 -0.2847
22969W        W39103  14.513   0.551   0.099 -0.0778  0.1624  0.0303
22970W        W39104   7.260   1.600   2.131 -0.1014  0.1710  0.0127
22971W        W39105   6.497   5.096  12.464 -0.0418 -0.2428  0.0306
22972W        W39106   7.889  12.221  13.808 -0.3547 -0.1047  0.1438
22973W        W39107   8.537  16.649   3.932 -0.0515 -0.1984  0.0078
22974W        W39108  10.761  12.128   0.017 -0.0528 -0.2655  0.0888
22975W        W39109  16.227  10.064   4.185 -0.0237 -0.0784  0.0009
22976W        W39110  12.651  18.126   3.593 -0.0162  0.0749 -0.0205
22977W        W39111  13.035  13.745  11.168 -0.0123  0.1166 -0.1569
22978W        W39112   5.115   8.717  13.617 -0.0886  0.0890 -0.1290
22979W        W39113   9.802   7.811   4.374  0.0099 -0.0485  0.0167
22980W        W39114  12.057   9.266   1.105 -0.3205  0.0591 -0.1050
22981W        W39115   9.932  14.919  13.317  0.2223  0.1239  0.2593
22982W        W39116  12.064  17.257   5.456  0.1521 -0.0688 -0.0648
22983W        W39117  17.715   9.178  11.959  0.2093 -0.1251  0.0547
22984W        W39118  13.059   7.461   0.297  0.0080  0.0167 -0.1676
22985W        W39119  16.700   5.958   4.420  0.2151 -0.0663  0.1501
22986W        W39120   5.034   9.705  13.810 -0.0722  0.0563 -0.0593
22987W        W39121  13.056   0.837   0.376  0.0654 -0.2466  0.0815
22988W        W39122  11.579  13.506   1.458  0.0164  0.0164 -0.2892
22989W        W39123   7.897   2.185   3.581 -0.3050 -0.1572  0.1068
22990W        W39124   6.130  15.288   1.780 -0.1138  0.0122 -0.0459
22991W        W39125   3.250   6.257  13.098  0.2068  0.1257 -0.1273
22992W        W39126   7.163   6.697   5.189  0.0615 -0.1439 -0.0282
22993W        W39127   3.558   5.900  13.985  0.2494 -0.3792  0.2178
22994W        W39128   4.268   8.863  12.491  0.0102  0.1550  0.1343
22995W        W39129   2.340  15.054   3.079  0.0117 -0.1349 -0.2464
22996W        W39130   8.860  11.488  12.388 -0.3848  0.1754 -0.0813
22997W        W39131   3.068  17.494   0.610  0.1694  0.0686  0.3260
22998W        W39132   7.932  17.610  12.029 -0.1441  0.1350 -0.4246
22999W        W39133  16.096   3.908   3.133 -0.1699  0.2475  0.0325
23000W        W39134   3.872  10.655   0.084  0.1144  0.0368  0.0963
23001W        W39135  17.750  10.191   2.930 -0.0957 -0.1188  0.0387
23002W        W39136   6.173   0.106  11.952 -0.3596 -0.0406 -0.2616
23003W        W39137  11.253  10.517   2.749 -0.0229  0.1198  0.3670
23004W        W39138   8.777  16.268   0.510 -0.1440 -0.3975  0.0998
23005W        W39139  15.326  10.751   2.121  0.1441  0.4531 -0.1385
23006W        W39140   3.730   5.020   5.713  0.1177  0.5694  0.2289
23007W        W39141   3.354  15.638  13.276  0.3029  0.1031  0.3856
23008W        W39142  12.235  14.703   2.138  0.0018 -0.1309  0.0286
23009W        W39143   5.155   1.392  11.244 -0.1792  0.3157  0.2148
23010W        W39144   3.630   0.633   0.408 -0.3764  0.1806 -0.0799
23011W        W39145   7.886  13.984   1.393  0.1591 -0.1971 -0.2646
23012W        W39146   6.199  17.093   3.494 -0.0901 -0.3497 -0.4378
23013W        W39147  10.575  14.013   3.761 -0.1126 -0.0986 -0.0760
23014W        W39148   0.807  14.500   0.824 -0.0088  0.0489  0.2778
23015W        W39149   7.488   1.606   3.544 -0.1475 -0.4892  0.1751
23016W        W39150  11.684  17.706  10.542  0.2679  0.0073  0.0212
23017W        W39151   5.149   0.958   4.046 -0.0165 -0.0965  0.1542
23018W        W39152  17.815  17.869   1.667 -0.3404  0.0493 -0.0149
23019W        W39153  14.035   6.904  11.951 -0.0937  0.1598  0.0562
23020W        W39154   5.632  16.083   3.003 -0.1742  0.0248  0.0154
23021W        W39155  18.116  13.994   3.743  0.0624 -0.0807 -0.2750
23022W        W39156   7.743   5.601   3.998  0.4331  0.1978 -0.0825
23023W        W39157  12.147  10.285   0.883  0.2464  0.2973 -0.1204
23024W        W39158   0.647  17.538  11.910 -0.1839 -0.0542 -0.0561
23025W        W39159   5.428   6.806  15.436  0.0551 -0.0454 -0.0722
23026W        W39160   0.951  11.929   2.560 -0.0055  0.0125  0.1923
23027W        W39161   9.557  14.373   3.358  0.0105 -0.0045 -0.0066
23028W        W39162  16.089  17.611  14.117 -0.1636 -0.0652  0.3002
23029W        W39163   9.923  17.332   4.747  0.2359  0.1535 -0.2957
23030W        W39164   7.054  14.159  14.706  0.1238  0.3039  0.0387
23031W        W39165  10.623  10.386   0.108 -0.1266  0.2485  0.0576
23032W        W39166   6.605   8.911  12.437 -0.0962  0.0198  0.4334
23033W        W39167  17.419  17.865  15.193 -0.1236  0.1425 -0.0198
23034W        W39168  16.053   0.879   1.951  0.1752 -0.1963  0.0250
23035W        W39169  14.049   6.424   2.869 -0.1892 -0.2301  0.0930
23036W        W39170  15.824   2.147  12.219 -0.4301 -0.2063 -0.3663
23037W        W39171   3.824   6.748   1.008 -0.1748  0.3965  0.0533
23038W        W39172   2.733   4.177  11.503  0.0177 -0.1900 -0.0506
23039W        W39173   3.758  17.234   0.534 -0.0008 -0.0990 -0.1072
23040W        W39174  11.707  16.899   4.579 -0.0129 -0.0639  0.1601
23041W        W39175   1.036  10.248  13.455  0.0523  0.3711 -0.3166
23042W        W39176   1.343   3.646  14.064  0.0079 -0.2309 -0.0514
23043W        W39177  15.278   0.493   1.906  0.1597 -0.1924 -0.1526
23044W        W39178  11.887   1.629  12.770  0.2774  0.1125  0.0403
23045W        W39179   5.733   9.804  14.381  0.0732 -0.1727  0.2974
23046W        W39180   9.288   9.569   5.475 -0.4198  0.4984 -0.2415
23047W        W39181  12.956   1.605   5.287 -0.0923  0.1085  0.1183
23048W        W39182   2.608  13.828   4.134  0.0715 -0.1172 -0.0681
23049W        W39183  14.280   1.758  15.091  0.3017 -0.0024 -0.0221
23050W        W39184  11.066   1.109   3.904  0.0602  0.0798  0.0583
23051W        W39185   9.125   5.017  14.874 -0.2410 -0.1237  0.0851
23052W        W39186  14.189  17.585   5.368  0.2996 -0.2685 -0.1361
23053W        W39187  14.701  10.090   3.814  0.0010  0.1419 -0.0610
23054W        W39188   7.435  17.050  14.138 -0.0335  0.1969 -0.0893
23055W        W39189  15.891   7.958   4.670 -0.1615 -0.1801 -0.1961
23056W        W39190   2.764   2.301  11.183 -0.0398  0.1881 -0.1643
23057W        W39191   6.332  17.919  13.077  0.0912 -0.2276  0.1895
23058W        W39192  11.369  13.496   2.622 -0.3362  0.0104  0.1396
23059W        W39193  16.057   1.181   0.172  0.0122 -0.0258 -0.0079
23060W        W39194   7.292  17.580   0.889 -0.2639 -0.1981  0.3838
23061W        W39195   8.338  10.898   1.059 -0.4888  0.2290  0.0964
23062W        W39196   5.557   9.586   4.356  0.0056 -0.1807  0.4799
23063W        W39197  14.386  13.151   3.258 -0.1374  0.0229 -0.1513
23064W        W39198   3.652   3.869   2.889  0.0022 -0.1551  0.0636
23065W        W39199   6.207  14.273   3.315  0.1185 -0.2375  0.1980
23066W        W39200   5.917  12.323  14.872 -0.0393 -0.0868 -0.3927
23067W        W39201   5.653   8.376  14.006 -0.1031 -0.1303  0.2255
23068W        W39202   3.422   1.472   0.089  0.2869 -0.1797 -0.3704
23069W        W39203   4.061   3.138   1.655  0.0857  0.3227  0.2026
23070W        W39204   6.191  10.463   4.063 -0.0151 -0.3466  0.3739
23071W        W39205   2.846   3.061  15.837  0.1259 -0.1929  0.0736
23072W        W39206  15.667  14.998   4.176  0.1860  0.0536 -0.0515
23073W        W39207  16.453   1.761  10.539 -0.1960  0.1347 -0.0933
23074W        W39208   3.966   9.930   1.791 -0.0975  0.2986  0.2417
23075W        W39209  15.808  13.383   5.292  0.3597  0.1523 -0.2005
23076W        W39210  18.299  11.525   5.132  0.0084 -0.0383  0.0089
23077W        W39211   6.084   3.298  10.368  0.0861  0.1499 -0.1473
23078W        W39212  18.269  10.343  13.395  0.0892  0.1582  0.1869
23079W        W39213   0.901   9.081  11.998  0.1857  0.0940  0.1144
23080W        W39214  15.491   6.763   3.754 -0.0170  0.1539 -0.0842
23081W        W39215   6.476   1.998   3.843  0.1170 -0.0522  0.0615
23082W        W39216  16.522  12.628   1.087  0.0447  0.0071 -0.1610
23083W        W39217   9.730   1.766   1.093  0.1018  0.1844 -0.1383
23084W        W39218  13.443  17.854   4.851  0.0958 -0.0520  0.2219
23085W        W39219   9.735   4.241   0.980 -0.2719 -0.0440  0.2438
23086W        W39220   2.481  13.577  14.582 -0.3780 -0.0467  0.4170
23087W        W39221   5.798  16.314  15.659  0.0137 -0.0458 -0.0253
23088W        W39222   0.717  16.400   0.542  0.0026  0.0388  0.3300
23089W        W39223  17.319  17.392   3.829 -0.2546  0.1225 -0.2124
23090W        W39224  10.926   1.012   1.503 -0.0337  0.0513  0.1091
23091W        W39225  14.384  10.906  12.799  0.1306  0.1256 -0.3483
23092W        W39226  14.084  18.103   0.269 -0.2891  0.0080 -0.2131
23093W        W39227   1.934   4.472   4.944  0.0859  0.0774 -0.2163
23094W        W39228   5.809   5.436   1.830  0.0748  0.1358  0.2845
23095W        W39229   5.257   0.981   2.120 -0.1216 -0.1694  0.0007
23096W        W39230  10.464  18.118   0.336 -0.2067  0.2786 -0.1447
23097W        W39231  12.603  10.950  14.485 -0.1831  0.0462  0.2750
23098W        W39232   5.027   8.620  14.576 -0.0523 -0.1589  0.0944
23099W        W39233   1.620  10.406  11.803  0.3801  0.2356  0.0047
23100W        W39234   8.762   4.537  11.972  0.0513 -0.0508  0.0192
23101W        W39235  11.689  16.980   2.394 -0.0215  0.3636 -0.0753
23102W        W39236   8.163  11.477   2.469 -0.0375 -0.1695  0.1984
23103W        W39237  13.110   8.003  14.694 -0.0131 -0.2304  0.3523
23104W        W39238  16.909   5.079   4.473  0.0388  0.1738 -0.0539
23105W        W39239  13.435  13.410   2.997 -0.0036  0.0094  0.0937
23106W        W39240   6.612   7.368   4.126  0.0807 -0.1900 -0.2861
23107W        W39241   3.582   2.427  12.257 -0.1990  0.2468 -0.0624
23108W        W39242  11.764   5.067  13.562  0.0554 -0.0255  0.3043
23109W        W39243   9.429  12.353  12.224 -0.0614 -0.0728  0.1256
23110W        W39244  11.535   6.142   4.123  0.4707  0.0893 -0.2265
23111W        W39245  13.640  12.360   4.634 -0.0941 -0.1203 -0.5683
23112W        W39246  10.080   7.359  12.250 -0.3551  0.1083  0.1992
23113W        W39247   3.705   4.986  15.260 -0.1601 -0.0279 -0.3755
23114W        W39248  15.217   1.320  14.035 -0.1190  0.0296  0.3083
23115W        W39249  18.460  11.636   4.676 -0.4070 -0.0752  0.0612
23116W        W39250   5.865  10.541  13.223 -0.0811 -0.0029 -0.1663
23117W        W39251   8.969  11.616  15.777  0.3049  0.0100  0.2082
23118W        W39252  13.139   8.121  13.002  0.1499 -0.0569 -0.0470
23119W        W39253  12.676   8.270  11.603  0.6405  0.1656 -0.1750
23120W        W39254  12.510   9.800  11.407  0.1004 -0.1219  0.0063
23121W        W39255   2.958   8.092   3.625  0.1412  0.3071 -0.3239
23122W        W39256   2.968   1.293   1.308 -0.1985 -0.1538 -0.0818
23123W        W39257  14.582   9.419   4.569 -0.2125  0.2033  0.0886
23124W        W39258  11.587   9.428   1.781  0.2546  0.3232  0.2183
23125W        W39259   8.237  13.329   3.466  0.0321  0.2255 -0.0912
23126W        W39260   2.678   3.386  14.056 -0.2798 -0.0934 -0.1470
23127W        W39261   0.739   3.838  11.906 -0.2581  0.0944 -0.0947
23128W        W39262   2.288   1.636   5.001 -0.0363 -0.2328  0.0968
23129W        W39263  15.608  11.291   2.398  0.0054 -0.0160  0.1265
23130W        W39264   5.507   4.321   2.141 -0.2242  0.0536  0.1993
23131W        W39265   0.042  12.474   5.919  0.1453  0.2320 -0.0472
23132W        W39266  17.374   7.551  14.045  0.0400 -0.1469 -0.1313
23133W        W39267  10.672   5.463   3.208 -0.0695  0.0879 -0.0071
23134W        W39268   0.236  13.643  14.579 -0.0906  0.0748 -0.1833
23135W        W39269   9.709  15.402  15.659 -0.2411  0.3487 -0.7611
23136W        W39270   8.378   4.222   3.127 -0.0056  0.0658 -0.0372
23137W        W39271   0.158   3.884   0.285 -0.3518  0.2381 -0.1081
23138W        W39272  16.794   0.478   0.902 -0.3703  0.0742 -0.0541
23139W        W39273  15.370   9.357  15.561  0.3000  0.0633 -0.2002
23140W        W39274  13.875  12.051   1.148 -0.0808 -0.0462 -0.0737
23141W        W39275  16.719   8.431   3.688 -0.0562  0.2825  0.2028
23142W        W39276  14.041  13.442   5.071  0.3283 -0.0898  0.0004
23143W        W39277  16.671   5.013   2.408  0.3171  0.1313 -0.0211
23144W        W39278  12.298  16.952  12.196 -0.1789  0.1913 -0.1110
23145W        W39279   5.020  10.142   4.486  0.0833  0.1850 -0.1237
23146W        W39280   2.604  16.571  11.888  0.3633  0.1814 -0.2550
23147W        W39281  13.767   0.573  13.237  0.2354 -0.0561 -0.5846
23148W        W39282  11.488   6.908   0.567  0.1345  0.0283 -0.1243
23149W        W39283  14.859   0.602  12.274  0.1052  0.1123 -0.0969
23150W        W39284   9.938  15.002   0.040  0.1979  0.0885  0.1411
23151W        W39285  16.707  17.008   2.451  0.2563 -0.1317 -0.1765
23152W        W39286   5.034   0.126  12.753 -0.1053 -0.1772 -0.1353
23153W        W39287  10.792   1.406  13.852 -0.1073  0.0725  0.1634
23154W        W39288   8.675  16.819  12.285  0.1040  0.2830 -0.1338
23155W        W39289  15.640   9.093  13.522 -0.0386  0.2617  0.1499
23156W        W39290   1.303   9.814  15.333  0.2001 -0.0030 -0.2632
23157W        W39291  11.440   8.964  14.384  0.0981  0.1102 -0.1281
23158W        W39292   5.725   9.543   1.984  0.1576  0.4942 -0.0316
23159W        W39293  11.861  15.800  12.876  0.0245 -0.0146 -0.1103
23160W        W39294  12.007   2.992   1.457  0.2423  0.0598  0.1581
23161W        W39295   8.717  18.076   2.740 -0.0567  0.2571  0.1617
23162W        W39296  13.690  16.229  11.198  0.2428  0.1614  0.0816
23163W        W39297   5.745  16.974   0.786  0.2252 -0.0473  0.2202
23164W        W39298  18.345   5.882  13.255  0.1116 -0.0002  0.1915
23165W        W39299  15.633  12.307  13.390 -0.0123  0.2250  0.0446
23166W        W39300   9.673  12.035   5.489  0.1373  0.1899 -0.1392
23167W        W39301  11.662   4.862  12.116  0.0862 -0.0234  0.3403
23168W        W39302  16.486  16.762   2.926 -0.1445 -0.0046 -0.0209
23169W        W39303  13.745   2.704   4.700  0.1274  0.0678  0.0347
23170W        W39304   0.023   1.528  13.183 -0.3328  0.2396 -0.0461
23171W        W39305   2.895   6.381   3.529 -0.3359  0.0888 -0.3157
23172W        W39306  10.457   8.111   1.915  0.0149  0.3604 -0.1281
23173W        W39307   4.033   5.573  10.331  0.4489  0.0138  0.0140
23174W        W39308   8.600   4.961   0.492  0.0657 -0.3232 -0.0637
23175W        W39309  13.075   6.693   3.738 -0.2716  0.2448 -0.0828
23176W        W39310  14.288   6.840   2.734 -0.2407 -0.2338  0.1357
23177W        W39311   3.041   6.519   4.982 -0.3575  0.2129  0.0765
23178W        W39312   2.972   4.285  13.122  0.0614  0.0394 -0.3330
23179W        W39313   4.793  10.282  10.958  0.0168 -0.1261  0.0184
23180W        W39314   1.981   8.200   9.829 -0.2302  0.1355 -0.1099
23181W        W39315  18.220  13.370  12.848 -0.2675 -0.2087  0.1359
23182W        W39316  11.903  14.829  11.793 -0.2175 -0.1257 -0.0852
23183W        W39317  17.994   1.398   4.013  0.1473 -0.1296  0.0317
23184W        W39318   5.158  14.321  13.672  0.1037  0.1247 -0.2490
23185W        W39319   9.817  14.865  10.454  0.0330 -0.1323  0.0912
23186W        W39320   4.347  12.367  14.580 -0.0263  0.1973  0.0478
23187W        W39321  16.173   8.809  14.989 -0.0213  0.0196 -0.0123
23188W        W39322  18.464  12.131   0.470 -0.1288 -0.2548  0.3828
23189W        W39323   3.579  14.930  14.358  0.0164 -0.1098 -0.0760
23190W        W39324   7.477  16.876   3.498  0.1011 -0.0151  0.0330
23191W        W39325   3.790   9.174  12.590 -0.3939 -0.1520 -0.3242
23192W        W39326   2.602  10.818  11.374  0.1273  0.1450 -0.1145
23193W        W39327   2.375  16.139  13.404  0.0041 -0.0688 -0.1449
23194W        W39328  12.710  18.432  11.850  0.0176 -0.0915 -0.2028
23195W        W39329   4.252  14.470   0.847 -0.2335 -0.0790 -0.0411
23196W        W39330   2.404  14.465  15.588 -0.2165  0.0617  0.0354
23197W        W39331   0.866   1.261  15.713 -0.2774  0.1064  0.0526
23198W        W39332   5.343  14.602  12.953 -0.0465 -0.1529  0.0074
23199W        W39333   5.623   0.469   0.681  0.0029  0.2566  0.3143
23200W        W39334   8.985  12.729   3.528  0.0604  0.2279 -0.2300
23201W        W39335  10.892  12.427  14.237  0.1500  0.1382 -0.2093
23202W        W39336   3.029   6.344  12.544 -0.0162  0.0276 -0.1418
23203W        W39337  13.589   6.556   1.384 -0.0982  0.3556  0.1504
23204W        W39338  14.079  12.102  12.265 -0.1224  0.1679  0.0722
23205W        W39339  14.934   8.287   5.053 -0.1085 -0.3559 -0.1825
23206W        W39340   2.867  10.850   1.181  0.1483 -0.1239  0.3758
23207W        W39341   4.256  10.493  14.651  0.2002 -0.0587  0.1633
23208W        W39342   9.346  10.436   0.135 -0.1873 -0.1745 -0.0185
23209W        W39343  14.047   5.525   4.030  0.3722  0.1555  0.1754
23210W        W39344   2.314  18.356  12.133 -0.3061 -0.0370  0.2079
23211W        W39345   9.924   1.249  13.451 -0.2772  0.0945 -0.1389
23212W        W39346  14.077  15.509   5.838  0.3741 -0.2566  0.0083
23213W        W39347   8.594   6.225   4.119 -0.0165  0.4656 -0.0701
23214W        W39348   6.828  14.887  12.730  0.0873 -0.0323  0.0461
23215W        W39349  16.992   6.231   4.149  0.0569 -0.0247  0.0448
23216W        W39350   7.583   3.196  12.275 -0.1577 -0.0065 -0.2197
23217W        W39351  17.509  16.546   2.410  0.0735  0.0095  0.0575
23218W        W39352   2.981  17.620   5.968 -0.3102  0.1120  0.4188
23219W        W39353  14.888  11.176   3.958  0.0559  0.0312  0.1126
23220W        W39354  10.814   9.381  12.425  0.0597  0.2771  0.2278
23221W        W39355   0.071   7.466   0.566 -0.0248 -0.1686 -0.0991
23222W        W39356  13.791   2.149   4.004 -0.1888  0.0071 -0.0446
23223W        W39357  17.769   8.629  11.972  0.1196  0.0225  0.2344
23224W        W39358  14.375  13.909  11.478  0.2047  0.2132  0.2864
23225W        W39359  11.722   9.175  14.704 -0.0734  0.0459  0.0283
23226W        W39360  14.623   6.429   5.084 -0.1598 -0.2174  0.1828
23227W        W39361  11.192   8.115  12.390  0.0835  0.0705  0.1826
23228W        W39362   0.118   7.390   1.636 -0.1323  0.2192  0.1769
23229W        W39363   5.070  17.913   2.105  0.0782  0.1812 -0.2347
23230W        W39364  11.779   6.046   3.555 -0.0213 -0.2397 -0.2452
23231W        W39365  16.991   8.895  11.595  0.0505 -0.1845  0.0213
23232W        W39366   2.202   1.526  13.049  0.1725  0.4752 -0.0349
23233W        W39367  11.118   8.926   0.254  0.0033  0.1138 -0.2018
23234W        W39368   1.013   9.051   1.780  0.0664 -0.0687 -0.0383
23235W        W39369   9.923  10.661  11.744  0.1874 -0.0659 -0.0589
23236W        W39370   1.843  10.755   4.320  0.0495  0.0585 -0.1163
23237W        W39371  17.619  12.148  14.223 -0.1141 -0.1052  0.0886
23238W        W39372   9.873   3.474   3.408  0.0278  0.0406  0.0453
23239W        W39373   2.768   1.195   2.801 -0.3024 -0.0503  0.1337
23240W        W39374   5.113   8.030   0.104  0.0799  0.2717 -0.2529
23241W        W39375  15.376   1.069  13.597  0.0218 -0.1509 -0.2300
23242W        W39376  12.253  11.626  12.019 -0.0772  0.5418 -0.1733
23243W        W39377  17.416  17.953   0.508 -0.0746 -0.1020 -0.2463
23244W        W39378   0.117   1.033   5.103 -0.0271  0.0776 -0.3943
23245W        W39379   5.183   6.771   4.815  0.0104  0.3019  0.0486
23246W        W39380  15.784  12.458   0.465  0.2297  0.1665  0.1863
23247W        W39381   5.640  11.013  13.393  0.1391 -0.0099  0.1236
23248W        W39382   8.363   8.480   3.701  0.1220  0.0250  0.0400
23249W        W39383   3.422  18.231  13.328  0.2519 -0.0219  0.3070
23250W        W39384  15.751   5.938  13.258 -0.1102  0.0390 -0.1637
23251W        W39385   8.834  12.639  11.637 -0.1522  0.1892 -0.1393
23252W        W39386  11.599   7.992  12.058  0.0836 -0.1465  0.0273
23253W        W39387  14.647   5.512  14.760  0.0710  0.0030 -0.0340
23254W        W39388  16.155   3.056  13.436 -0.2841  0.0850  0.1229
23255W        W39389  13.608  11.084   4.986  0.2330  0.0711  0.1742
23256W        W39390  13.501   8.580   0.830  0.1790  0.0632  0.1297
23257W        W39391   8.288  11.538  14.462 -0.0719  0.1844  0.4261
23258W        W39392   9.668  17.454   1.499  0.3276  0.0457 -0.1687
23259W        W39393  18.347  12.442   1.397  0.0434  0.0263 -0.1318
23260W        W39394   9.569  18.059   4.454 -0.0456  0.0315  0.1797
23261W        W39395   4.532  15.676  13.806 -0.1717 -0.1616 -0.0414
23262W        W39396  17.871  10.707   4.720  0.0645  0.1764 -0.5732
23263W        W39397   9.771   5.994   3.302 -0.1241  0.0752  0.2236
23264W        W39398  12.507   7.379   2.071 -0.2540 -0.3194 -0.1028
23265W        W39399   0.343   8.795  14.577  0.1125  0.0559  0.3140
23266W        W39400   4.182  18.016   2.416 -0.4483 -0.0219 -0.3150
23267W        W39401  17.243  11.978  12.457  0.2027  0.2010 -0.2378
23268W        W39402  13.316  12.687  14.295 -0.2118  0.1408 -0.0513
23269W        W39403  16.004  17.849   9.923 -0.2464  0.0684 -0.0954
23270W        W39404   9.261  16.554  14.879 -0.0256  0.1800 -0.0214
23271W        W39405  10.660  18.442   1.122  0.0641  0.2771  0.0666
23272W        W39406  11.241   1.888   2.631  0.0748 -0.0866  0.2009
23273W        W39407   1.567   9.852   9.551 -0.0606 -0.1100 -0.2062
23274W        W39408   6.264   4.298   6.058  0.0638  0.1206  0.2224
23275W        W39409   7.303   1.195   2.481 -0.0754  0.0497 -0.1945
23276W        W39410  17.321   1.331   4.697  0.1382 -0.0580 -0.3997
23277W        W39411   9.781  18.011  11.490  0.1277  0.2238 -0.1051
23278W        W39412   8.428  10.276   1.077  0.0908  0.4331  0.0444
23279W        W39413  11.710  17.047  11.066  0.1808  0.1148 -0.0260
23280W        W39414   8.387   0.773   2.438  0.1531 -0.0841  0.1647
23281W        W39415   0.932   5.354   2.286  0.1882  0.1396  0.1988
23282W        W39416   6.769   3.589  13.949 -0.0572 -0.0453 -0.2642
23283W        W39417  11.935   6.270  10.064  0.1585  0.0534 -0.1396
23284W        W39418   6.173   1.309  11.590  0.0233 -0.0549  0.1887
23285W        W39419  10.442  15.859   6.071 -0.1940 -0.1079 -0.0721
23286W        W39420   8.478  18.466  11.161  0.0549  0.2211 -0.0905
23287W        W39421   0.364   1.339  11.841  0.1892 -0.0677 -0.0343
23288W        W39422  15.883   8.480  14.199 -0.2153  0.0956  0.2083
23289W        W39423   6.902  11.264   3.442  0.3512 -0.0584  0.2489
23290W        W39424  18.250   0.852  15.546 -0.0178  0.2164 -0.0778
23291W        W39425   0.187   6.418  15.470  0.1214 -0.3161 -0.1343
23292W        W39426   1.054   2.554  15.826  0.2418  0.1794  0.0715
23293W        W39427   8.585  10.967  11.613  0.1035 -0.2002  0.1023
23294W        W39428  12.100   6.628  10.988 -0.2457 -0.2067  0.0364
23295W        W39429  18.207  16.684  12.771 -0.3782 -0.1081  0.1171
23296W        W39430  10.851  10.825   1.941  0.1484 -0.0066  0.0532
23297W        W39431  17.894   5.288   5.866 -0.0304  0.3425 -0.0641
23298W        W39432   3.103   8.907   2.446 -0.0249  0.2895 -0.2929
23299W        W39433  11.869  17.853  13.712  0.1637  0.0687  0.2534
23300W        W39434  14.966   8.550   2.525 -0.0296  0.0619 -0.0244
23301W        W39435  12.520  10.843   5.191 -0.0556  0.0982  0.3521
23302W        W39436  16.104   0.092   2.333 -0.1331  0.1372  0.1633
23303W        W39437   1.776  12.814  12.604  0.0385 -0.2019  0.1665
23304W        W39438   8.940  11.451  13.754 -0.1026 -0.0702  0.0238
23305W        W39439  10.213  18.401   4.881 -0.2599 -0.1730  0.0425
23306W        W39440  10.285  15.604   2.694 -0.0147 -0.2936  0.0855
23307W        W39441  15.849  15.904   0.076  0.0519  0.0386  0.0226
23308W        W39442  17.047   6.060  12.089 -0.3957 -0.1051  0.0115
23309W        W39443  18.056   6.437   2.436  0.3199 -0.0790 -0.0801
23310W        W39444  16.552  16.611  15.886  0.1625 -0.2180  0.2900
23311W        W39445  14.362   5.063  11.428  0.1275 -0.2012  0.0802
23312W        W39446  14.742   2.382   0.663 -0.1791  0.1313 -0.2594
23313W        W39447   4.143  13.418  15.063  0.0293 -0.1256  0.0035
23314W        W39448   4.834  14.089  14.577 -0.0439  0.0215  0.0047
23315W        W39449   2.451   9.292  10.541  0.1598 -0.2754  0.1583
23316W        W39450   5.352   2.790  11.855 -0.1833  0.3356  0.0778
23317W        W39451   4.562   7.377   1.113 -0.0773  0.2512  0.1432
23318W        W39452   8.860  14.391  15.723  0.3986  0.0911  0.2858
23319W        W39453  13.789  13.021  11.357  0.2559 -0.1495 -0.2807
23320W        W39454   6.852  11.718  15.750  0.2850  0.1128  0.2061
23321W        W39455  13.234  12.932   4.419  0.1624 -0.0802 -0.0636
23322W        W39456  18.149  17.785   5.308  0.4220 -0.1562  0.2961
23323W        W39457  18.280  17.076  12.468  0.1092  0.2796 -0.2611
23324W        W39458   4.973  16.305  15.118 -0.1827  0.0682 -0.5016
23325W        W39459  13.620   2.239  10.903  0.1261 -0.3066  0.1440
23326W        W39460  14.416   1.935  13.124  0.2739  0.2013  0.2478
23327W        W39461   2.076  12.198  12.821 -0.0204 -0.2801  0.1162
23328W        W39462  12.637  12.691   0.102  0.0918  0.1469  0.0767
23329W        W39463   4.402   6.029  11.893  0.1313 -0.0241 -0.0443
23330W        W39464   0.381   4.631  15.549  0.0144 -0.0673 -0.1301
23331W        W39465  14.100   9.082  14.197 -0.0528  0.0228  0.2923
23332W        W39466   8.751   4.971  14.097 -0.0844  0.0621 -0.1440
23333W        W39467   7.401   6.091  12.482  0.0359 -0.0606  0.3461
23334W        W39468  15.804   2.753   1.890 -0.3416 -0.2036  0.1140
23335W        W39469  12.639  12.219   4.031  0.0178 -0.1203  0.1067
23336W        W39470  16.736  15.681  12.779 -0.1390 -0.1882 -0.0434
23337W        W39471   3.642   8.728   1.037 -0.3574  0.0932 -0.2404
23338W        W39472   5.382  10.751   2.672  0.2437 -0.2393  0.0752
23339W        W39473  13.491   9.289   1.805 -0.3366 -0.0474  0.1860
23340W        W39474  10.184   9.973  10.362 -0.0968 -0.1294  0.2381
23341W        W39475   5.773  10.253  11.142 -0.0328 -0.0266  0.1552
23342W        W39476  15.624   6.848  13.852 -0.0314 -0.0255  0.0462
23343W        W39477  10.939   0.759  15.216  0.0297  0.1403 -0.1863
23344W        W39478   8.770  13.953   2.086  0.0301  0.0328  0.1011
23345W        W39479  13.698  15.094   3.197  0.0436 -0.0975  0.0550
23346W        W39480   7.280  13.868   0.203 -0.1499 -0.1864  0.3508
23347W        W39481   6.661  14.967  15.193  0.3024  0.0239 -0.0581
23348W        W39482   3.342  12.512  12.255 -0.0291  0.3007 -0.1526
23349W        W39483  13.147   0.308  14.220 -0.0671  0.0782 -0.2134
23350W        W39484  12.648  14.399   3.573  0.1098 -0.1639 -0.1022
23351W        W39485   2.175   1.327  14.535 -0.1463  0.0610  0.1828
23352W        W39486  17.551  10.776   3.809 -0.0750 -0.0562  0.2378
23353W        W39487  11.477  13.572  11.921  0.1845 -0.0487 -0.4692
23354W        W39488  11.686   5.336  11.482 -0.0480 -0.1419  0.0185
23355W        W39489   7.988  15.698  14.542 -0.0926 -0.0147 -0.1834
23356W        W39490  15.580  12.815   2.747  0.1677 -0.0572 -0.0139
23357W        W39491   5.516   9.292  13.097  0.0487 -0.2482 -0.0615
23358W        W39492   7.116  12.769   0.085  0.1487 -0.1459 -0.1041
23359W        W39493  13.199  17.579   1.003  0.1685 -0.0049 -0.0281
23360W        W39494  14.399   6.426   2.409  0.0615 -0.4453 -0.0756
23361W        W39495  10.459  10.040   2.773 -0.1985 -0.0337  0.0366
23362W        W39496   8.924  15.588   5.090  0.0251  0.2131 -0.0497
23363W        W39497  13.818   8.092   0.670  0.0446 -0.1230 -0.2232
23364W        W39498   5.117  16.178   3.840 -0.1315  0.0568  0.0269
23365W        W39499  13.247   9.966  15.719  0.2198  0.1318  0.4103
23366W        W39500  17.406   9.424   4.928 -0.1177  0.1594 -0.1349
23367W        W39501  16.966   2.861  14.833 -0.0103 -0.2117 -0.2717
23368W        W39502   6.440   6.217   4.679 -0.1297  0.2673 -0.1471
23369W        W39503   4.538  13.181  14.221 -0.2548  0.3731  0.2883
23370W        W39504   6.123   7.970   3.322  0.0656  0.1591 -0.0025
23371W        W39505   6.752   4.631  14.684  0.3550 -0.0041  0.0398
23372W        W39506   7.037  12.380   4.575  0.1632  0.0407  0.0361
23373W        W39507  18.071   6.406  15.234 -0.0021 -0.3461 -0.1124
23374W        W39508  12.435  10.694  12.518  0.1934 -0.0155  0.2358
23375W        W39509  14.607   5.843  13.548  0.0633  0.0203 -0.1445
23376W        W39510   9.050   8.423  13.201 -0.1475 -0.3605  0.1538
23377W        W39511   2.484   1.066   1.894 -0.1085 -0.0647  0.1894
23378W        W39512  12.822   2.611   2.234  0.0145  0.2252  0.0517
23379W        W39513   8.039  12.743   0.039  0.0579  0.1950  0.0383
23380W        W39514   3.932   2.805   0.275  0.3154 -0.0861 -0.1617
23381W        W39515   2.133  17.236  10.802 -0.2297  0.0744  0.4117
23382W        W39516  15.884   4.429   1.870 -0.1955  0.1902  0.3066
23383W        W39517   4.897  11.717  12.310 -0.4005 -0.4032  0.0156
23384W        W39518  17.572   8.176  12.273  0.0900  0.1377  0.2730
23385W        W39519   4.177  12.761  14.297  0.2791  0.0848  0.1535
23386W        W39520   9.390   0.722   0.077 -0.3641  0.1013 -0.0794
23387W        W39521   2.812   2.558   1.661  0.0950  0.1931 -0.1543
23388W        W39522   1.237   2.724  14.503  0.1257  0.0244  0.1089
23389W        W39523   8.305   4.800   2.624  0.0402 -0.0075 -0.0706
23390W        W39524  12.533   5.958  12.727 -0.0201 -0.0191  0.0600
23391W        W39525   1.659   5.985  15.213 -0.1757 -0.2249 -0.2499
23392W        W39526   2.763   5.471   4.176  0.2428 -0.1732  0.0277
23393W        W39527  16.276   7.892  13.385 -0.1159 -0.1787 -0.1523
23394W        W39528  10.741   2.254   9.997  0.1055 -0.2709  0.0860
23395W        W39529   1.077   0.411   3.277  0.2485 -0.0345 -0.1050
23396W        W39530   4.451  11.978   3.739 -0.1251  0.3080  0.1803
23397W        W39531   0.155   6.185   2.465  0.3173  0.0569 -0.0393
23398W        W39532   3.051  11.468   4.141  0.1126  0.0783 -0.0824
23399W        W39533   7.173   7.764   3.348 -0.0999 -0.1199  0.0352
23400W        W39534  11.002  15.827   4.884 -0.2902  0.0065 -0.1215
23401W        W39535  16.176   8.363   4.529 -0.2605  0.0945 -0.3054
23402W        W39536   7.853   7.080   1.271  0.0438 -0.0025  0.1610
23403W        W39537  13.258  14.535  11.512 -0.1501 -0.0932 -0.2398
23404W        W39538  10.905   3.640   2.078  0.1338  0.0824  0.1579
23405W        W39539  12.227  16.596   1.546 -0.0283 -0.2643 -0.3359
23406W        W39540  17.308   6.886  15.285 -0.0585  0.1689 -0.0435
23407W        W39541   2.692   2.857  14.187 -0.1731 -0.2579 -0.4912
23408W        W39542  13.842   7.122  13.505  0.0976  0.1049  0.1124
23409W        W39543   4.592  16.429  15.581  0.3104 -0.2675  0.1324
23410W        W39544  13.259  10.221   5.505 -0.0407  0.0581  0.0608
23411W        W39545   5.929   3.023   1.960 -0.0377 -0.1101 -0.1737
23412W        W39546  10.975   1.747  14.601  0.2602  0.1234  0.2803
23413W        W39547  18.338   7.682  14.992 -0.2657  0.0567  0.1745
23414W        W39548  10.297   0.114   3.378  0.1427  0.0318  0.1579
23415W        W39549   8.764   1.251  13.954 -0.0923  0.0024 -0.0758
23416W        W39550   3.601  13.487  11.062  0.0263  0.0503 -0.1797
23417W        W39551  11.743   1.969   2.439  0.2504 -0.1592  0.2152
23418W        W39552  12.780   1.891  13.400  0.0887  0.1326 -0.1630
23419W        W39553   9.724   9.188  15.292 -0.0421 -0.0353  0.2104
23420W        W39554   7.548   0.297   2.016  0.0271  0.0432  0.0192
23421W        W39555   9.999  13.815  13.388 -0.3559  0.1170  0.0438
23422W        W39556   4.191  17.306   3.859 -0.0466 -0.2533 -0.0137
23423W        W39557   2.064   0.693   0.928 -0.1735  0.2023 -0.1757
23424W        W39558  10.877  14.249   0.338  0.1235 -0.0037  0.0596
23425W        W39559   4.179   6.715   4.419  0.2949  0.0384 -0.2644
23426W        W39560   4.249  18.277  14.386 -0.1718  0.2075 -0.2834
23427W        W39561   7.150   7.244  13.316 -0.3009 -0.0207  0.2164
23428W        W39562   6.720   4.748   0.395 -0.0472  0.2321 -0.0442
23429W        W39563   7.853   1.745  11.277  0.0959  0.0857 -0.0815
23430W        W39564   5.664   6.682   0.143  0.1832 -0.2112  0.0394
23431W        W39565  16.829   8.748  15.713  0.1076  0.0624 -0.1847
23432W        W39566  17.221   3.126   4.837  0.2842 -0.3270 -0.0888
23433W        W39567   4.866   4.059   0.908  0.1037 -0.1729  0.2780
23434W        W39568   6.933   7.521   0.480  0.1027 -0.2237  0.0905
23435W        W39569   5.244   5.766   1.177  0.0347 -0.0827 -0.1533
23436W        W39570   1.699   8.922   2.256  0.2094 -0.0198 -0.0723
23437W        W39571  16.599  14.054   0.760 -0.3973  0.0636  0.3198
23438W        W39572   5.724   2.273   4.683 -0.0825 -0.2342 -0.1077
23439W        W39573  18.311  11.690  15.216 -0.1568  0.0741  0.2013
23440W        W39574  12.140   0.238  11.722 -0.3197 -0.5375  0.0999
23441W        W39575   0.496  18.377  13.722 -0.1054 -0.0716 -0.0693
23442W        W39576  11.081   0.037  11.914 -0.0441 -0.1634  0.0763
23443W        W39577   2.088   8.500   4.242  0.1107  0.3223 -0.1434
23444W        W39578  11.853   9.077  13.477 -0.2200 -0.0346  0.1109
23445W        W39579   5.858   9.311   4.645 -0.2483  0.6147  0.2017
23446W        W39580   7.873  13.846  12.943  0.1018 -0.1530  0.1299
23447W        W39581   3.153  10.489  13.252  0.0617  0.0954 -0.1361
23448W        W39582  10.549  16.207  12.185 -0.1500  0.1521  0.3151
23449W        W39583  12.037  10.759   4.298  0.4651 -0.0657  0.0564
23450W        W39584   5.105  15.001   5.369 -0.1913  0.0726  0.0449
23451W        W39585   6.535   8.718   3.646  0.1246 -0.1457 -0.0974
23452W        W39586   8.492  15.715   3.380 -0.1855  0.0665 -0.2683
23453W        W39587  16.846  13.939   3.901  0.1913  0.1238 -0.3135
23454W        W39588  14.878   5.762   3.225 -0.1116 -0.0333  0.2529
23455W        W39589   3.676   7.510   1.560 -0.1495 -0.1028 -0.2478
23456W        W39590   3.686   8.623  15.452 -0.2093 -0.2252  0.4688
23457W        W39591   5.999   7.333   1.782 -0.1591  0.0302  0.2886
23458W        W39592   7.654   2.076  13.256 -0.0220 -0.4181 -0.1819
23459W        W39593  11.507  15.447  12.065  0.1621 -0.1460 -0.0128
23460W        W39594  17.109   3.815  12.135 -0.1416  0.1290 -0.0454
23461W        W39595   4.045   5.268   3.643  0.0398 -0.1194  0.1918
23462W        W39596  14.834  14.461   1.663 -0.4456 -0.0905 -0.1923
23463W        W39597   1.845  12.423   2.271  0.1226  0.2931 -0.1166
23464W        W39598   6.250  17.293   4.368  0.1155 -0.0336  0.0595
23465W        W39599  15.017  10.370   1.479 -0.0882  0.0184 -0.1303
23466W        W39600   6.815   6.155  10.952 -0.0002 -0.1647 -0.2006
23467W        W39601   5.956   6.787   1.037 -0.0056  0.1694  0.1433
23468W        W39602  16.271  10.277   0.220  0.4838  0.0824  0.0984
23469W        W39603  16.366  15.044  11.198 -0.1003 -0.0262 -0.0962
23470W        W39604  15.856   7.320   0.728 -0.0663  0.0058 -0.2623
23471W        W39605   7.821   2.067   2.668  0.0642  0.2725  0.1785
23472W        W39606  10.195   7.098  13.226  0.2420  0.0796 -0.1598
23473W        W39607  11.473   6.457  14.950  0.0882 -0.0126  0.0104
23474W        W39608   1.078  15.976   2.503  0.1998  0.0404  0.0458
23475W        W39609   8.544  12.941   2.175 -0.1127  0.1028  0.0609
23476W        W39610   6.736   6.639  15.228  0.0157  0.3014  0.0439
23477W        W39611  10.292   5.226   2.989  0.0733  0.2645 -0.1689
23478W        W39612  16.307   6.774  11.233 -0.0848 -0.0073  0.1949
23479W        W39613  15.438   7.086  13.020  0.2633 -0.0097  0.0280
23480W        W39614   9.275   5.209   1.190  0.0574 -0.1513 -0.1492
23481W        W39615  12.029   4.399  11.842  0.2346 -0.0857  0.1599
23482W        W39616  16.004  17.521   3.507  0.2558  0.0467 -0.0221
23483W        W39617   2.354   6.299   1.720  0.0859  0.1505 -0.0771
23484W        W39618   1.841  14.040  11.962  0.2256 -0.1878 -0.1424
23485W        W39619   5.504   1.176  15.099 -0.3297  0.2651 -0.2172
23486W        W39620  10.948  18.216   0.423  0.1802  0.0617  0.1302
23487W        W39621  13.263  11.357  12.517 -0.0234 -0.0764  0.2914
23488W        W39622  11.221   4.666   2.793  0.0178  0.0962 -0.0514
23489W        W39623   4.757  12.208   2.787  0.1484  0.1736 -0.1950
23490W        W39624  11.475   6.830   0.029  0.1948  0.0234  0.0633
23491W        W39625  12.675   0.119   3.927  0.2635 -0.0695 -0.1670
23492W        W39626   5.068  12.203   3.195 -0.1130  0.3248  0.0618
23493W        W39627  14.956  10.713   5.372 -0.2788  0.1032  0.1282
23494W        W39628  13.690  10.176  12.721  0.4170  0.0948 -0.0900
23495W        W39629   7.385   4.294  14.073  0.2099  0.0747  0.1886
23496W        W39630   6.884   2.154   0.213 -0.0631 -0.0023  0.1113
23497W        W39631  10.847  12.041   4.138 -0.0523  0.0441  0.2019
23498W        W39632   3.901  13.927   3.739  0.2976  0.2404  0.2055
23499W        W39633   5.327  11.353  12.191 -0.0184 -0.1935 -0.3784
23500W        W39634  11.683  13.128  12.393  0.1574  0.4213 -0.1199
23501W        W39635  10.858   9.923   1.597 -0.1359 -0.2041 -0.3053
23502W        W39636   7.328  17.677  12.356 -0.1924 -0.0680  0.0356
23503W        W39637   5.371   0.600   4.394  0.0191 -0.1512 -0.0426
23504W        W39638   4.751   7.107   2.002  0.1022  0.0235  0.1334
23505W        W39639   7.473   8.955   4.186  0.2055  0.5514  0.1112
23506W        W39640  13.198   7.143   2.641 -0.0200 -0.2858  0.1269
23507W        W39641   8.575   1.564  10.846 -0.2107 -0.1020 -0.1885
23508W        W39642   1.406   4.752  11.953  0.1102  0.0827 -0.1298
23509W        W39643  12.875  13.702  15.117 -0.0681 -0.3776 -0.0009
23510W        W39644  10.976   7.263   5.727  0.1389  0.0525 -0.1666
23511W        W39645   1.645   1.097  13.444  0.0015 -0.3983 -0.2315
23512W        W39646  12.144  11.168   1.073 -0.2560 -0.0157 -0.1844
23513W        W39647  16.980   3.559  15.701  0.0139 -0.1762  0.0129
23514W        W39648   0.694  15.243   1.145 -0.0855  0.1555  0.0837
23515W        W39649   3.010   6.495   1.108 -0.0932 -0.1006 -0.0541
23516W        W39650   4.882  15.669   4.486  0.2395  0.3315  0.3018
23517W        W39651   1.298   5.500  12.534  0.2938  0.1018 -0.0329
23518W        W39652   5.093  12.555   3.513 -0.0998 -0.3666 -0.2480
23519W        W39653   7.001  18.430  11.362 -0.1410  0.3108 -0.0567
23520W        W39654   5.239   5.682  12.680 -0.3031  0.1526 -0.0966
23521W        W39655  17.809   1.738   2.999  0.2662 -0.1633  0.0732
23522W        W39656   9.066   2.253   4.501  0.1056  0.1306  0.1901
23523W        W39657  17.354   8.221   3.880 -0.0780 -0.2779 -0.0717
23524W        W39658  16.869  13.037   5.631 -0.0678  0.1844  0.0961
23525W        W39659  15.850   9.118  15.684  0.5961 -0.1665 -0.1641
23526W        W39660   7.572   0.476  15.751  0.0715 -0.0058  0.1542
23527W        W39661   9.511  12.220  14.132 -0.1112  0.1723 -0.2184
23528W        W39662  14.992   5.573   5.011 -0.3434 -0.1234 -0.3986
23529W        W39663   0.643   1.319  11.417 -0.3433 -0.1664 -0.0327
23530W        W39664  15.848  10.198   1.727  0.2298  0.0166 -0.0565
23531W        W39665  10.570   2.175   3.044 -0.4834  0.0806  0.0224
23532W        W39666  12.970  13.367   4.271 -0.1132 -0.0708 -0.1391
23533W        W39667   3.070  14.839  14.291  0.0313  0.1793 -0.0096
23534W        W39668   6.270   5.736   0.930 -0.0203  0.1945  0.0457
23535W        W39669  18.267  13.780   0.828 -0.1398  0.2057  0.3576
23536W        W39670   1.257  13.437   4.806  0.2617  0.2753 -0.0297
23537W        W39671  10.966   7.611  12.568 -0.2537 -0.1581  0.2421
23538W        W39672  13.699  12.922  12.581 -0.2175  0.2697 -0.1306
23539W        W39673   5.977  12.680   0.940 -0.0065  0.0480  0.0829
23540W        W39674  18.191  15.042   3.704 -0.1155 -0.0414  0.0116
23541W        W39675  10.175  15.235   1.219 -0.2191  0.2348 -0.0401
23542W        W39676   2.997   3.098  13.280 -0.2446 -0.3734 -0.2447
23543W        W39677   2.788   4.511  14.842  0.0662 -0.1684  0.2167
23544W        W39678  14.213   5.672   1.195 -0.0404 -0.1739  0.0859
23545W        W39679   8.399   2.894   4.261  0.1994  0.1146 -0.1344
23546W        W39680  12.964  17.726   3.443  0.1231 -0.0258 -0.0882
23547W        W39681  13.472   7.746   0.473 -0.1329  0.3273 -0.1960
23548W        W39682  16.082  13.185  14.746  0.2195 -0.0245  0.0254
23549W        W39683   6.558  15.433  13.927  0.2527 -0.1813 -0.0227
23550W        W39684   5.623   8.791   0.379 -0.2189 -0.0608  0.0227
23551W        W39685   8.079   1.708   2.976  0.1558 -0.3139  0.1384
23552W        W39686   4.401   6.585   2.903 -0.2081  0.0973 -0.1672
23553W        W39687  12.420  14.447   9.877  0.2400  0.1013  0.0945
23554W        W39688   6.165  15.184   3.790  0.1888  0.2533  0.0443
23555W        W39689  10.240  13.081   5.705  0.0876 -0.2136 -0.1441
23556W        W39690  14.937   8.367  13.179 -0.1576 -0.1093 -0.1439
23557W        W39691  12.765  15.854   1.150 -0.0134 -0.1333 -0.0760
23558W        W39692   3.894   7.539   4.254 -0.0695 -0.0412  0.1021
23559W        W39693   5.488   1.652  11.452 -0.1265  0.0248  0.1881
23560W        W39694   0.533  16.423  13.664  0.0454  0.1200 -0.0267
23561W        W39695  17.811   4.934   3.857 -0.0354 -0.0402 -0.3777
23562W        W39696  14.382  11.299   4.048 -0.2841  0.0427 -0.0316
23563W        W39697   8.439   5.931  14.990  0.0744 -0.0937 -0.0449
23564W        W39698   6.303   2.304   3.201 -0.1395  0.1312 -0.0558
23565W        W39699  15.289  14.012  13.627 -0.0942  0.0077  0.0483
23566W        W39700  16.357  11.864   3.287  0.2650  0.0190  0.1696
23567W        W39701   7.202  13.488   1.525  0.0953  0.2707  0.2234
23568W        W39702   7.096  16.819  14.514 -0.2792 -0.1104  0.0861
23569W        W39703   5.967  14.943   5.224 -0.2782  0.1445  0.2487
23570W        W39704  11.895   1.222   3.750  0.1117  0.1975  0.4221
23571W        W39705  16.739   1.307  11.341  0.0636  0.2215 -0.1598
23572W        W39706   6.108  15.189   4.327  0.1741 -0.1185  0.0093
23573W        W39707   6.801   3.800  12.029  0.0290  0.0715 -0.1622
23574W        W39708  16.333  18.026  14.242  0.2359 -0.1067 -0.2985
23575W        W39709  10.696   4.503  11.997  0.2797 -0.1185  0.2949
23576W        W39710  12.808  16.904  12.067 -0.3813 -0.1346 -0.1481
23577W        W39711  14.526  12.930   0.137 -0.1501  0.0151 -0.0815
23578W        W39712  11.876   0.347  15.627  0.1853 -0.0336 -0.1860
23579W        W39713   0.901   7.467  15.533 -0.0700  0.1077  0.1174
23580W        W39714  17.630   3.991  12.588  0.2406 -0.1926  0.0412
23581W        W39715   2.789  18.403   4.093 -0.2921 -0.0788  0.1770
23582W        W39716  10.254   1.801   5.283  0.1634 -0.1697 -0.2551
23583W        W39717   0.495  12.666   4.019  0.1856  0.0794  0.2144
23584W        W39718   6.770   0.757  15.105  0.1074 -0.1384  0.2452
23585W        W39719   4.506   9.005   3.554  0.0909 -0.0494  0.1947
23586W        W39720   8.818   0.794   1.632  0.2830 -0.1612  0.0363
23587W        W39721   7.347   1.333  15.464  0.2193  0.0197  0.0102
23588W        W39722  17.760  14.337   3.779 -0.1006  0.2796  0.1358
23589W        W39723   5.121  16.400   1.566  0.0674  0.1258 -0.0181
23590W        W39724   7.443   6.262   0.639  0.0715  0.0355 -0.1259
23591W        W39725   0.615   2.982   2.357  0.0969  0.2710 -0.1451
23592W        W39726  11.949  11.416   1.657 -0.0962  0.2607 -0.0322
23593W        W39727   0.567  13.728   1.970 -0.0318 -0.1740  0.0782
23594W        W39728  10.976  11.662   0.298  0.1524  0.2363  0.1255
23595W        W39729  18.206  13.535   4.571 -0.5066  0.0623  0.0770
23596W        W39730   8.345   7.237   0.787 -0.1686  0.2196 -0.1676
23597W        W39731  16.744  14.369   1.967 -0.0436 -0.4469  0.0464
23598W        W39732   1.949  15.214   1.659  0.0274 -0.1577 -0.0672
23599W        W39733  11.630   5.076  14.037  0.2428 -0.0185 -0.1428
23600W        W39734   9.000  17.779   2.072  0.2122  0.2596  0.1231
23601W        W39735  14.309   3.985   1.656 -0.1349  0.1570  0.2379
23602W        W39736   2.226   5.896  11.144 -0.0484 -0.0398 -0.0597
23603W        W39737  13.826   0.590  10.447  0.1494 -0.0911  0.3610
23604W        W39738  13.699  13.350   2.521  0.3592 -0.0374 -0.0074
23605W        W39739   3.312   1.446   5.267 -0.0837  0.3344  0.3583
23606W        W39740   4.502  12.033   1.955 -0.1846  0.2455  0.1875
23607W        W39741  12.641   1.197   0.589 -0.0210  0.0743  0.1288
23608W        W39742  17.013   1.315   0.612  0.1535 -0.1892  0.2035
23609W        W39743   4.689   7.486   1.594  0.2747  0.1495  0.2036
23610W        W39744   2.139   4.704   0.387  0.1498 -0.1120  0.2343
23611W        W39745  11.890   3.782  12.951 -0.0387 -0.2110  0.2277
23612W        W39746  12.773   9.553   5.377 -0.2577 -0.1889  0.5006
23613W        W39747  10.845  14.630  12.489 -0.0729  0.1651 -0.1115
23614W        W39748  12.720   5.961  14.013  0.2365 -0.0379 -0.1458
23615W        W39749  17.426   2.312  15.346 -0.2193 -0.0679  0.3360
23616W        W39750  17.096  11.601   5.265  0.1611 -0.1669 -0.0162
23617W        W39751  16.349   9.070   4.230 -0.1327 -0.0499 -0.1786
23618W        W39752  14.609   5.648  14.042  0.2019 -0.0915 -0.3475
23619W        W39753   9.683   8.114  12.640 -0.0657 -0.0534  0.1452
23620W        W39754  11.971   0.382  11.049 -0.1643 -0.3184 -0.3015
23621W        W39755  12.836  11.724  12.195  0.0834  0.3135 -0.0530
23622W        W39756   0.799   8.629  12.835  0.1129  0.1022 -0.2063
23623W        W39757  17.641   3.920   0.320 -0.3414 -0.1924 -0.2654
23624W        W39758  15.314  12.671   0.713  0.0434  0.0647 -0.0918
23625W        W39759   9.244   9.758  15.428 -0.0228  0.0692  0.1032
23626W        W39760   5.580  14.233   5.972  0.0585 -0.0176  0.1621
23627W        W39761   6.873   2.402  13.185 -0.0506 -0.0812  0.3288
23628W        W39762  18.108   2.983   2.219 -0.0759 -0.0479 -0.2581
23629W        W39763  16.342   2.113   1.674 -0.1869 -0.1670 -0.0863
23630W        W39764   3.954   1.193   3.525  0.2555  0.0554 -0.1522
23631W        W39765  10.823   3.354  12.932  0.0788 -0.0768  0.2774
23632W        W39766  10.739  15.918  12.509 -0.0953 -0.0729  0.0422
23633W        W39767   3.459   2.991  14.625 -0.1949  0.1824  0.3297
23634W        W39768  13.010   8.149   3.650  0.2070 -0.2609 -0.1103
23635W        W39769   4.030  13.647   1.365 -0.1349  0.0547  0.0787
23636W        W39770   9.515  11.462   3.008  0.2966 -0.0955  0.0515
23637W        W39771   7.931   7.626   0.416 -0.0433 -0.1558 -0.2085
23638W        W39772  13.423   0.134   4.274  0.2583 -0.0673  0.1544
23639W        W39773  11.516   0.200  11.937 -0.0410  0.0283  0.0056
23640W        W39774  12.100   8.709   2.067 -0.0403  0.2322 -0.0541
23641W        W39775  14.954  10.989  14.190 -0.2568  0.0160 -0.2230
23642W        W39776   7.442   5.721  14.641  0.0172 -0.2680 -0.2623
23643W        W39777  13.726  17.635   3.445  0.1155  0.1607 -0.1764
23644W        W39778   4.512  10.603   0.542  0.0304  0.2209 -0.0266
23645W        W39779   8.462   7.455   5.154  0.2562 -0.2103  0.0781
23646W        W39780   2.730   7.491   0.965  0.1973 -0.2025 -0.0617
23647W        W39781  16.080  13.580  13.886  0.0120 -0.0261  0.0685
23648W        W39782  15.484   6.158   5.203 -0.2731 -0.0180  0.4336
23649W        W39783   2.206  15.046   4.731  0.0914  0.0239 -0.1997
23650W        W39784   5.520  16.778   0.405  0.0387  0.1316  0.1671
23651W        W39785   0.010  17.903  14.882 -0.0628  0.2428  0.0630
23652W        W39786  18.131  15.782   2.600  0.0254 -0.2201 -0.2621
23653W        W39787   2.938   1.825  14.901  0.1728 -0.1502 -0.0342
23654W        W39788  12.263  12.844  11.070  0.2254  0.2593  0.1536
23655W        W39789  16.299  13.432  10.116  0.1571 -0.0915  0.1428
23656W        W39790  11.714  17.629  11.933 -0.1273  0.1797  0.2246
23657W        W39791   0.399  11.906   3.740  0.2165 -0.0107 -0.2274
23658W        W39792  17.547   5.421  10.836 -0.0543 -0.0102  0.0229
23659W        W39793  16.295   3.414  13.925  0.1789  0.0916 -0.0907
23660W        W39794   5.462   5.442   4.588  0.0014 -0.3246 -0.0238
23661W        W39795   8.983  18.121  11.905 -0.1300 -0.2694  0.0607
23662W        W39796  15.945  18.041   3.781 -0.0706 -0.0300  0.1013
23663W        W39797  12.300   1.336  14.644 -0.1882  0.2433 -0.1233
23664W        W39798   9.992  16.703   4.191  0.1168 -0.1651 -0.0623
23665W        W39799   0.004   7.783   3.227  0.1689 -0.4621 -0.0613
23666W        W39800   8.657   1.624   2.842 -0.0229  0.0827  0.2543
23667W        W39801   7.132  13.407   5.229 -0.1534 -0.0750  0.3064
23668W        W39802   7.965   0.721   0.611  0.5825  0.2232  0.1327
23669W        W39803   4.794  11.664   2.794 -0.3621  0.2306  0.2205
23670W        W39804   4.086  11.497   2.268 -0.1269  0.1005  0.0359
23671W        W39805  13.587  15.264   1.399 -0.1540 -0.0186 -0.0924
23672W        W39806  11.516   1.776   2.020 -0.2383  0.0796  0.4745
23673W        W39807   5.109   6.707  10.698  0.0506 -0.3459  0.0860
23674W        W39808  12.777  17.362   0.052 -0.1096  0.1998  0.0473
23675W        W39809   9.830   5.092   2.767 -0.0788 -0.3064 -0.0842
23676W        W39810  11.844   6.069  13.702  0.3182 -0.0142  0.4982
23677W        W39811   1.233  12.400  13.387  0.0580  0.0847 -0.0020
23678W        W39812   5.190  17.134   4.275  0.2876 -0.1259 -0.1098
23679W        W39813   6.513  10.520   4.470 -0.0131  0.3590 -0.2333
23680W        W39814   4.255  17.814  13.647 -0.1138  0.1752 -0.1241
23681W        W39815   8.176  13.904  15.470  0.1360  0.1399  0.3463
23682W        W39816   5.491  13.188   4.877  0.2191  0.0042 -0.3490
23683W        W39817   6.283   4.156  12.021  0.3108 -0.3738 -0.1862
23684W        W39818  14.906   4.448  12.590  0.1655 -0.0958 -0.1251
23685W        W39819  13.966   5.829  10.316 -0.2896 -0.0177  0.1556
23686W        W39820  12.783  17.842   0.221  0.0547 -0.3218 -0.0363
23687W        W39821   7.243  10.754   0.659  0.0218  0.1267 -0.2955
23688W        W39822   1.131   2.696  13.939  0.2547 -0.0282  0.1445
23689W        W39823   4.066   8.228   1.595  0.1983 -0.2180 -0.0834
23690W        W39824   3.823  11.056   3.550  0.1090 -0.4245 -0.0859
23691W        W39825  13.179   7.317   3.142  0.0358  0.3400  0.0283
23692W        W39826  13.613   2.675  10.686  0.0144  0.3387 -0.1739
23693W        W39827  14.592  15.317   2.182 -0.0264  0.1434  0.0274
23694W        W39828   6.513   9.673   2.523  0.0993 -0.1643  0.2817
23695W        W39829   7.987  13.793   5.475 -0.1007 -0.2408  0.0928
23696W        W39830  14.147  16.562  11.679  0.2918 -0.1592  0.3392
23697W        W39831   3.807   6.067   4.612 -0.1293  0.0431  0.2784
23698W        W39832  12.217   0.702  15.803 -0.1041  0.1734 -0.0920
23699W        W39833   2.653  11.505  12.248  0.3289  0.1063  0.1119
23700W        W39834  16.692  13.255   3.263 -0.0645  0.2949 -0.0047
23701W        W39835   3.202  14.118  13.463 -0.2811 -0.0430  0.0728
23702W        W39836   1.935   1.140   1.137  0.0751  0.0613  0.2477
23703W        W39837  13.194  10.704   2.965 -0.1777  0.1276  0.1401
23704W        W39838  13.323   3.317   2.745  0.1155 -0.1294 -0.0177
23705W        W39839   2.206   4.579   4.537 -0.0212  0.0269 -0.2092
23706W        W39840  17.306   7.137  11.189  0.2174 -0.0360 -0.0701
23707W        W39841   6.994  16.642  13.998  0.0408  0.1536  0.1090
23708W        W39842  15.980   7.266  15.235  0.0006  0.0626 -0.1587
23709W        W39843   5.069   2.142  14.490 -0.0239 -0.0252 -0.0005
23710W        W39844   5.424  12.414  14.103  0.2091 -0.0190  0.1846
23711W        W39845  12.654  11.552  14.415  0.3333  0.1638  0.0737
23712W        W39846  18.249   6.199   3.796  0.0813  0.2582 -0.2244
23713W        W39847   5.499   9.666  12.522 -0.1520 -0.1330  0.0555
23714W        W39848   0.505   2.296   0.634  0.1913  0.3202 -0.0217
23715W        W39849   3.890  11.001  15.590  0.1745 -0.0613 -0.2072
23716W        W39850   8.642   5.282   4.335 -0.0817 -0.1780 -0.2861
23717W        W39851   2.166   6.147  14.126  0.1730  0.0387  0.1847
23718W        W39852  13.232  17.963  14.970 -0.3172  0.0773  0.5878
23719W        W39853   1.757   5.299   2.869  0.3113  0.1256 -0.1881
23720W        W39854   0.047  12.026  15.476 -0.0860  0.0964 -0.1012
23721W        W39855   7.453   9.007   1.704  0.0756 -0.0617 -0.1167
23722W        W39856  18.267   5.341   0.321 -0.0575 -0.2635 -0.2124
23723W        W39857   9.077   4.052   2.942  0.0072  0.0432 -0.0502
23724W        W39858   6.897  12.552   3.829  0.3253  0.1757  0.0814
23725W        W39859   9.491  12.838   0.972  0.2998 -0.0329 -0.2028
23726W        W39860   2.887   5.001  14.637 -0.2917  0.0501 -0.3161
23727W        W39861   2.637  13.150   2.770 -0.1353  0.0765  0.3588
23728W        W39862   4.375  10.156   2.299 -0.4118  0.1131 -0.0805
23729W        W39863  11.894  16.377  11.583  0.2165 -0.1552 -0.2150
23730W        W39864   5.897   6.425  11.446  0.0777 -0.2278  0.0111
23731W        W39865  15.558   3.678   0.401  0.0899 -0.0427  0.0808
23732W        W39866  15.649   9.977  10.813 -0.0361  0.1341 -0.0777
23733W        W39867   6.619   0.072  15.883  0.2045 -0.2534 -0.0275
23734W        W39868  14.781  10.758   2.219  0.3130 -0.1006 -0.1331
23735W        W39869  17.880   7.415  11.758 -0.0709  0.5350 -0.2434
23736W        W39870   7.127   8.768  12.722 -0.3656 -0.0925  0.1201
23737W        W39871  16.828  16.426   5.870 -0.0092  0.0673 -0.1558
23738W        W39872   4.931  12.361  14.631 -0.0474  0.0536  0.2762
23739W        W39873  13.609  14.337  15.865 -0.1877 -0.0961  0.1600
23740W        W39874  13.200   1.801  13.682 -0.3551 -0.0163 -0.0618
23741W        W39875   1.795   1.788   4.997 -0.1692 -0.1138 -0.0276
23742W        W39876  11.766   0.581  13.834 -0.3103 -0.0117 -0.0997
23743W        W39877  12.008  17.663  12.612 -0.0735  0.1476  0.0905
23744W        W39878  16.959  16.940  12.377 -0.0079 -0.1400  0.0891
23745W        W39879   2.585   9.487   3.472 -0.2710  0.0287  0.1491
23746W        W39880  13.746  15.155   4.573  0.0546  0.2290  0.1338
23747W        W39881   3.073   0.976  13.215  0.2065  0.1045 -0.3340
23748W        W39882   7.702   0.831  15.301 -0.1647  0.2981  0.1224
23749W        W39883   5.208   5.443  11.700 -0.1595 -0.0689  0.1542
23750W        W39884  15.574  13.104  14.624 -0.0689  0.5232 -0.0466
23751W        W39885  10.045  15.042  15.465 -0.0619  0.1484 -0.0937
23752W        W39886   6.496  16.491   1.411 -0.2941 -0.2444  0.0056
23753W        W39887   7.948   1.912   0.934 -0.1260  0.2043  0.1066
23754W        W39888  17.882  13.994   4.583 -0.0312  0.3488 -0.0867
23755W        W39889   7.414  17.173   4.843 -0.0605  0.0240 -0.1420
23756W        W39890   5.730   6.539   4.483  0.1011  0.2025  0.0098
23757W        W39891  12.658   0.847   2.244 -0.0669 -0.1049 -0.2756
23758W        W39892  11.646  10.160  15.448  0.0075  0.0956  0.1236
23759W        W39893   0.737  13.751  11.019  0.2330  0.1138  0.1827
23760W        W39894   1.979  13.226  12.952 -0.0713  0.1377  0.1851
23761W        W39895   8.276   3.413   5.473  0.0245 -0.1930  0.1805
23762W        W39896  17.355   2.429   2.476 -0.0117 -0.3088  0.1599
23763W        W39897   3.361  15.901   3.041  0.1647  0.0185 -0.0627
23764W        W39898   2.356   4.358  12.352  0.0776 -0.0130 -0.0162
23765W        W39899   9.355  11.482   2.007 -0.2020  0.1765  0.1984
23766W        W39900   0.956  14.173   0.092 -0.1331 -0.0832 -0.0246
23767W        W39901  14.699   7.984   1.355 -0.0354  0.2135 -0.2129
23768W        W39902  16.937  15.811   4.715 -0.3389  0.0469 -0.2493
23769W        W39903   2.229  11.371  12.552  0.3618  0.3022  0.3499
23770W        W39904   4.904  11.203   1.879  0.2490 -0.0171  0.4195
23771W        W39905   7.188   9.261  11.913 -0.0718  0.1065 -0.1064
23772W        W39906  10.878  14.222   2.336 -0.0104  0.1039  0.1690
23773W        W39907  17.976   7.002   1.219 -0.0202  0.1831  0.4758
23774W        W39908  15.960   6.254   3.039 -0.1684 -0.0130 -0.2786
23775W        W39909  14.530   5.597   3.566  0.0390  0.0123  0.0165
23776W        W39910   6.990   2.638  12.717 -0.1061 -0.1469 -0.0001
23777W        W39911  11.395   6.088  11.766  0.2112 -0.2339 -0.1342
23778W        W39912  11.052   3.834  12.854 -0.1050  0.2806 -0.2422
23779W        W39913   4.809  15.072  10.192  0.1478  0.1808 -0.0101
23780W        W39914   7.608   8.607  12.844  0.0365  0.0037  0.4484
23781W        W39915   8.771   2.695   1.386  0.0764  0.2400 -0.2367
23782W        W39916   8.330  12.692  11.585  0.0637  0.1165 -0.2638
23783W        W39917  12.725   3.957  14.986 -0.2518  0.3874  0.1928
23784W        W39918  11.603   9.573   0.292  0.1527  0.0453  0.2927
23785W        W39919   9.251   5.997  12.739 -0.1658  0.2059  0.1029
23786W        W39920  13.363   4.364   4.027 -0.3498 -0.3013 -0.0370
23787W        W39921  13.613   8.707  14.401 -0.1659 -0.2846 -0.1249
23788W        W39922  17.867  15.440   0.658  0.0529 -0.4638  0.2849
23789W        W39923   9.169   5.689   1.403 -0.2827  0.0615  0.0275
23790W        W39924  14.545   3.536  12.295  0.1553  0.1793 -0.1158
23791W        W39925   4.570  14.431  12.444 -0.0877  0.1595 -0.0404
23792W        W39926  10.947   0.202   4.534  0.1615  0.0320 -0.0873
23793W        W39927   1.166  15.435   3.353 -0.4713 -0.1776  0.2331
23794W        W39928   5.931   1.165  15.505  0.1240  0.5601 -0.0196
23795W        W39929  16.518  18.322  13.267 -0.2357  0.3995  0.2140
23796W        W39930  10.758   1.150   4.439 -0.5172  0.2959  0.2882
23797W        W39931   1.969  10.738   2.906 -0.1735 -0.2974 -0.0105
23798W        W39932   1.682   4.855  13.763 -0.2328  0.0763  0.3335
23799W        W39933   9.696  12.508  13.039 -0.2113  0.0860 -0.1945
23800W        W39934  18.199   8.645  11.324  0.1752  0.2926 -0.0862
23801W        W39935  12.292   1.581   2.752  0.2276  0.0629  0.2750
23802W        W39936  12.204   4.808   0.318 -0.0979 -0.2367  0.1160
23803W        W39937  13.823   7.524   1.161  0.0031 -0.1828  0.1858
23804W        W39938  15.644  13.916  14.005 -0.0667 -0.0500 -0.0265
23805W        W39939  13.068   0.483   0.764 -0.0722  0.0864  0.0360
23806W        W39940   9.163   7.841  15.845  0.1382  0.1402  0.1652
23807W        W39941  15.112   7.469  12.729 -0.1866 -0.2796 -0.1471
23808W        W39942   1.877   0.511  12.364  0.0570  0.0121  0.1999
23809W        W39943   3.435  13.434  14.542  0.0462 -0.0066 -0.1899
23810W        W39944   7.321  11.550  12.112 -0.3757  0.0252  0.3998
23811W        W39945  17.298   7.954   2.553 -0.2012  0.2461 -0.0700
23812W        W39946   3.135  11.286   0.965  0.1140  0.1223 -0.1366
23813W        W39947   4.596  10.076  15.418  0.0505 -0.1330 -0.0695
23814W        W39948   2.384  13.318  15.525 -0.2450 -0.0880  0.1506
23815W        W39949  17.713   4.856   1.888  0.3067 -0.1562 -0.0741
23816W        W39950   9.158  16.732  12.488  0.1311 -0.1443 -0.0223
23817W        W39951   0.880   4.263   5.047 -0.0586 -0.0778 -0.1028
23818W        W39952   3.483   9.065  15.686 -0.0598 -0.0807  0.2560
23819W        W39953   0.430   7.659  15.748 -0.0131 -0.0266 -0.1297
23820W        W39954  11.255   6.419  15.826  0.4649 -0.0044  0.0249
23821W        W39955   4.031  10.514  13.135  0.1949  0.1767  0.1016
23822W        W39956   4.580   4.966   4.888 -0.0239 -0.0229 -0.0382
23823W        W39957  13.832  15.296  11.159 -0.1232  0.0608 -0.1445
23824W        W39958   0.966   7.346  14.059  0.3041 -0.0275 -0.1240
23825W        W39959  10.386   4.356  15.236  0.2898  0.0866  0.1668
23826W        W39960   5.171   4.418  13.198 -0.0527  0.1150 -0.1833
23827W        W39961   0.570  17.607  15.000  0.0969  0.4313 -0.3350
23828W        W39962  11.722  10.107   3.673  0.4331  0.2414  0.0539
23829W        W39963  17.494   6.218   1.539  0.1525 -0.0836  0.1835
23830W        W39964  12.883   7.084   1.842  0.1687 -0.2055  0.2238
23831W        W39965  18.150   5.609   1.927  0.2062  0.1295  0.0109
23832W        W39966  15.932  15.312  11.478  0.2187 -0.0827 -0.1892
23833W        W39967   2.062   6.297  15.319  0.0568  0.0332 -0.0010
23834W        W39968   2.681   9.765  15.256 -0.2457 -0.0935 -0.0429
23835W        W39969  13.875   3.037  13.419  0.1030 -0.0566 -0.2590
23836W        W39970   7.944   9.375   4.061  0.0510  0.2657 -0.2486
23837W        W39971  10.998   9.965  14.463  0.1360 -0.2154  0.1175
23838W        W39972  18.167  12.462  15.576 -0.0373  0.2998 -0.1735
23839W        W39973  10.470   4.281  14.357 -0.0977  0.0942  0.2008
23840W        W39974   7.238   0.583   2.972  0.1935 -0.1624  0.0165
23841W        W39975  10.350   7.663   2.884  0.1505 -0.2312  0.1057
23842W        W39976  17.648  12.653  11.984  0.0669 -0.0008  0.0918
23843W        W39977  13.510   6.140   5.630  0.2937  0.0455  0.0350
23844W        W39978  12.234  17.343   4.073  0.2467  0.0821  0.0521
23845W        W39979   9.818   1.503   3.544 -0.0295  0.1326  0.2833
23846W        W39980   1.632  10.625  15.307  0.1502  0.0327  0.2881
23847W        W39981   4.509  14.404  14.714  0.2803 -0.1033 -0.0410
23848W        W39982   8.006  12.489  11.176  0.4129  0.2435 -0.1995
23849W        W39983   0.505  13.432  10.378  0.2816 -0.0309  0.1679
23850W        W39984  11.467  12.815   3.591 -0.1445 -0.0176 -0.1100
23851W        W39985   0.039  11.372  14.816 -0.0776 -0.2365  0.1511
23852W        W39986  16.673  15.313   3.899 -0.1317  0.0317 -0.2599
23853W        W39987   8.267  10.432   0.040 -0.0213 -0.0160 -0.0506
23854W        W39988   7.859   8.358  12.087 -0.1234 -0.1083 -0.2436
23855W        W39989  12.719  17.963  13.862  0.1115 -0.0883  0.0737
23856W        W39990   0.513  10.987  13.971 -0.2628  0.0634 -0.1351
23857W        W39991   8.485   0.288   2.188  0.1891  0.2202 -0.0755
23858W        W39992  17.119  16.150   6.272 -0.2261  0.1059 -0.1665
23859W        W39993  14.766   1.022   2.590 -0.3169 -0.2206  0.2960
23860W        W39994   8.488   2.916  10.715  0.0892 -0.3487 -0.0028
23861W        W39995   3.849   9.022  11.030 -0.0849  0.0108  0.0254
23862W        W39996   2.090   4.057   5.902  0.0902 -0.3077 -0.2594
23863W        W39997  13.953   5.521   4.899  0.1848  0.3214  0.1954
23864W        W39998   6.144  18.262   3.354 -0.0307 -0.3590  0.2417
23865W        W39999   2.846   9.048  11.342  0.1425 -0.3453 -0.0095
23866W        W40000  16.461  16.141  15.735  0.3839 -0.0542  0.0541
23867W        W40001   1.283   1.562   1.575 -0.0274 -0.1741 -0.0039
23868W        W40002   8.652   4.474   0.306  0.2317  0.1125 -0.0248
23869W        W40003  13.268  10.322  14.224 -0.3936  0.0635 -0.3471
23870W        W40004   6.891   2.015   5.893 -0.0543  0.1361  0.4654
23871W        W40005   6.240  16.434  12.592 -0.3173  0.2892  0.2150
23872W        W40006   0.186  16.149  14.055 -0.2058 -0.2695 -0.2125
23873W        W40007   8.680  14.047   3.205  0.0292  0.1657 -0.1923
23874W        W40008   0.746   2.141   4.064  0.0929 -0.1802  0.0351
23875W        W40009  12.547  17.946  15.108  0.2488  0.0517  0.0129
23876W        W40010   3.848  16.785   2.438 -0.3471 -0.1087 -0.0797
23877W        W40011   8.647  11.734  11.062 -0.0878 -0.0349 -0.1204
23878W        W40012  11.210  12.748   5.164 -0.2313 -0.0329  0.1569
23879W        W40013   7.165  14.459   4.684  0.5156  0.0557 -0.1037
23880W        W40014  10.713  17.567  12.116  0.0312 -0.2463 -0.2060
23881W        W40015   3.643   7.145  12.310 -0.0851 -0.1506  0.2164
23882W        W40016  11.505  18.437  15.517  0.4608 -0.0805  0.0935
23883W        W40017  17.254   1.283   5.192  0.1356  0.0058  0.1380
23884W        W40018  12.489   8.332   3.725  0.0987 -0.2043  0.2204
23885W        W40019   7.521   4.778  14.017 -0.0837  0.2220 -0.0436
23886W        W40020   6.412  14.582   2.322  0.1198 -0.2035 -0.3680
23887W        W40021  17.223  12.485  10.542  0.0214  0.0700  0.1424
23888W        W40022  15.924   5.020   1.897  0.3317  0.2525  0.2310
23889W        W40023  10.100  13.225  11.417 -0.1139 -0.2154 -0.1255
23890W        W40024  13.126  11.790  13.843  0.1208  0.0677  0.1188
23891W        W40025   9.166  13.636   3.922  0.2117  0.1596  0.0547
23892W        W40026  16.290  13.208  11.508 -0.0493 -0.0138  0.0847
23893W        W40027  13.068  14.810  11.045  0.0373  0.1929 -0.1613
23894W        W40028  17.765  10.641  13.461 -0.2959 -0.1949  0.2872
23895W        W40029  12.316   5.501   4.551 -0.0226  0.0740  0.2057
23896W        W40030  12.096   9.744   0.227 -0.2431 -0.1703 -0.1030
23897W        W40031   2.742   2.539   0.851  0.0211  0.1138  0.0278
23898W        W40032   1.077   4.954  12.496  0.0963 -0.2157 -0.0972
23899W        W40033  17.088   0.627  15.356  0.0928 -0.4840  0.1083
23900W        W40034  16.024   1.547   1.296  0.0917 -0.1265  0.0188
23901W        W40035   2.069   0.731  15.432 -0.0164  0.0263 -0.1281
23902W        W40036   5.140   8.311   1.528 -0.0185 -0.0761 -0.1336
23903W        W40037  13.662  10.893  11.984  0.2130 -0.3016 -0.0041
23904W        W40038  15.920  17.378  13.617 -0.0095  0.1076 -0.2304
23905W        W40039   6.200   1.205  13.608 -0.1179  0.0167 -0.1954
23906W        W40040   6.356   6.566  14.307 -0.0426  0.2181 -0.0765
23907W        W40041  15.674  16.101   5.179 -0.1673 -0.0464 -0.3667
23908W        W40042   2.935   3.286   0.371  0.2901  0.2939  0.1251
23909W        W40043  12.896  11.937   1.068  0.3051  0.0108 -0.1447
23910W        W40044  12.401  11.598   4.701 -0.2412 -0.1701  0.0960
23911W        W40045   5.411   8.417   4.916  0.1211  0.1284 -0.0872
23912W        W40046   9.739   6.071  10.947 -0.2106 -0.0555  0.0494
23913W        W40047   3.883   4.880   3.938 -0.3202 -0.1926 -0.1628
23914W        W40048   0.070  15.819  12.001  0.2425  0.0853 -0.1033
23915W        W40049  17.593   4.301   4.615  0.0228  0.1238 -0.2662
23916W        W40050   0.261  13.179  14.737 -0.1531 -0.0540 -0.1724
23917W        W40051   2.659   0.736  11.870  0.3126 -0.3300  0.1153
23918W        W40052   4.472  16.753  12.215 -0.1723 -0.2382 -0.1150
23919W        W40053  12.563  18.315   1.262  0.0068  0.2044 -0.1349
23920W        W40054   7.777   2.835  11.935  0.4239  0.2012 -0.0798
23921W        W40055   9.562  14.058   0.285 -0.1923  0.4313 -0.1935
23922W        W40056   2.755   3.487  15.473 -0.0076 -0.0522 -0.0728
23923W        W40057   6.032   7.266   5.458 -0.3891 -0.1283 -0.0634
23924W        W40058   9.133  15.208  11.597 -0.0287 -0.5117  0.2214
23925W        W40059   5.122   0.086  15.139 -0.4402  0.1857 -0.4249
23926W        W40060   4.308   6.248   4.657 -0.0103 -0.0960  0.0030
23927W        W40061  13.907   8.586  15.797 -0.1099  0.3852  0.0016
23928W        W40062   5.391   3.491  14.217 -0.0670 -0.3905 -0.0067
23929W        W40063  14.311  14.165  14.926 -0.1902  0.1158 -0.0490
23930W        W40064  18.426  15.027  14.636 -0.2560 -0.1066 -0.0260
23931W        W40065  14.485  11.508  14.180  0.0862 -0.0088 -0.1518
23932W        W40066  14.053  12.678   2.680 -0.0806 -0.0605  0.0161
23933W        W40067  13.146   5.296  12.339  0.2136 -0.3240 -0.1112
23934W        W40068   2.094   0.865  11.343 -0.1524  0.1050  0.2350
23935W        W40069   0.768  16.504  10.196 -0.0275 -0.0134 -0.0620
23936W        W40070   1.101   6.473  15.638  0.2267 -0.1664 -0.0068
23937W        W40071   2.144  10.461  14.710  0.0246 -0.2847  0.4299
23938W        W40072   8.521  18.270   1.320  0.1070  0.3241  0.0915
23939W        W40073  18.309  12.686   5.522  0.1111 -0.1575  0.1648
23940W        W40074  16.566   4.837  11.046  0.2549  0.3012 -0.3105
23941W        W40075  12.859  12.057  11.086  0.0094 -0.2256 -0.1590
23942W        W40076   9.064  10.168  14.520  0.2146 -0.0894 -0.0269
23943W        W40077  16.839   0.940   4.682  0.0765 -0.2499  0.0849
23944W        W40078   6.389  15.289  11.346  0.2186  0.0090 -0.1760
23945W        W40079  16.947  10.279  13.163 -0.0067 -0.0237  0.0882
23946W        W40080   1.799   3.974  13.327  0.0774 -0.1676  0.0542
23947W        W40081  13.436   8.576   0.036  0.2333 -0.0749 -0.0772
23948W        W40082   6.191  13.142   3.215  0.1038 -0.1071  0.3215
23949W        W40083   3.610  11.873  10.180  0.2406 -0.0320  0.3448
23950W        W40084   8.960  10.770   1.803 -0.1463 -0.2401  0.2934
23951W        W40085  16.348  16.638   5.219  0.1039 -0.1815  0.0593
23952W        W40086  14.433   3.362   5.659 -0.0941 -0.0707  0.0543
23953W        W40087  17.563   9.473   4.422  0.0325 -0.3263  0.1594
23954W        W40088   7.348   9.889   5.164  0.3861  0.1855 -0.1237
23955W        W40089  13.713  14.544  15.433  0.1670  0.0192  0.0729
23956W        W40090   6.768  16.951   1.454  0.0511 -0.3823 -0.2438
23957W        W40091  10.238  15.859  12.306 -0.2882  0.1622  0.0308
23958W        W40092   9.115   8.201  13.645  0.0025  0.1369 -0.3671
23959W        W40093  10.850  17.673  14.954 -0.0674 -0.0265 -0.1701
23960W        W40094   4.195  17.590  11.609  0.0780  0.1566 -0.0627
23961W        W40095   6.816  14.502   5.222  0.0004  0.2666  0.0220
23962W        W40096   3.796  12.701   3.264 -0.3035 -0.0455  0.1123
23963W        W40097  14.083   4.799   0.746 -0.0913 -0.2157  0.2884
23964W        W40098  11.395   4.457  15.677  0.0001 -0.0986  0.0881
23965W        W40099  14.858   2.774   5.002 -0.0646 -0.0570 -0.0347
23966W        W40100  16.115   4.267  12.893 -0.0997  0.1275 -0.1389
23967W        W40101   4.962  14.756  13.888 -0.1048 -0.3304  0.0973
23968W        W40102  15.614   4.632  14.339  0.0878  0.1331 -0.3908
23969W        W40103   8.464   2.464  12.145 -0.0957 -0.0910  0.3572
23970W        W40104   6.622   8.007   3.424 -0.0114  0.1086 -0.0177
23971W        W40105   4.130  10.100  15.167  0.1083 -0.1086  0.1812
23972W        W40106  11.136   7.881   5.019  0.1867  0.1620  0.3169
23973W        W40107   0.977   7.932  15.789 -0.0102  0.3649 -0.0927
23974W        W40108  14.253   6.929   5.537  0.2263  0.1354  0.1762
23975W        W40109  14.426  11.505  11.521 -0.0695 -0.1391  0.0285
23976W        W40110   7.086   0.520   5.758  0.1083 -0.0870 -0.0424
23977W        W40111  11.739   9.775   4.668 -0.4200 -0.1956 -0.1792
23978W        W40112   6.671   8.031   0.188  0.0451 -0.2280  0.1859
23979W        W40113  11.463  15.299  13.546  0.1691  0.1078 -0.1391
23980W        W40114  16.007  12.455  12.951 -0.5042  0.0666  0.0197
23981W        W40115  10.578   7.267   3.309 -0.2143 -0.1814  0.1765
23982W        W40116  16.977  17.223  11.492  0.3117  0.1309  0.2130
23983W        W40117  10.480   1.731   0.667 -0.4075  0.1158 -0.1881
23984W        W40118   4.116   9.204  13.335  0.0217  0.0910  0.0833
23985W        W40119  15.048   8.070  14.945 -0.1789  0.0805  0.0083
23986W        W40120  15.772   8.141  15.536 -0.0456 -0.0770 -0.0523
23987W        W40121  10.130   1.165  15.168 -0.0993 -0.2290 -0.0796
23988W        W40122   6.792  10.571   0.986  0.4028  0.4626  0.0821
23989W        W40123   9.487   9.340  14.744 -0.1115 -0.1417 -0.0122
23990W        W40124   7.848   4.459   0.192 -0.5145 -0.0766  0.1437
23991W        W40125  18.266  14.580  14.390  0.0571  0.1628 -0.0911
23992W        W40126   0.307  13.794  12.331  0.1224  0.0054  0.0491
23993W        W40127   0.325  10.550  14.594  0.0492 -0.1887  0.1037
23994W        W40128  18.020   2.009  14.456  0.0014 -0.0243  0.0888
23995W        W40129  12.142   7.797   0.395 -0.2570 -0.0464 -0.0423
23996W        W40130  11.663   5.997  14.983 -0.1291 -0.0430 -0.1904
23997W        W40131  14.792   0.144   0.461 -0.0850 -0.0564 -0.0872
23998W        W40132   7.192   5.660   4.613 -0.0418 -0.1664 -0.2095
23999W        W40133   2.662   4.372   3.416 -0.0985 -0.2397  0.4287
24000W        W40134   3.134  13.230   0.387 -0.1473 -0.0199  0.1786
24001W        W40135  16.808  11.568  10.760 -0.0494  0.0953 -0.2066
24002W        W40136   9.095  13.888  15.099  0.0407  0.2088  0.1407
24003W        W40137   0.920  15.158   3.810 -0.1052 -0.0043  0.4059
24004W        W40138  12.596  10.598  14.830 -0.2946  0.0994  0.3331
24005W        W40139   0.717  12.956   2.633 -0.2734  0.1646  0.0281
24006W        W40140  13.864   1.301   1.438  0.2009  0.0786 -0.0884
24007W        W40141  13.356  16.533  14.562  0.1020 -0.0250 -0.2960
24008W        W40142  13.280   6.929   0.561 -0.0691  0.0371 -0.0229
24009W        W40143  18.316   6.063   1.051  0.0127  0.0540 -0.1815
24010W        W40144  10.918  16.788  10.463 -0.0315  0.2273  0.1980
24011W        W40145  17.030   2.136  12.115 -0.0362  0.1212  0.2089
24012W        W40146   5.917  13.947  15.570 -0.0035 -0.0567  0.1319
24013W        W40147   5.685   1.636   3.370  0.2133 -0.0596 -0.3320
24014W        W40148   9.235  10.667  14.282 -0.0149 -0.2027  0.1351
24015W        W40149   1.765  16.851   4.778 -0.0320 -0.2123 -0.1255
24016W        W40150  14.145   1.543  14.011  0.2120  0.1442 -0.0184
24017W        W40151  11.984   7.186   4.455  0.2414  0.1876 -0.2531
24018W        W40152  16.803   0.686   3.657  0.2934  0.2881  0.3390
24019W        W40153   4.855  18.273   1.655  0.0262  0.0971 -0.0318
24020W        W40154   9.733  12.392   1.730 -0.0946 -0.0327 -0.0796
24021W        W40155   0.947   2.519   0.605 -0.1833 -0.1050  0.2602
24022W        W40156  16.678   3.684  10.569  0.2149  0.2785  0.0337
24023W        W40157   1.570  10.352   2.779  0.1952  0.0450 -0.0856
24024W        W40158   9.361  16.981  15.240  0.0909 -0.0310 -0.0589
24025W        W40159  15.971   8.138   0.897 -0.2011 -0.0774  0.1087
24026W        W40160   8.991   9.077  10.532 -0.1307  0.1078  0.1746
24027W        W40161  18.407   0.292   3.617 -0.0623  0.0324  0.2307
24028W        W40162  10.810   7.075   1.546  0.0087 -0.0601 -0.0501
24029W        W40163   2.421   8.430   5.054  0.2331 -0.2933 -0.0846
24030W        W40164   9.097  16.387   5.185 -0.2966  0.1924 -0.2469
24031W        W40165  15.523   6.641   2.283  0.0108  0.2244  0.2797
24032W        W40166  16.773   9.261   5.461  0.0023 -0.1152  0.3056
24033W        W40167   9.643   4.492  15.380 -0.1697  0.4035  0.2172
24034W        W40168  15.474   7.058  12.484 -0.1190 -0.2480 -0.0101
24035W        W40169   4.246  12.437  12.342 -0.0060  0.0249  0.3259
24036W        W40170   2.680  10.920   4.152  0.4762  0.0056 -0.2390
24037W        W40171  12.211   1.504   1.754 -0.2956  0.2405  0.0372
24038W        W40172   5.025   2.817  12.291  0.3851 -0.0557  0.3063
24039W        W40173   7.851   3.375  11.910  0.1627  0.1801  0.3549
24040W        W40174   0.793   4.161   5.572 -0.0139 -0.1570 -0.0545
24041W        W40175   5.398   1.777  14.283  0.2949  0.3122 -0.1436
24042W        W40176   9.947  16.282  11.604 -0.3644  0.0177  0.1535
24043W        W40177   4.344  18.098  14.816 -0.0051 -0.0101 -0.4156
24044W        W40178   5.206   0.449  14.172 -0.2487  0.1797  0.1404
24045W        W40179   1.064  18.268  12.536 -0.2110 -0.1237  0.0214
24046W        W40180   8.054   2.502   1.813 -0.1979  0.1200 -0.1762
24047W        W40181   9.421  11.919   2.386 -0.1677  0.2048 -0.1696
24048W        W40182   0.082  14.815   5.028 -0.0332  0.0705  0.2106
24049W        W40183   2.611   4.111   0.035 -0.1130 -0.2270 -0.0257
24050W        W40184  12.447   6.091   2.994 -0.1232  0.0578  0.1886
24051W        W40185   3.008  18.095  11.706  0.0262 -0.4167  0.0165
24052W        W40186  14.217   6.572   0.224  0.1806  0.0915  0.0358
24053W        W40187  10.831   2.412   3.434  0.3233  0.0482  0.0880
24054W        W40188   3.563   3.991  15.143 -0.1480 -0.0340 -0.1516
24055W        W40189   0.871  12.382  11.634  0.3063 -0.0441 -0.0791
24056W        W40190   6.587  17.229  12.300  0.0919  0.3686 -0.1791
24057W        W40191   8.177  12.602   3.445 -0.0254  0.1921  0.0927
24058W        W40192   4.465  16.679   5.677  0.2082  0.3248  0.0973
24059W        W40193  13.333  12.601  13.825  0.2186  0.1399 -0.0489
24060W        W40194   9.634   0.474  13.609 -0.0014  0.0351 -0.0487
24061W        W40195   8.491  13.665  15.088 -0.2301  0.0619  0.0927
24062W        W40196   5.738  14.988  13.158 -0.0023  0.2182  0.0904
24063W        W40197   9.476   8.698   6.077 -0.0576  0.1047 -0.0262
24064W        W40198   4.622   4.091   3.151  0.0176  0.1050  0.0097
24065W        W40199  17.073   6.335  13.740  0.1779  0.0527 -0.0657
24066W        W40200   6.154   0.713   2.399 -0.0416  0.0528 -0.2386
24067W        W40201  12.374   8.527  12.568  0.0348 -0.0982  0.3576
24068W        W40202   4.785   1.284  12.452 -0.0092 -0.1463 -0.0580
24069W        W40203  11.156   6.527   1.783  0.0869  0.3221 -0.0253
24070W        W40204   6.632  14.468   1.821 -0.0561 -0.2429  0.0601
24071W        W40205  17.639  10.812   0.260  0.1242  0.1263  0.2149
24072W        W40206   9.925  10.856  14.944 -0.2942 -0.0182 -0.3892
24073W        W40207  15.325  13.821   2.015  0.1044 -0.2080  0.0956
24074W        W40208   7.529  17.407   2.370 -0.2830 -0.0701  0.1066
24075W        W40209   3.315  12.438   0.260 -0.1417 -0.0694  0.3437
24076W        W40210  16.463  14.676   5.077 -0.1232  0.1720 -0.1556
24077W        W40211   8.200   4.846   0.152 -0.0998 -0.1883  0.1974
24078W        W40212   5.705   9.971   2.241  0.0066  0.0668  0.1831
24079W        W40213   7.811  11.692   1.961 -0.2409 -0.2882 -0.3749
24080W        W40214   9.639  16.582  15.689  0.1659 -0.2091 -0.0911
24081W        W40215  15.988   9.716  12.117  0.1955  0.1903 -0.3681
24082W        W40216  16.415  13.834   1.256 -0.0817 -0.1484  0.0642
24083W        W40217  11.358   1.412   2.367 -0.0808 -0.0676 -0.0746
24084W        W40218  13.411  12.906   3.828  0.2922 -0.0466  0.0829
24085W        W40219  12.015   4.817   1.838  0.0101  0.0666  0.0653
24086W        W40220  11.049  10.723   1.241  0.0666  0.2759  0.1045
24087W        W40221   3.885   3.871   4.521  0.2078  0.0553  0.0981
24088W        W40222   2.871   3.634  14.498  0.1052 -0.0293  0.1855
24089W        W40223  12.369   0.967   5.156 -0.3870 -0.0686 -0.0514
24090W        W40224  14.123   3.130   0.603  0.2547  0.1815 -0.1937
24091W        W40225   9.993   9.732   2.124  0.2249 -0.0470  0.0766
24092W        W40226   5.131   3.940  12.000  0.2766  0.1381 -0.0268
24093W        W40227  14.940  15.173   0.841 -0.0768  0.3028 -0.1678
24094W        W40228  17.597  12.935   3.209 -0.2781 -0.1816 -0.3448
24095W        W40229   4.185  13.542   1.847 -0.2099  0.0880 -0.0858
24096W        W40230  15.438  15.807   3.935 -0.2717 -0.0242  0.0823
24097W        W40231   6.798   5.211   3.205  0.0533 -0.0047  0.0136
24098W        W40232  10.552  12.698  13.994 -0.0499  0.1124 -0.3588
24099W        W40233  17.806   7.205  14.279 -0.0138 -0.1092 -0.1953
24100W        W40234  15.646  12.722   1.922  0.0868 -0.1481  0.0774
24101W        W40235  16.839  15.169  15.223  0.0216  0.3088 -0.0210
24102W        W40236   6.924   5.950  15.534  0.1045 -0.0579 -0.0601
24103W        W40237  15.251  18.143  11.219  0.1055  0.0514  0.2317
24104W        W40238   8.653   0.256  13.695 -0.0282 -0.2812  0.0020
24105W        W40239  13.429  11.947   2.883 -0.0958 -0.0803  0.0100
24106W        W40240   4.156  15.856  14.880 -0.1376 -0.0360  0.0440
24107W        W40241  16.718   4.333  12.300 -0.2962 -0.0686  0.1920
24108W        W40242  13.218   1.417   3.876 -0.1610 -0.1012 -0.4308
24109W        W40243   1.027  12.741  14.158  0.1694 -0.2821 -0.4717
24110W        W40244   7.580  14.921  13.600  0.1148 -0.0034 -0.1875
24111W        W40245  17.210   1.906  12.549 -0.1036  0.1524 -0.1143
24112W        W40246  13.664  14.941   0.792 -0.3453  0.0014 -0.1828
24113W        W40247   9.042   4.137  11.929  0.2647  0.1282  0.0516
24114W        W40248  18.276   5.963  14.303 -0.1343 -0.1463  0.1382
24115W        W40249   0.024  12.827   1.891 -0.1216  0.1224  0.0674
24116W        W40250   3.519  18.393   3.011  0.2406 -0.0065 -0.0547
24117W        W40251   8.555   0.789  13.627  0.3604  0.4923 -0.1490
24118W        W40252  12.567  12.904   2.819  0.0939 -0.1127 -0.5187
24119W        W40253   9.902  10.160   3.404  0.1096 -0.0145  0.2822
24120W        W40254  11.581  12.227  12.170 -0.1296 -0.3166  0.0486
24121W        W40255  15.760  10.196   0.038  0.1762  0.0537 -0.0875
24122W        W40256   5.924   5.984  11.618 -0.0914 -0.2551 -0.1473
24123W        W40257   7.964   2.584  15.107 -0.0343 -0.1897  0.0225
24124W        W40258  13.079   0.655   2.061  0.2353 -0.1036  0.0282
24125W        W40259  11.003  16.019   3.347 -0.0879  0.3109  0.1317
24126W        W40260   9.343   3.283   1.546 -0.1126  0.2420  0.1811
24127W        W40261  16.845   2.275   3.910  0.0300 -0.0428  0.0291
24128W        W40262   8.343   5.044  15.584 -0.1911  0.0582  0.0497
24129W        W40263   1.583  11.313   0.222 -0.4029 -0.0754  0.1771
24130W        W40264   2.464  10.053  15.767 -0.0416  0.3417  0.1078
24131W        W40265   8.033  15.658   0.868  0.1820  0.0125 -0.2557
24132W        W40266  13.866  12.701  11.793  0.3188  0.2019 -0.0722
24133W        W40267   3.093  14.199  14.778  0.1347  0.0692  0.3001
24134W        W40268   1.907  13.454  15.435 -0.2203 -0.0961 -0.0306
24135W        W40269  14.411  17.245   5.889  0.1610  0.1893  0.0638
24136W        W40270   3.077  16.524   5.284  0.0750 -0.0802  0.2362
24137W        W40271  15.092   8.644   3.542 -0.2871 -0.0521 -0.0709
24138W        W40272  11.178  10.651   4.679  0.0032  0.0908  0.2093
24139W        W40273   8.951  18.373   4.094  0.0489 -0.2136  0.0310
24140W        W40274  14.898   5.627  10.948 -0.2978  0.1868  0.1665
24141W        W40275  16.022  14.790   1.358  0.0107  0.4780 -0.2856
24142W        W40276   9.859   9.016  14.772 -0.0106  0.1069 -0.0336
24143W        W40277  10.122  17.151   3.099 -0.0214  0.0724  0.0818
24144W        W40278   3.634   5.795  13.020  0.0771  0.1322 -0.0679
24145W        W40279  10.058  16.812  14.539  0.1372 -0.0620  0.0773
24146W        W40280  14.243  13.075  11.711  0.0288 -0.0153  0.1395
24147W        W40281   2.883  16.854   3.954 -0.1337 -0.3110 -0.0546
24148W        W40282   5.193   1.698   0.762  0.0489  0.0307 -0.2032
24149W        W40283  14.989   8.137  12.075 -0.1561  0.1561 -0.1089
24150W        W40284   7.891  15.818   0.360  0.0574 -0.0528  0.1102
24151W        W40285   7.214  16.835   0.196 -0.1015  0.0071  0.0959
24152W        W40286   4.051  16.517   2.934 -0.1545 -0.2137 -0.1200
24153W        W40287  14.294  10.489  12.569  0.3019  0.1220  0.2097
24154W        W40288  17.753   1.437  11.561 -0.0749  0.2820 -0.0940
24155W        W40289   8.240  18.031  14.328 -0.1959 -0.0795 -0.1586
24156W        W40290   1.527   0.197  12.634 -0.0692  0.3550  0.1827
24157W        W40291   5.671  11.310  12.522 -0.0235 -0.1776  0.1027
24158W        W40292   2.291   0.559   5.055  0.1794 -0.0565 -0.1387
24159W        W40293   3.464  12.649  11.772  0.2950  0.0740  0.2022
24160W        W40294  18.362  11.259   5.835  0.0017  0.1476  0.0384
24161W        W40295  18.331   4.297   0.905 -0.0953 -0.0594  0.1403
24162W        W40296   7.563   6.015  15.112 -0.0816 -0.3097  0.0040
24163W        W40297  17.812  13.908   4.110 -0.2204 -0.1158  0.0386
24164W        W40298   0.827   6.324   2.960 -0.3629  0.1904 -0.0570
24165W        W40299  16.839   7.606   2.528  0.1458 -0.2232  0.2537
24166W        W40300   0.066   6.740   5.248  0.2810 -0.0692 -0.0008
24167W        W40301   3.634   2.525   4.148 -0.0676 -0.0543 -0.4696
24168W        W40302  16.329   4.239   2.218  0.2119  0.0510 -0.2143
24169W        W40303   7.710   1.779  12.873 -0.2657  0.3128 -0.1189
24170W        W40304   7.658  10.720   0.437 -0.1962  0.1448  0.1496
24171W        W40305  14.749  11.527   2.332  0.1273  0.0524  0.1005
24172W        W40306   3.021   6.051   4.117  0.2161  0.0732  0.0787
24173W        W40307   1.062   6.646   3.654  0.0078  0.2051 -0.3449
24174W        W40308   6.420  10.042   4.261  0.1952 -0.0135 -0.0551
24175W        W40309   1.110   7.923  11.155  0.2039  0.0149  0.2005
24176W        W40310   6.737  13.427   4.464 -0.0108  0.3308 -0.2120
24177W        W40311   9.070   3.298   2.193 -0.2219  0.0865 -0.0744
24178W        W40312   9.194  16.009  10.890  0.3980 -0.0674 -0.1528
24179W        W40313  14.560   4.773   0.491  0.2964  0.4101 -0.3914
24180W        W40314   0.843  16.226   1.429  0.0887  0.0662 -0.0108
24181W        W40315   2.926  15.280  15.391  0.1635 -0.2681  0.2314
24182W        W40316   3.968   5.176  11.546  0.1292  0.1607 -0.1208
24183W        W40317   6.083  18.232   1.374 -0.0244  0.1149 -0.1652
24184W        W40318   7.165  12.592  13.459  0.0004 -0.2990  0.0784
24185W        W40319  14.325   2.966  11.336  0.2436  0.1734  0.0125
24186W        W40320   2.362  15.244  14.528 -0.1557  0.2350 -0.1425
24187W        W40321  16.007   6.341  12.388  0.0735 -0.1134  0.1179
24188W        W40322   1.510  17.137  10.924  0.2913  0.2577 -0.1498
24189W        W40323  17.097   6.331  10.262 -0.0179  0.1291 -0.4405
24190W        W40324   5.630   6.854  11.735  0.0805 -0.0249  0.1628
24191W        W40325  13.011  17.279  14.425  0.3402 -0.4752 -0.2135
24192W        W40326   8.161   7.144   1.781 -0.0260  0.0840 -0.0998
24193W        W40327  10.652  12.500   5.698 -0.1918 -0.2536 -0.1033
24194W        W40328  16.788  15.843   0.941 -0.0463  0.0918  0.0067
24195W        W40329  14.703  13.588  14.326 -0.0207 -0.1258  0.0308
24196W        W40330  13.051  13.650  13.218  0.0502  0.2752 -0.1455
24197W        W40331   5.841   4.893   3.455 -0.0119 -0.1154 -0.0810
24198W        W40332  18.252  14.098  13.652  0.1957 -0.2195  0.1249
24199W        W40333  11.828   8.098   1.335 -0.1266  0.2235  0.2300
24200W        W40334   9.409   1.422   4.114 -0.2898  0.1727 -0.0838
24201W        W40335   5.829   4.087   2.747 -0.2404 -0.0179 -0.1348
24202W        W40336   7.028   3.462  15.772  0.1200 -0.2764 -0.3831
24203W        W40337   9.026  12.011  10.509  0.3210  0.1567 -0.1137
24204W        W40338   0.916   1.464   3.604  0.0833 -0.0939 -0.0286
24205W        W40339   3.305   9.668  15.760 -0.1699 -0.1626 -0.0800
24206W        W40340   2.384  16.103  11.894  0.0740 -0.0070 -0.0194
24207W        W40341   2.940  13.381   2.441 -0.2724 -0.2281 -0.3334
24208W        W40342  11.575  12.838   4.244  0.0348  0.0185  0.0546
24209W        W40343  18.018  12.250   4.029  0.3548 -0.2888 -0.0290
24210W        W40344   1.408   1.168   0.467  0.2452  0.0321 -0.2756
24211W        W40345   7.102   2.164   4.812  0.1585 -0.1569 -0.2515
24212W        W40346   5.989  15.862   5.165 -0.1984  0.0986 -0.1237
24213W        W40347  15.212   6.058  12.274 -0.2969  0.0898  0.1157
24214W        W40348  14.513  12.029   5.026  0.3642  0.0217 -0.1702
24215W        W40349   0.798  13.341   3.950  0.2066 -0.1796 -0.0441
24216W        W40350   2.310  13.561  10.200 -0.1408  0.2423  0.3583
24217W        W40351   9.381   2.225   3.392 -0.0557  0.0361 -0.2520
24218W        W40352   3.861   7.170  13.305 -0.0251  0.0486  0.0373
24219W        W40353   9.559  15.203  14.707 -0.2410 -0.2432 -0.0391
24220W        W40354   8.566  13.219   0.412  0.1195  0.0124 -0.0853
24221W        W40355  16.399  16.567   1.346  0.2031  0.0567 -0.1445
24222W        W40356   1.646  17.443   4.044 -0.2160 -0.0742  0.0069
24223W        W40357   1.526   2.812   4.542  0.0857  0.0972  0.1047
24224W        W40358   1.898  13.254  10.112 -0.1213 -0.0044 -0.0929
24225W        W40359   3.161   7.444  14.035  0.0969  0.2124  0.1281
24226W        W40360  11.709   4.162   3.612 -0.1421 -0.1060 -0.3432
24227W        W40361  16.493   9.512  14.903 -0.1413 -0.2113 -0.1453
24228W        W40362  15.284  10.225  15.645  0.2458  0.2405  0.0450
24229W        W40363  13.338   9.569  11.182  0.2975 -0.0948  0.2044
24230W        W40364   0.113  14.970   4.137  0.3599  0.3051  0.2300
24231W        W40365   6.320   0.886  12.902 -0.1774 -0.2135 -0.0704
24232W        W40366  12.044  10.165  11.977 -0.0481 -0.1136 -0.0310
24233W        W40367  10.312   2.082   2.602  0.0720  0.5693  0.2285
24234W        W40368  14.344   7.235  13.242 -0.0048  0.3471  0.2731
24235W        W40369  16.447  11.223  12.105 -0.3859  0.0337  0.1793
24236W        W40370  13.720   2.549   3.250  0.0474  0.0083  0.0593
24237W        W40371   4.742   4.125   3.775 -0.4704 -0.0861 -0.3529
24238W        W40372  13.367   9.119   1.024 -0.0026 -0.0999  0.0750
24239W        W40373   2.915  15.604   5.209 -0.0914  0.1683  0.0352
24240W        W40374   6.531   4.020  14.179  0.1237 -0.0150 -0.0409
24241W        W40375   4.950  11.107   2.807 -0.1596 -0.0366  0.1471
24242W        W40376   3.400   7.494   5.573  0.4484 -0.1103 -0.2448
24243W        W40377   0.950   0.998   0.364 -0.1587 -0.1795 -0.0997
24244W        W40378  16.141   0.069  11.986 -0.2298  0.1313 -0.0752
24245W        W40379  15.009   8.511  11.778  0.2704 -0.0530  0.2147
24246W        W40380  15.156   3.469  10.729 -0.3015 -0.0730 -0.3560
24247W        W40381   5.994  12.848  13.934  0.3233  0.0608  0.2135
24248W        W40382   1.723   4.825  12.953 -0.1501 -0.1395  0.4209
24249W        W40383   0.505  11.961   1.738 -0.0735  0.1765  0.0488
24250W        W40384  13.484   2.527   1.437 -0.0650 -0.0728 -0.0430
24251W        W40385   6.408   5.840   1.430  0.0787  0.0779  0.2403
24252W        W40386  15.350  17.652   2.268 -0.1266 -0.0328  0.0755
24253W        W40387   4.521   6.109   2.609 -0.1210  0.1337 -0.2860
24254W        W40388   0.250   1.942  15.156 -0.1622 -0.0158  0.0980
24255W        W40389   3.240  14.473  15.575 -0.0575  0.0949  0.0871
24256W        W40390  13.835  18.070  10.970 -0.1026  0.0245  0.1130
24257W        W40391  17.188  14.270   4.728  0.0373  0.1850 -0.1706
24258W        W40392  18.243   5.533   3.277  0.3381 -0.2502 -0.1271
24259W        W40393  12.613  17.404   0.530 -0.1642  0.1659  0.1661
24260W        W40394  16.542   8.282  14.851 -0.0891 -0.0773 -0.0348
24261W        W40395  13.600  13.222   0.732 -0.0693 -0.0585 -0.2173
24262W        W40396  13.587  13.240  13.864 -0.2269  0.1803 -0.0169
24263W        W40397   9.431  15.180  13.446  0.2269 -0.1636  0.2868
24264W        W40398  13.314   3.113  14.724 -0.3171  0.1025 -0.1614
24265W        W40399  17.164  14.182   2.027  0.0739 -0.3417 -0.3492
24266W        W40400  11.628  18.016   3.728 -0.1052  0.0794 -0.0180
24267W        W40401   9.016   7.975  11.422  0.2106 -0.2103  0.3012
24268W        W40402  17.182  10.557   0.185 -0.3226  0.0082  0.0107
24269W        W40403  14.269   0.040   4.805  0.0060 -0.0635 -0.2854
24270W        W40404  14.741   7.069  12.032  0.2495 -0.1103  0.0507
24271W        W40405  16.760  15.761   2.117 -0.0524  0.1661 -0.0277
24272W        W40406   2.323   7.015  15.649 -0.2834 -0.0508 -0.1690
24273W        W40407  11.380   5.132   2.591 -0.2440  0.0169 -0.2920
24274W        W40408   6.182   1.628  13.113  0.0244 -0.2527 -0.0258
24275W        W40409  18.161   3.984   1.847  0.1355 -0.0431 -0.3744
24276W        W40410   7.720   2.576   3.327 -0.1338  0.1394 -0.4516
24277W        W40411   5.813  11.915  10.982  0.1659  0.0639 -0.0488
24278W        W40412   5.909   7.387   4.887  0.1600 -0.0370 -0.2871
24279W        W40413   0.104   1.792  13.651  0.1516  0.0743 -0.0308
24280W        W40414   0.555   9.812  10.984 -0.3700 -0.0023  0.0421
24281W        W40415   7.911   6.006   5.226 -0.1327  0.0385  0.0852
24282W        W40416  13.374   1.097  12.688 -0.4577  0.0922 -0.1934
24283W        W40417   9.220   9.655   2.869 -0.2682  0.2311 -0.0380
24284W        W40418  14.517  14.334   0.052 -0.3972  0.2365 -0.0069
24285W        W40419  12.257  11.845  14.550 -0.4992 -0.0996 -0.0391
24286W        W40420   5.559   4.561   0.690  0.1508 -0.0065 -0.2197
24287W        W40421  13.398  14.800   1.201  0.0768 -0.4442 -0.2574
24288W        W40422   9.842   9.567  12.725  0.0151  0.1370 -0.0464
24289W        W40423   2.588   1.670   2.659  0.1489  0.1940  0.0558
24290W        W40424   8.027  14.756   4.850 -0.0551 -0.1023 -0.1771
24291W        W40425   1.433  15.147  13.589 -0.1894  0.0182  0.0989
24292W        W40426   5.508   3.727   5.355 -0.0095  0.2826  0.2209
24293W        W40427  10.149  11.142  12.911 -0.4511  0.0707 -0.1177
24294W        W40428   1.725  17.893   3.785 -0.0910  0.0900  0.1010
24295W        W40429   5.729   1.086   5.835 -0.1962  0.1601 -0.2117
24296W        W40430   6.915   9.323   0.770 -0.4705  0.0551 -0.2053
24297W        W40431  10.638  18.359  13.593  0.2320 -0.0106 -0.2533
24298W        W40432   9.692  13.898  12.651 -0.0828 -0.0364 -0.0098
24299W        W40433   3.628  12.670  13.149  0.0182 -0.1672 -0.0748
24300W        W40434   9.088  15.832  10.379 -0.0153  0.0747  0.1325
24301W        W40435   4.944   8.522   2.024  0.0206 -0.0531  0.0485
24302W        W40436   2.788   0.695   2.641 -0.2209 -0.1297  0.4475
24303W        W40437  11.689  14.502  12.138  0.0870 -0.2144  0.4313
24304W        W40438  11.265   0.646  12.863  0.1005  0.0435 -0.0726
24305W        W40439   1.442  17.449  15.896  0.2763  0.2500  0.1454
24306W        W40440  14.429   8.433  13.311 -0.1139 -0.1132 -0.0141
24307W        W40441  14.489  16.963   1.142 -0.0988 -0.0028 -0.0789
24308W        W40442  15.524  12.722  15.025 -0.0390 -0.1863 -0.0076
24309W        W40443  16.704  17.598  11.626  0.0572 -0.0622 -0.0970
24310W        W40444  14.521  11.293  11.025 -0.0444  0.1693  0.0148
24311W        W40445   1.280   5.731  11.038  0.3653  0.2091 -0.2290
24312W        W40446  15.757   4.125   2.834  0.0980  0.2616  0.2620
24313W        W40447  17.486  13.648  11.075 -0.0604 -0.1459  0.2116
24314W        W40448   0.079   3.820   2.470 -0.0872  0.0641 -0.1000
24315W        W40449  16.158  16.132   3.480 -0.2094 -0.1343 -0.0665
24316W        W40450   5.285   5.294  14.113 -0.0745  0.0293  0.0004
24317W        W40451  12.207   1.028   0.777 -0.2415 -0.1276  0.1668
24318W        W40452   0.576  10.961   2.114 -0.1593 -0.3262  0.2601
24319W        W40453   2.956  12.201   9.974 -0.0653  0.2374  0.4013
24320W        W40454  17.296  12.016   4.890  0.2170  0.1765  0.2376
24321W        W40455   8.244  11.742   2.891 -0.2095 -0.1821 -0.2677
24322W        W40456  14.098   0.747   3.827  0.0883 -0.1403 -0.0270
24323W        W40457   0.083  11.031  11.724 -0.1784  0.2474  0.2924
24324W        W40458   5.943   9.714  10.745  0.0682 -0.3172 -0.0304
24325W        W40459  16.458  12.243  13.823 -0.3491  0.1230  0.0630
24326W        W40460   4.327   9.586   0.165  0.0895  0.2139 -0.1284
24327W        W40461  10.302   5.342   3.476 -0.1394 -0.0167 -0.1390
24328W        W40462  12.310   7.040   5.338  0.3573 -0.1828 -0.1857
24329W        W40463   1.717  13.524   3.190  0.2197 -0.0608  0.0268
24330W        W40464   1.447   5.232  11.117 -0.2047 -0.0621 -0.1951
24331W        W40465   0.613  17.558   0.973  0.3216 -0.1059  0.2775
24332W        W40466  12.603   8.852  12.093 -0.1323 -0.0407 -0.0345
24333W        W40467  15.818   8.024   4.181 -0.0900  0.1477 -0.0285
24334W        W40468   9.047  16.240  11.345 -0.1564 -0.1661 -0.4123
24335W        W40469  12.741   3.470  12.593 -0.4467  0.0573 -0.2301
24336W        W40470   2.815  14.459  15.206  0.1474  0.1918 -0.2631
24337W        W40471  10.308  15.388  13.519  0.0039  0.0001  0.1828
24338W        W40472  16.007  16.377   4.842  0.0300 -0.0189 -0.0560
24339W        W40473  18.044  15.625  11.302 -0.2081 -0.0466  0.0181
24340W        W40474   7.832  15.426  12.887 -0.2380  0.3716  0.2537
24341W        W40475   3.863   9.518   0.498 -0.1424  0.0242 -0.3217
24342W        W40476  14.412  12.648   5.868  0.1197  0.0024  0.0183
24343W        W40477  14.751  17.183   2.254  0.0435 -0.0014 -0.0998
24344W        W40478   3.708   1.795  13.427 -0.0147  0.2376  0.0779
24345W        W40479   9.528   0.301  15.030  0.2941  0.3005  0.2319
24346W        W40480   5.330  10.449   0.056 -0.3409  0.0934 -0.4380
24347W        W40481   2.704   9.352   0.698 -0.0223  0.2768 -0.2384
24348W        W40482   5.381   5.760   5.768  0.2322 -0.3363 -0.1281
24349W        W40483   8.325  14.063   3.896 -0.1752  0.3604 -0.2095
24350W        W40484   3.276  15.536   5.968 -0.1637  0.1773  0.0186
24351W        W40485  10.281   5.550  12.907 -0.0488  0.0180  0.1236
24352W        W40486  16.746  10.165   5.786  0.0234  0.2059 -0.1870
24353W        W40487  18.457  12.226   3.667 -0.1710 -0.2982  0.0333
24354W        W40488  10.962  17.275   3.355 -0.0385 -0.3451 -0.0011
24355W        W40489  12.929  13.531  12.220  0.1160  0.0969 -0.1617
24356W        W40490  10.346  15.765   0.369 -0.0648  0.3396 -0.3376
24357W        W40491   8.132   6.485  13.820 -0.0403  0.1105  0.2968
24358W        W40492   0.861   7.939  13.925  0.1328  0.0765 -0.1739
24359W        W40493  10.389  10.760   4.070  0.0562 -0.1062  0.2984
24360W        W40494   0.260  18.132   1.504  0.2122  0.0389  0.1450
24361W        W40495  17.676  10.304  12.673 -0.0720  0.1113 -0.2045
24362W        W40496   2.219  14.000   0.376  0.4715  0.4100 -0.2090
24363W        W40497   2.915  12.247  14.530  0.0217 -0.0973  0.1483
24364W        W40498   0.252   0.631  15.651 -0.4545  0.0430  0.0117
24365W        W40499   3.765  15.108  11.818 -0.0769 -0.1226 -0.1741
24366W        W40500  17.644   2.624   0.475 -0.0496 -0.1338  0.2592
24367W        W40501  12.020  16.931   3.891  0.0271  0.2145 -0.2263
24368W        W40502   1.968   6.212   9.993 -0.1520  0.0273  0.0394
24369W        W40503  11.396   1.636  13.814  0.1509  0.0604 -0.1863
24370W        W40504  14.365  12.935  15.587  0.1501  0.0365  0.0250
24371W        W40505  11.506   2.612   2.224 -0.2700 -0.2105  0.0177
24372W        W40506  16.125  17.954   1.866 -0.0706 -0.0895  0.3300
24373W        W40507   9.106  17.667   0.305  0.1359  0.0531 -0.0585
24374W        W40508   2.752   8.560  15.844  0.0001 -0.0364  0.0926
24375W        W40509   2.054   9.162   3.780 -0.0094  0.4379 -0.1048
24376W        W40510  11.347  10.231  13.571 -0.2902  0.1319  0.0938
24377W        W40511  10.648   7.414  12.098  0.1922 -0.0860  0.1103
24378W        W40512   9.993  17.379  15.822  0.0227  0.2355 -0.0194
24379W        W40513  17.154  13.719  11.531  0.0886  0.1582 -0.2516
24380W        W40514  10.888   6.701  15.764  0.0441  0.1063  0.2194
24381W        W40515   0.295  15.839  15.880  0.0502  0.0767 -0.0574
24382W        W40516  17.737   3.139   5.129 -0.0013  0.2159 -0.0934
24383W        W40517   0.013   6.641   3.915  0.0041  0.0105 -0.1842
24384W        W40518  11.852  18.346  12.658 -0.1216  0.1037  0.0429
24385W        W40519   4.653   3.844  12.245 -0.0139  0.1059  0.0466
24386W        W40520   3.190  15.697  14.631  0.0694  0.0284  0.0790
24387W        W40521  13.653  15.339  11.634  0.0570 -0.1287  0.0224
24388W        W40522  15.955  14.615   2.568  0.3195  0.0513  0.1287
24389W        W40523  15.144   1.416   1.899 -0.3351 -0.0634  0.3963
24390W        W40524   5.055  16.955  13.623 -0.1873  0.1580 -0.1408
24391W        W40525   4.021   6.304   1.816 -0.1875 -0.0287  0.0018
24392W        W40526   3.732   3.267   0.529 -0.0453 -0.1144 -0.1678
24393W        W40527   0.600   4.022  13.445 -0.0984 -0.0707 -0.1853
24394W        W40528  15.966  13.201   2.075 -0.2232 -0.2640  0.0530
24395W        W40529   8.203   9.387  14.454 -0.1640 -0.1754  0.0332
24396W        W40530  16.903  17.100   4.516  0.0238 -0.1632  0.1861
24397W        W40531  11.563  13.532   0.526  0.0720 -0.0804 -0.3399
24398W        W40532   8.227   4.571  11.945 -0.0378  0.3321  0.1771
24399W        W40533  14.554  11.658  15.866 -0.1923  0.0720  0.1137
24400W        W40534  12.184  15.751  12.095 -0.0420  0.0663  0.1498
24401W        W40535  12.434  15.929   4.038  0.3141 -0.2467  0.3657
24402W        W40536  15.606   4.756   5.238 -0.0919  0.0932 -0.1469
24403W        W40537  10.011  11.078  13.412  0.0994 -0.2124  0.1670
24404W        W40538   5.731   4.018  12.523 -0.1539  0.0661 -0.0435
24405W        W40539  16.334  17.440  14.875  0.4113  0.0049 -0.1069
24406W        W40540   0.630  15.472   3.435  0.0667  0.0846 -0.2633
24407W        W40541   1.196   9.098   2.288  0.0230  0.1877  0.1258
24408W        W40542   5.952  16.995   4.009  0.1246 -0.4084 -0.0823
24409W        W40543   3.263   0.154   1.530  0.0548 -0.3187  0.2760
24410W        W40544  10.577  12.998  13.202 -0.0694  0.2683 -0.3052
24411W        W40545  12.572   1.944   2.891 -0.0655  0.2256  0.2364
24412W        W40546   0.702  16.889   0.553  0.1344  0.0438 -0.1927
24413W        W40547  17.308  17.778   1.569 -0.0067 -0.4138  0.0939
24414W        W40548   3.917   0.612   2.323  0.0143 -0.1526 -0.0461
24415W        W40549   2.579  13.678   3.235 -0.0625  0.0934  0.0507
24416W        W40550  13.817   3.394   2.468  0.0820  0.2998  0.2151
24417W        W40551   5.655   6.369   1.595  0.3198  0.0102  0.0689
24418W        W40552   9.176  10.892   0.265  0.2028 -0.2283 -0.1755
24419W        W40553  17.491   4.543   0.961 -0.2556  0.1245 -0.0872
24420W        W40554   4.793  10.642  11.827 -0.0798  0.0141 -0.0245
24421W        W40555  13.276  18.018   0.139  0.0946  0.4350 -0.1956
24422W        W40556  17.473   0.905   2.781  0.0449  0.2069 -0.2354
24423W        W40557   9.644  16.006   2.628 -0.0335 -0.1718  0.2196
24424W        W40558   8.869   5.246  13.680  0.2868 -0.2215  0.0997
24425W        W40559  15.665  16.817   4.147  0.2597  0.0299  0.2070
24426W        W40560   8.477   2.332   1.465 -0.0439  0.1721 -0.4397
24427W        W40561  14.112   4.127   4.382 -0.2669  0.0351  0.0205
24428W        W40562   6.935   8.401   3.734  0.0570 -0.2148 -0.1995
24429W        W40563   4.476   0.872  12.303 -0.1255  0.1494 -0.1487
24430W        W40564   9.819  14.291   5.349 -0.2632 -0.2156 -0.0332
24431W        W40565  12.996  10.953   2.057  0.1190  0.0883  0.0693
24432W        W40566  17.128   6.820  10.013 -0.2753  0.0032 -0.0372
24433W        W40567  16.454  12.933   5.934  0.0465  0.2146  0.0968
24434W        W40568   6.516  11.545   0.589 -0.3892 -0.2345 -0.0913
24435W        W40569  10.869   2.270  13.849  0.0901  0.0224 -0.0354
24436W        W40570   4.473   1.957   5.168  0.0633  0.0350  0.0276
24437W        W40571  15.709  12.341   2.826 -0.0688  0.1075 -0.0106
24438W        W40572  13.519   3.125   3.208 -0.2680 -0.0152  0.1359
24439W        W40573  11.985  18.425  11.333 -0.4341  0.0894  0.0475
24440W        W40574   1.056   8.747  13.813 -0.3822 -0.0444  0.0271
24441W        W40575  18.269  10.546   1.178  0.0207  0.3511  0.3373
24442W        W40576   2.630  14.525  11.781  0.2051  0.0160  0.2156
24443W        W40577   2.092  14.238   2.482 -0.1168 -0.0310  0.2232
24444W        W40578   4.845  17.194  10.328 -0.2736  0.2378  0.0174
24445W        W40579   0.933   3.127   1.983 -0.0846 -0.0548 -0.0252
24446W        W40580   5.346  14.061  12.707 -0.0735  0.0040 -0.5538
24447W        W40581  17.960   8.190  10.501  0.0398  0.3671  0.3030
24448W        W40582  14.804   2.719   2.862 -0.0363 -0.1228  0.0396
24449W        W40583   9.652   5.955  15.567 -0.2520 -0.0927  0.1439
24450W        W40584  15.666  11.935   1.562 -0.0811 -0.1161  0.0874
24451W        W40585  17.493  12.262   0.717 -0.0302  0.2084  0.0219
24452W        W40586  15.087  11.362  14.919 -0.1825  0.1440  0.0330
24453W        W40587  18.008   0.815  14.073 -0.4855  0.2015 -0.2425
24454W        W40588  12.286   6.643  15.400  0.0798  0.0384  0.0244
24455W        W40589  10.172   8.042   0.712 -0.0896 -0.0744 -0.1956
24456W        W40590   5.047   7.582   0.370  0.0658  0.2318  0.1936
24457W        W40591   0.844   0.414   1.555  0.0622  0.0693 -0.0341
24458W        W40592  10.636   8.536  11.719  0.1513 -0.0385  0.0432
24459W        W40593   2.840   5.002  11.949 -0.2066  0.2147  0.1839
24460W        W40594  11.567  11.434  15.532 -0.0234 -0.0531  0.0509
24461W        W40595  14.588   8.583  12.027  0.3805  0.3754 -0.0679
24462W        W40596   4.383   0.881  14.633  0.0562  0.2019  0.1685
24463W        W40597  10.602   8.914  12.567  0.3716  0.0708  0.0848
24464W        W40598  15.841   9.085   3.062  0.0015 -0.0394 -0.1874
24465W        W40599   5.763   6.176   0.069 -0.1069  0.3487  0.1195
24466W        W40600  11.028  18.382   2.024 -0.1618  0.1427  0.0486
24467W        W40601   7.190   4.944   2.484  0.2234  0.1157  0.4290
24468W        W40602   6.534  13.467   0.896 -0.0233 -0.3013 -0.1247
24469W        W40603   3.125   9.794   4.316 -0.0341 -0.1308 -0.0343
24470W        W40604   0.386   3.412   2.734  0.3032  0.0235  0.0184
24471W        W40605  15.587  16.983  11.380 -0.2462 -0.1289 -0.1336
24472W        W40606   9.406  14.921   0.097 -0.0025 -0.0120  0.3493
24473W        W40607  17.074   5.477   1.000 -0.0206  0.2003  0.0391
24474W        W40608   5.183   2.220   0.054  0.1608  0.2805 -0.1233
24475W        W40609  10.458   8.323   0.395  0.1910  0.0779 -0.0279
24476W        W40610   7.820  18.308  13.023  0.1547  0.2461 -0.0531
24477W        W40611  12.870  17.912  11.112  0.0274  0.0010 -0.1315
24478W        W40612  16.067   4.918   0.930 -0.0649 -0.1419  0.0675
24479W        W40613   8.884   9.939   0.751 -0.2882  0.0213 -0.1868
24480W        W40614   0.199  13.704   4.566 -0.3102  0.2022  0.0316
24481W        W40615   1.501  14.066   3.169  0.0888  0.0280  0.1086
24482W        W40616   9.684   3.010  11.810 -0.0444  0.3851 -0.0041
24483W        W40617  15.246  10.913  13.791 -0.3424 -0.0496 -0.0255
24484W        W40618   9.864  14.625   3.015  0.0008 -0.0420  0.1677
24485W        W40619   2.542   7.953   4.958 -0.3406 -0.2919  0.2191
24486W        W40620  17.575  16.754   5.463  0.0525 -0.1654  0.1226
24487W        W40621   2.334  11.225   1.642  0.0421  0.1979  0.1146
24488W        W40622   5.261  13.879   2.334  0.2053  0.3690  0.1938
24489W        W40623   8.944  15.576   3.212 -0.0688  0.3266 -0.1647
24490W        W40624   2.055   5.649  13.340  0.3323  0.2972  0.3089
24491W        W40625   2.931  12.744  14.516 -0.3519  0.2856 -0.3466
24492W        W40626  15.892  16.145  12.618  0.0171  0.1469  0.2868
24493W        W40627  14.148  16.525   1.072 -0.0390  0.0065 -0.0670
24494W        W40628   2.127   5.381  12.218 -0.2650 -0.2355  0.2348
24495W        W40629   0.218   4.228  14.839  0.4259 -0.1351 -0.0159
24496W        W40630   4.002  17.106   4.388 -0.0214  0.1279 -0.0427
24497W        W40631   1.958   0.575   2.235 -0.1932 -0.1129 -0.0114
24498W        W40632   1.141  10.829   3.803  0.1064  0.2987 -0.2972
24499W        W40633   4.073  15.535   2.820 -0.0521  0.1097 -0.4251
24500W        W40634   4.958   1.097   1.658  0.0392  0.3101 -0.0393
24501W        W40635   2.387  12.637  11.899 -0.1368  0.0462 -0.1336
24502W        W40636  16.218  13.960   3.165 -0.0398 -0.1574  0.0605
24503W        W40637   6.608   3.395   1.616 -0.0490 -0.0443 -0.1037
24504W        W40638   0.516   1.615  14.837 -0.2528  0.0886 -0.0918
24505W        W40639   8.978   6.607   5.845 -0.0068 -0.1235 -0.1684
24506W        W40640  18.286   2.763  13.773 -0.0700  0.2187 -0.2050
24507W        W40641   0.596  18.041   1.812 -0.1279 -0.1125  0.4169
24508W        W40642  15.470  14.897   3.094 -0.1697  0.1398  0.0904
24509W        W40643  11.338  17.063   1.425 -0.0332 -0.2162 -0.3008
24510W        W40644   1.513   6.143   2.193  0.1858  0.2149  0.1346
24511W        W40645   9.688   4.239   2.318 -0.2810 -0.1597 -0.0612
24512W        W40646   7.132   4.063   2.175 -0.1614  0.1382  0.2190
24513W        W40647   6.206  13.361  13.757 -0.0647 -0.1818  0.0899
24514W        W40648  17.173  15.054   2.598 -0.1619 -0.1945  0.0057
24515W        W40649   7.403  18.101  12.855 -0.1646 -0.0653 -0.0125
24516W        W40650   7.498  12.330  11.970  0.1299 -0.1303 -0.0460
24517W        W40651   3.151   4.138  14.545  0.3266  0.0187 -0.1613
24518W        W40652   8.633   0.809   5.122 -0.0682 -0.1499  0.3677
24519W        W40653   1.876   7.487   0.936  0.3483  0.1854 -0.2477
24520W        W40654   9.209   5.613  11.484  0.0877 -0.1353  0.0417
24521W        W40655  10.646  11.492   2.476  0.0532  0.1492 -0.3667
24522W        W40656   5.299  11.699  13.922 -0.2408  0.2154  0.0053
24523W        W40657   2.524   4.795  15.181  0.1912 -0.2706  0.1375
24524W        W40658  12.571  18.031  10.697 -0.0474  0.1629 -0.1212
24525W        W40659  18.225  13.763  13.144 -0.2494 -0.1796  0.0803
24526W        W40660   0.756   0.194   5.390  0.1490 -0.4057  0.2025
24527W        W40661   6.297  16.502   5.374  0.2277  0.2112 -0.1559
24528W        W40662   6.697   0.757  13.574 -0.0870 -0.0511  0.1020
24529W        W40663  12.174  12.095   0.928 -0.3002  0.1950 -0.1480
24530W        W40664  13.167   1.499   9.982 -0.1605 -0.2761 -0.2517
24531W        W40665   0.589   2.483   2.888  0.3885 -0.0037 -0.0119
24532W        W40666  10.041   6.233   3.710 -0.0674  0.1967 -0.1214
24533W        W40667  17.145   7.769   0.479  0.0857 -0.2670 -0.3219
24534W        W40668   8.328  17.402   5.260 -0.1572 -0.0495 -0.0736
24535W        W40669   8.657   1.603  11.741  0.1532 -0.0906  0.0973
24536W        W40670   4.961   1.480   2.116  0.0916  0.1032  0.0877
24537W        W40671   9.837   8.703  15.356  0.0875  0.1899  0.1815
24538W        W40672   1.530  16.877  13.734 -0.2078  0.1612 -0.2792
24539W        W40673   3.561  17.318  13.547  0.1629  0.1884  0.2168
24540W        W40674  12.482   3.036   0.527  0.0036  0.0389 -0.0675
24541W        W40675  11.993   5.747   0.040  0.0544  0.0114  0.1960
24542W        W40676   1.616   6.425  12.849 -0.1150  0.1622 -0.0788
24543W        W40677  13.903  12.442  13.750  0.0872  0.2172  0.1389
24544W        W40678  13.696  14.059   3.387 -0.0489  0.1433  0.0054
24545W        W40679  12.328   7.531  12.622  0.0886  0.2015  0.2822
24546W        W40680  11.779  11.159   3.939  0.2303  0.4724 -0.1780
24547W        W40681   0.334  11.488  11.463  0.3753  0.4182  0.1347
24548W        W40682   6.575   9.254   1.814  0.0196 -0.1016 -0.0999
24549W        W40683  15.468   6.969   2.667 -0.3969  0.0433 -0.0278
24550W        W40684  16.138   5.836  15.404 -0.0071  0.1130 -0.1096
24551W        W40685   6.104  17.617  12.284  0.0171 -0.0434 -0.0514
24552W        W40686  10.241   7.213   3.673  0.3617 -0.0379  0.1145
24553W        W40687   1.968  16.422   1.141 -0.0861 -0.0917  0.2676
24554W        W40688   8.856  14.503  12.312 -0.3660 -0.0663 -0.0511
24555W        W40689  16.346   6.253   2.164  0.3683 -0.1346  0.2839
24556W        W40690   4.352   5.312   4.644 -0.1488 -0.0027  0.0964
24557W        W40691  18.251  11.537  15.726 -0.1260 -0.2729 -0.1313
24558W        W40692   5.895   2.440   3.547 -0.0947  0.1456  0.1447
24559W        W40693   8.071   1.412  11.020  0.1320 -0.0259  0.2073
24560W        W40694   7.177  16.536   3.413  0.1482  0.0302 -0.1579
24561W        W40695   9.183   0.045   3.547  0.2631 -0.0575  0.1900
24562W        W40696  17.178   8.298   3.372  0.1323  0.1055  0.2050
24563W        W40697  12.326   7.021  15.743  0.2916  0.0396  0.0218
24564W        W40698  10.542  14.268   1.451 -0.2445  0.2053 -0.3935
24565W        W40699   9.764  15.961  12.547  0.0412  0.1257  0.1659
24566W        W40700  16.291   4.942   0.523 -0.2606  0.0212  0.0827
24567W        W40701   9.873   3.932  15.795 -0.1577 -0.2373 -0.0025
24568W        W40702   6.756   9.533  13.154  0.2986 -0.0358  0.0049
24569W        W40703  13.791   7.193  15.827  0.2721 -0.3763 -0.0693
24570W        W40704   9.794   6.706   2.289 -0.0740 -0.1596 -0.2010
24571W        W40705  11.323  16.313   0.925  0.0002  0.1904  0.3158
24572W        W40706   9.945   2.712  12.221  0.0699 -0.0279  0.3277
24573W        W40707   0.181  15.795  11.182  0.0537 -0.3281  0.1683
24574W        W40708  12.651  18.014  14.629 -0.1833  0.0348  0.1974
24575W        W40709   6.659  13.087  15.286 -0.0903  0.2346 -0.1981
24576W        W40710  10.030   8.220   5.222  0.3058  0.0369  0.0794
24577W        W40711  16.622  13.535   0.807  0.0048  0.5199  0.1916
24578W        W40712   4.809  16.959   1.281  0.0374 -0.1137 -0.2827
24579W        W40713   8.479   1.837  14.995  0.2079 -0.0142  0.2183
24580W        W40714   3.950  12.527   4.390 -0.1342 -0.1896 -0.2037
24581W        W40715   9.166   2.549  14.574  0.0486 -0.0287  0.0288
24582W        W40716   0.343   2.051  15.815 -0.2671 -0.4286  0.0451
24583W        W40717   4.286  13.469   4.687  0.1591 -0.1408 -0.2154
24584W        W40718  16.539   3.659   0.539  0.0332 -0.1883  0.0901
24585W        W40719   3.656  17.678  13.902 -0.2140 -0.3108  0.3706
24586W        W40720   9.405   5.682   3.263 -0.4082  0.1673 -0.1003
24587W        W40721   2.568   7.307   1.534 -0.1181  0.0664 -0.0183
24588W        W40722   1.985   8.263  13.749 -0.0782  0.2692 -0.1711
24589W        W40723   1.505  13.815  12.321  0.0614  0.1942  0.1004
24590W        W40724   0.278   7.541  11.538 -0.1044  0.3066 -0.3644
24591W        W40725   0.842  14.650  11.572 -0.0135 -0.5896 -0.0470
24592W        W40726  12.891   1.864  11.223  0.0488 -0.0993  0.0829
24593W        W40727  11.225   7.663   2.274  0.2366  0.3018  0.2241
24594W        W40728   5.881  11.928   9.949 -0.1052 -0.0096 -0.0137
24595W        W40729   2.589  16.280  12.884  0.0152  0.2692 -0.1768
24596W        W40730  14.047  10.181  15.123  0.0394 -0.3301  0.3166
24597W        W40731  16.746   7.062   2.065 -0.0555 -0.1316  0.0920
24598W        W40732   3.980   9.478   9.723  0.2061  0.0722 -0.1818
24599W        W40733  13.264   8.747  12.660  0.4615 -0.0159 -0.1749
24600W        W40734  16.909   1.188  14.463  0.2366  0.2376  0.1268
24601W        W40735  15.463   8.542   3.948 -0.0917  0.0244  0.0413
24602W        W40736   9.701  11.658  13.384 -0.0624 -0.0940 -0.0235
24603W        W40737  10.063  16.390   5.016 -0.1468 -0.1783  0.0567
24604W        W40738  14.025   1.000   5.015 -0.0505 -0.1977 -0.0789
24605W        W40739  10.407  18.079   5.959  0.0102 -0.0373  0.1392
24606W        W40740  14.851  13.019  15.672  0.0711  0.1339  0.0158
24607W        W40741  10.313  11.981   3.197  0.1929  0.2584 -0.1403
24608W        W40742  16.103   4.683  11.094  0.1579  0.0975 -0.0602
24609W        W40743  12.800  10.470   2.045  0.0209 -0.3545  0.1762
24610W        W40744  11.521   2.621  12.673  0.1061 -0.2417 -0.0754
24611W        W40745  15.421  14.678  11.223  0.2439  0.0068  0.0687
24612W        W40746   5.571   8.542   2.045 -0.1211 -0.0853 -0.0583
24613W        W40747   5.078   1.577   4.722 -0.0146  0.3403 -0.1054
24614W        W40748  10.310  17.240   5.555  0.0348  0.1792 -0.2800
24615W        W40749   5.028  18.377   4.527  0.1292  0.0790 -0.0945
24616W        W40750  15.762   7.634   1.101  0.2726  0.2159 -0.0027
24617W        W40751   2.346  13.106  10.382 -0.1250 -0.0541 -0.1436
24618W        W40752   0.230  10.164  11.915 -0.0176 -0.1171  0.2756
24619W        W40753   0.677   8.912  14.140  0.2173 -0.0902 -0.1370
24620W        W40754  12.672  17.633  13.046  0.1078  0.1668 -0.0429
24621W        W40755  17.526  17.268   5.863 -0.1028  0.1706  0.0899
24622W        W40756   1.992   5.501  15.284  0.2974 -0.1475  0.0973
24623W        W40757  11.825  14.898  14.878  0.0520 -0.1334 -0.0975
24624W        W40758   6.011   2.504  15.819 -0.0394 -0.0626  0.1970
24625W        W40759  18.104  12.116  14.230 -0.1618  0.0669 -0.2866
24626W        W40760   6.094   9.908  15.833 -0.1649 -0.2758 -0.0785
24627W        W40761  10.712  17.434  13.951  0.1598 -0.0518  0.1307
24628W        W40762  13.082   1.075   1.759 -0.0698  0.5021  0.0231
24629W        W40763   1.635  14.197  11.538  0.2727 -0.1104  0.2365
24630W        W40764  11.905  16.797  12.515  0.1596 -0.0884  0.0373
24631W        W40765   5.743   3.878  10.937 -0.0945  0.2269  0.3245
24632W        W40766   1.093  13.503  13.773  0.2157  0.0984 -0.1203
24633W        W40767  16.287   2.085  12.388 -0.0894 -0.0473  0.2647
24634W        W40768   4.999   7.664  12.446 -0.0866  0.1946  0.2643
24635W        W40769  16.313   6.460   4.964  0.1962 -0.1047 -0.3588
24636W        W40770  17.860  12.223   1.565  0.0865  0.3893  0.2425
24637W        W40771  18.193   7.108   1.756  0.2299 -0.5055 -0.0481
24638W        W40772  16.826  15.563   0.529  0.0912 -0.0477  0.0806
24639W        W40773  18.052   4.427   0.266  0.1904 -0.1624 -0.1608
24640W        W40774   7.523   6.656   2.938  0.1788  0.0864  0.0467
24641W        W40775   2.357  13.940  11.940 -0.1520 -0.0814 -0.0008
24642W        W40776   2.927   5.885   1.708  0.0421 -0.4862  0.0371
24643W        W40777  17.310  18.160  14.082  0.1956  0.0661 -0.2381
24644W        W40778  11.746   1.586   2.817 -0.3317  0.1624  0.1014
24645W        W40779  17.843  13.977  10.038  0.1875  0.1525 -0.0247
24646W        W40780  11.631   0.184   3.011  0.1404 -0.5612 -0.2031
24647W        W40781   2.463   1.495   3.187  0.0611  0.0629 -0.1883
24648W        W40782   3.173   5.688  10.447  0.1634 -0.1959  0.1442
24649W        W40783  10.184  12.782   4.889 -0.0881  0.1801 -0.3888
24650W        W40784   3.511   0.784  13.165 -0.1640 -0.1954 -0.1248
24651W        W40785   7.557   8.253  10.618  0.3057  0.4554  0.1114
24652W        W40786   9.196  14.177   3.896  0.0310 -0.3109  0.2968
24653W        W40787   9.621   7.342  12.542  0.0682  0.2383 -0.0915
24654W        W40788  13.214   6.150  11.720 -0.1815  0.2623  0.0435
24655W        W40789   0.109  13.796  12.797 -0.0239 -0.0705  0.0424
24656W        W40790  16.449   3.143   0.512  0.3540  0.1313  0.1309
24657W        W40791   5.646  11.863   4.636  0.1333  0.2622 -0.1706
24658W        W40792   4.886   2.610  13.579 -0.0578  0.0461  0.2917
24659W        W40793   4.068   6.282   0.796 -0.0974  0.1076 -0.1082
24660W        W40794   7.409  11.536   0.127  0.0302  0.1053  0.0055
24661W        W40795  10.228   3.267   2.070 -0.1490 -0.3076  0.1599
24662W        W40796  13.227   5.508   1.785 -0.3747  0.1036  0.0426
24663W        W40797   5.477  12.043   5.475  0.2305  0.2265 -0.3942
24664W        W40798   9.050  15.718  11.284  0.1837  0.1564  0.3323
24665W        W40799  17.768   0.576   4.085 -0.3551  0.0224  0.2172
24666W        W40800   7.551   3.677   6.056 -0.0020  0.3598  0.0451
24667W        W40801   9.166  11.690   0.313 -0.0318  0.0245 -0.1641
24668W        W40802  14.091   1.589   2.151  0.0545  0.0599  0.1854
24669W        W40803   5.245  16.925  11.834 -0.1334 -0.1783 -0.1720
24670W        W40804  10.699   2.145  13.358  0.1867  0.0168  0.0796
24671W        W40805  17.902  13.121  13.927 -0.0701 -0.1496 -0.0086
24672W        W40806   4.033  13.454  15.828  0.0957  0.3734  0.0670
24673W        W40807   7.589   9.025   0.130  0.2539  0.0529  0.1045
24674W        W40808   0.706  13.973  15.187  0.1286  0.3131 -0.0559
24675W        W40809  15.130  14.243   1.207  0.3969 -0.0726 -0.0820
24676W        W40810  12.781  10.519   4.746 -0.1251 -0.0218 -0.2712
24677W        W40811   5.983  12.378   0.372 -0.0709  0.1162 -0.2251
24678W        W40812   3.086  18.349   5.056 -0.0381  0.1049  0.0468
24679W        W40813   1.372  16.669  15.286  0.1250  0.0337  0.1235
24680W        W40814   9.934  11.399  14.814 -0.1637 -0.2120 -0.1329
24681W        W40815  16.205  10.714  15.851 -0.0235 -0.1585  0.1160
24682W        W40816   6.258   8.512   5.961  0.0611 -0.2899 -0.0055
24683W        W40817   0.894  17.259   1.284 -0.3574  0.0426  0.1132
24684W        W40818   8.410   6.506  12.452  0.0386 -0.0348  0.0032
24685W        W40819   3.277   5.427   4.080 -0.3043 -0.1964 -0.0186
24686W        W40820   5.616  15.976   3.799 -0.3321  0.1256 -0.1062
24687W        W40821   1.667   3.681  15.317  0.1501 -0.2124 -0.1582
24688W        W40822   4.970  17.033   3.010 -0.1351 -0.0198 -0.1886
24689W        W40823   6.839   7.110  15.428 -0.2819  0.0818 -0.0211
24690W        W40824   6.554   2.570   4.167 -0.1606 -0.0571  0.0608
24691W        W40825  15.192   2.920   2.613 -0.1940  0.1066 -0.2437
24692W        W40826  10.239   9.901  12.362  0.1788  0.2373 -0.1866
24693W        W40827   2.621   4.377   4.330  0.0009  0.0190 -0.0499
24694W        W40828   2.483   0.057  14.569 -0.0894 -0.1298 -0.1425
24695W        W40829  16.742   4.012   2.065 -0.0272 -0.0087  0.3061
24696W        W40830   9.091   4.208  15.322 -0.3070  0.0668  0.0331
24697W        W40831   8.153  13.191  11.691  0.0106 -0.0440 -0.0591
24698W        W40832  15.551   4.574  13.540 -0.1682 -0.0325 -0.2816
24699W        W40833   6.415  16.226   0.316  0.3711  0.2628  0.2086
24700W        W40834   2.615   7.771   2.825 -0.0123  0.0511 -0.1062
24701W        W40835  16.718   5.506   4.655 -0.0584  0.1975  0.0529
24702W        W40836   4.678   4.869  15.516 -0.0248 -0.0064  0.2133
24703W        W40837   8.954   1.599   0.907 -0.1848  0.2589  0.0456
24704W        W40838   2.649  13.155  14.818 -0.3297 -0.0889  0.1172
24705W        W40839  13.341   3.475   0.342 -0.4604  0.1072  0.3191
24706W        W40840   9.482  13.056   5.213 -0.0629  0.0027  0.0940
24707W        W40841  16.342   7.406   4.720  0.1606 -0.1594 -0.5356
24708W        W40842  11.377   0.531   5.389  0.0443 -0.1374 -0.1870
24709W        W40843   8.465   2.741   0.050  0.1012 -0.0072  0.0298
24710W        W40844  15.577  12.782  11.649  0.1956  0.2392 -0.0013
24711W        W40845  14.394   8.455   2.564 -0.0189  0.0490 -0.0117
24712W        W40846   1.561   7.204   4.602  0.1400 -0.0484  0.0649
24713W        W40847  15.849   7.492  13.228 -0.0324 -0.2242  0.2162
24714W        W40848   0.320   9.993  11.381 -0.0636  0.1445 -0.1195
24715W        W40849  12.931   4.124   2.503 -0.0309  0.0141  0.1940
24716W        W40850  16.228   1.561   3.320  0.0820 -0.1380 -0.2363
24717W        W40851  11.680   8.974  12.365  0.1616 -0.1394 -0.0214
24718W        W40852  15.981  16.819   1.200 -0.1502  0.0494 -0.1030
24719W        W40853   2.146  17.254   4.814 -0.1784  0.1741  0.0385
24720W        W40854   2.171  10.235  11.333 -0.2940  0.2514  0.0786
24721W        W40855  16.029   4.490  13.322  0.0421  0.0081  0.2414
24722W        W40856  13.567  15.332  14.305 -0.2073  0.1510 -0.1617
24723W        W40857   4.677   1.132   2.571  0.2973  0.1417 -0.4073
24724W        W40858   9.356  17.869   3.144 -0.3168 -0.0433 -0.0971
24725W        W40859   8.557  16.344  12.025  0.1535 -0.2436  0.2190
24726W        W40860   1.891  14.002   4.713 -0.0246 -0.0168  0.1765
24727W        W40861   6.139  16.845   2.167 -0.4024 -0.0787 -0.0457
24728W        W40862  15.033   8.501   4.493 -0.0058  0.5448  0.1181
24729W        W40863   3.539  11.533  14.156 -0.1617  0.0453  0.1765
24730W        W40864   4.275   2.192   3.363 -0.2286 -0.0241  0.1171
24731W        W40865   5.110   9.811   3.589 -0.0509 -0.0923 -0.1837
24732W        W40866  11.801  10.004  15.011  0.2452  0.1372 -0.0009
24733W        W40867  14.783   0.726  10.408 -0.0880 -0.0694 -0.3314
24734W        W40868  16.545   6.970  13.385 -0.1571  0.0560  0.1849
24735W        W40869  12.455  16.677   2.588 -0.1322  0.3105 -0.1543
24736W        W40870  15.546   4.798  14.813  0.0535  0.0480 -0.0779
24737W        W40871  16.074  14.211  12.451 -0.1845 -0.1715  0.2814
24738W        W40872   8.750  14.266   3.666 -0.0150  0.0538 -0.1304
24739W        W40873   3.222   2.546  10.902  0.1193 -0.2879  0.0078
24740W        W40874   0.849  17.973  12.139 -0.1503 -0.4557 -0.3474
24741W        W40875  10.047  15.988  15.015  0.1013  0.0615  0.0872
24742W        W40876  12.031  11.239   3.033 -0.0125 -0.2093 -0.1619
24743W        W40877   3.503   3.253   3.162  0.2355 -0.1572 -0.0132
24744W        W40878   4.313   5.274   4.123  0.0136  0.0634 -0.1522
24745W        W40879   4.458  14.831  14.470 -0.3534  0.2168 -0.1303
24746W        W40880  18.133  12.171   3.310  0.2395  0.0751  0.0751
24747W        W40881   4.386  18.383   2.739 -0.2409 -0.0384  0.1522
24748W        W40882   8.243  11.379   3.808 -0.0970 -0.1153  0.1073
24749W        W40883   8.993   8.630   5.721  0.3203  0.2219 -0.1890
24750W        W40884   3.861   0.304   5.419  0.1004 -0.2911 -0.0738
24751W        W40885  17.373   4.699  15.388 -0.1326  0.1907 -0.0572
24752W        W40886  12.578   0.327   3.059 -0.0662 -0.0501 -0.1055
24753W        W40887  17.697   3.522  13.967  0.0461 -0.0225  0.3511
24754W        W40888   3.952   7.591  12.275  0.1308 -0.0840  0.1514
24755W        W40889  13.653  18.004  12.733  0.0445 -0.0119  0.1128
24756W        W40890  10.956  14.200   4.976 -0.1940 -0.1740 -0.0097
24757W        W40891  12.924   1.915   1.462 -0.4238 -0.0526 -0.1176
24758W        W40892   4.454  18.063   0.564  0.0920  0.1706  0.2343
24759W        W40893   9.567   6.300   2.474  0.0480 -0.0341 -0.1141
24760W        W40894   7.224   2.818  12.037  0.1960  0.1296  0.0259
24761W        W40895  17.935   3.681  12.390 -0.2110  0.1452  0.0194
24762W        W40896   1.539   5.047  10.206  0.1503  0.1069  0.1856
24763W        W40897   3.487   1.825  14.355  0.2206  0.2544 -0.1517
24764W        W40898   6.506   5.605  11.312  0.1076 -0.0062 -0.1104
24765W        W40899  10.861  16.818   2.620 -0.0611 -0.0895  0.1451
24766W        W40900  11.362   1.624   0.976  0.1009 -0.0465  0.1912
24767W        W40901   2.510  14.836   3.474 -0.1711 -0.2626  0.0701
24768W        W40902  14.205   8.613  12.346  0.2602  0.0560 -0.1594
24769W        W40903   8.914   7.591   5.367 -0.1201 -0.2819  0.0425
24770W        W40904  13.152   9.100  11.421  0.0426 -0.1109  0.2589
24771W        W40905   1.457   8.613  11.794 -0.2120  0.0242  0.3981
24772W        W40906   1.201  12.897  10.749  0.0205 -0.2695  0.2186
24773W        W40907   9.170  17.196  13.040  0.3096 -0.3418 -0.1393
24774W        W40908   0.521   1.545  13.412 -0.1831 -0.0858  0.1495
24775W        W40909  17.911   9.869   3.289 -0.0044  0.0573 -0.0866
24776W        W40910   6.782  10.856   3.161 -0.1653  0.1917 -0.0714
24777W        W40911   1.416   3.879  15.683  0.2413 -0.0700  0.0259
24778W        W40912  18.233   2.477   5.347  0.2674 -0.0945 -0.1753
24779W        W40913   4.977   4.478   3.566 -0.1945 -0.1440 -0.1949
24780W        W40914  15.440   1.374  12.255  0.1003 -0.0875  0.2598
24781W        W40915   0.635   0.862  11.821  0.0094 -0.0918  0.1938
24782W        W40916   4.726   0.474  14.358  0.0898  0.0500 -0.0889
24783W        W40917  17.033   2.460   2.943  0.4226 -0.2476 -0.0796
24784W        W40918  12.966  10.706   1.173 -0.0694 -0.2175 -0.0223
24785W        W40919  13.049   1.213  13.064 -0.2246 -0.2948  0.1880
24786W        W40920  17.650   4.151  14.824 -0.1222 -0.3375  0.2333
24787W        W40921  11.617   5.665   3.833  0.1302 -0.1565  0.5688
24788W        W40922   6.182   1.216  14.530  0.0053  0.3214 -0.2003
24789W        W40923  17.308   0.144   1.547  0.1110  0.0045  0.3188
24790W        W40924   5.373   2.360   1.564 -0.2223 -0.3796  0.0885
24791W        W40925   3.973   4.169   0.645  0.3265 -0.1334  0.0038
24792W        W40926  10.393  13.628  11.612 -0.3504 -0.0318 -0.1831
24793W        W40927  18.312  10.207  10.616  0.1196 -0.0829  0.0449
24794W        W40928   7.235   2.619  13.512 -0.0631  0.2937 -0.1233
24795W        W40929  12.901   4.226   1.853 -0.1242  0.2391 -0.1845
24796W        W40930  12.984   0.287  15.513  0.0489  0.1289 -0.0478
24797W        W40931  10.376   1.594  15.226  0.1716 -0.1804  0.1674
24798W        W40932  18.382  10.390   1.650 -0.1097 -0.1910  0.2379
24799W        W40933   4.793   7.966  15.243 -0.2186  0.1296 -0.2766
24800W        W40934   2.302  16.140   1.630  0.2144 -0.1358 -0.0307
24801W        W40935  17.423   0.276  15.337  0.2486  0.0768  0.0153
24802W        W40936   4.953  15.059   1.390  0.1514 -0.3166 -0.0513
24803W        W40937  11.230  17.654  15.626  0.1108  0.0422 -0.3568
24804W        W40938   2.279   4.525   0.882 -0.0780 -0.2524  0.1479
24805W        W40939   4.426  17.324  13.734 -0.2032  0.1925  0.6562
24806W        W40940   0.212   5.603  11.994 -0.0309  0.1570  0.2139
24807W        W40941   8.081  17.673  15.611  0.3351  0.1262  0.1882
24808W        W40942  13.484  11.153   2.944  0.1032 -0.0506 -0.1129
24809W        W40943  10.764   4.477  14.779  0.2104  0.0833  0.3639
24810W        W40944   4.735  16.048  11.048 -0.3351  0.0211 -0.1932
24811W        W40945  13.637   1.340   3.021  0.1229  0.1282 -0.2400
24812W        W40946  16.591   5.433  13.197  0.3278 -0.0018  0.0237
24813W        W40947   6.508  17.880   3.382 -0.0819  0.1014  0.1503
24814W        W40948  12.736   6.758  15.167 -0.0835  0.4360 -0.1201
24815W        W40949  17.586   4.647  11.984  0.0163  0.1194  0.1637
24816W        W40950   8.731  16.781  14.757 -0.0706  0.1322  0.1185
24817W        W40951   0.198   7.203   2.654  0.3206  0.1229  0.0957
24818W        W40952  10.573   0.085   2.782 -0.0827  0.1290 -0.0258
24819W        W40953  12.260  18.230  11.939  0.2680 -0.0223  0.0388
24820W        W40954  15.316  17.492  14.692 -0.2726  0.1065 -0.0432
24821W        W40955  14.226   1.305   3.734  0.1468 -0.1306 -0.1000
24822W        W40956   2.137  15.562   5.378 -0.0384 -0.0166 -0.1573
24823W        W40957   6.254  13.896   0.781 -0.1113  0.1155 -0.0568
24824W        W40958   7.196   6.386   1.403  0.0264 -0.1258  0.0800
24825W        W40959  16.691  16.733  12.762 -0.1041 -0.0507 -0.0148
24826W        W40960  16.019  13.106  14.220  0.0800 -0.0950 -0.0379
24827W        W40961  11.784   6.910   6.106 -0.2232  0.0944  0.3048
24828W        W40962  14.903   5.241  11.261  0.1694  0.1013 -0.0519
24829W        W40963   2.167  14.561  12.238 -0.0080  0.1388  0.0858
24830W        W40964   7.508   0.643   0.352  0.0685 -0.3587 -0.2470
24831W        W40965  17.120  11.039  11.579 -0.0425  0.0712  0.1693
24832W        W40966   9.583   0.363   5.530 -0.0228  0.0339 -0.2409
24833W        W40967  14.991   6.064   5.110  0.1379  0.0672 -0.3673
24834W        W40968  12.084  13.190  14.834  0.1267 -0.1661 -0.0411
24835W        W40969  11.763  14.976   3.242  0.3039  0.2163  0.3033
24836W        W40970  16.208  16.457  11.614 -0.0548  0.3936  0.0081
24837W        W40971  13.281   4.810  12.246 -0.0644 -0.1388 -0.0348
24838W        W40972  15.465  17.462  12.676 -0.0291  0.1421  0.1685
24839W        W40973  16.034   8.878   0.757 -0.1821 -0.0423  0.2307
24840W        W40974   7.903   8.226   3.687  0.3691  0.2569 -0.2076
24841W        W40975   4.496   1.856   1.477  0.2000 -0.1790  0.0387
24842W        W40976  13.431   6.744  11.081 -0.0811 -0.0076  0.3112
24843W        W40977   8.904  16.037  15.260  0.0998 -0.0197  0.0346
24844W        W40978  16.438   0.864   5.578 -0.0106  0.0392 -0.2105
24845W        W40979  16.978   3.198   1.503  0.1130  0.1760  0.1583
24846W        W40980   3.968   2.007   0.215 -0.0003  0.0370 -0.0352
24847W        W40981  15.685   9.599  11.124  0.3546 -0.2793  0.1482
24848W        W40982   5.797   5.112  14.910  0.0825  0.1027 -0.1366
24849W        W40983  11.246   8.870   4.678 -0.2193  0.0392 -0.2975
24850W        W40984   2.793   0.671   0.301 -0.2951 -0.1612  0.5097
24851W        W40985  12.948   0.305  11.064 -0.0746  0.0115 -0.0412
24852W        W40986  10.687   0.378   3.360 -0.0754  0.1229 -0.0968
24853W        W40987  17.131   4.270   2.899 -0.0142  0.1397 -0.0942
24854W        W40988  10.794   5.475  13.821 -0.0902 -0.1168  0.0051
24855W        W40989   8.053  17.794   3.192 -0.1857 -0.0354 -0.0129
24856W        W40990   8.214  13.295  12.411  0.0984  0.3052  0.1922
24857W        W40991  15.448   6.077   1.159 -0.0046  0.1974 -0.1942
24858W        W40992  12.874   9.612  12.904  0.0340 -0.0319  0.1562
24859W        W40993  10.428   6.844  15.145  0.2440  0.0100 -0.2392
24860W        W40994  10.166  18.012  11.967 -0.0481 -0.1868  0.0007
24861W        W40995  16.833   6.819   3.580  0.3668 -0.1992 -0.2892
24862W        W40996   7.752   8.763  15.610  0.1293 -0.1762 -0.0227
24863W        W40997   3.385   9.845   0.402  0.1259 -0.0840 -0.1980
24864W        W40998   5.641   9.700  15.227 -0.2062 -0.0024  0.1337
24865W        W40999  18.009   2.929  11.043  0.0119  0.2508 -0.1745
24866W        W41000   5.300  18.121   0.486 -0.1353 -0.2097  0.0240
24867W        W41001   6.447  12.123   3.323 -0.1814  0.0992  0.1392
24868W        W41002  10.366  14.112  15.466  0.2618 -0.0284 -0.1766
24869W        W41003   2.970  12.150   4.729  0.0260 -0.0374  0.0703
24870W        W41004   9.834   5.453   3.167 -0.1004 -0.1881  0.1597
24871W        W41005  11.891   0.906  14.699 -0.1122  0.1031 -0.0934
24872W        W41006   9.802  18.293  12.929  0.1180  0.0013 -0.4475
24873W        W41007  14.971   2.114   2.033 -0.0146  0.2927 -0.2320
24874W        W41008  17.143  13.926   1.558 -0.1045  0.0970 -0.0447
24875W        W41009   9.214  10.540   3.123  0.0379 -0.0904 -0.2039
24876W        W41010   5.207   6.327   3.523  0.3221  0.0925 -0.2350
24877W        W41011  15.505  11.605  12.122  0.0757 -0.7136  0.4384
24878W        W41012   0.916  11.148  12.226 -0.1547 -0.2931  0.0544
24879W        W41013   7.843   5.807  14.083  0.4505 -0.0730 -0.4321
24880W        W41014   0.945  11.079  12.764  0.0626  0.0213 -0.0681
24881W        W41015   8.676  13.059   5.104 -0.2135 -0.1080  0.0800
24882W        W41016   2.436  14.924   0.463 -0.0786  0.0280 -0.0940
24883W        W41017  17.937   9.542  11.051 -0.1633 -0.0589 -0.2107
24884W        W41018  13.704   9.167  12.454 -0.1377  0.0551  0.1377
24885W        W41019   2.389  10.467   3.284  0.0305 -0.0750  0.0751
24886W        W41020  18.139  15.477  10.357  0.1133  0.1687 -0.0086
24887W        W41021  11.570  16.722  13.892 -0.0808 -0.2723  0.0667
24888W        W41022  12.771  16.205  12.665 -0.1032 -0.4560 -0.3586
24889W        W41023  17.814  17.637   5.692  0.0898 -0.2797 -0.1509
24890W        W41024   9.449  11.279   4.007  0.1288  0.1687 -0.0501
24891W        W41025   4.678   7.745   5.480 -0.2540 -0.1197  0.1241
24892W        W41026  15.169   1.078   3.861  0.1961 -0.2992  0.2318
24893W        W41027  17.319  11.698  14.912  0.0990 -0.1874  0.1824
24894W        W41028   8.528  16.717   6.226  0.3744  0.2463 -0.0566
24895W        W41029   9.403  16.132  14.423 -0.0015 -0.0147 -0.1638
24896W        W41030  10.154   4.438  12.794  0.1476 -0.2209 -0.0430
24897W        W41031  16.756  15.278  11.955  0.0109 -0.0468  0.0468
24898W        W41032  13.309   5.910   3.044  0.1614  0.0632  0.0104
24899W        W41033   2.559  14.869   4.026  0.1236 -0.0080 -0.2440
24900W        W41034  18.001   5.602  11.174  0.3325 -0.0432 -0.0528
24901W        W41035  13.447  18.384  13.770 -0.1772 -0.1728 -0.3551
24902W        W41036  14.572   5.059   4.379 -0.0480  0.1950  0.2190
24903W        W41037  12.261   4.738  14.805  0.1747  0.0903 -0.2457
24904W        W41038  12.778   5.724   3.024  0.1200  0.2978  0.0379
24905W        W41039   1.014   9.876   2.846  0.3378 -0.4063 -0.1081
24906W        W41040   9.791   8.342  11.309  0.3338 -0.1904  0.1436
24907W        W41041  17.800  17.224   3.991 -0.0197  0.0048  0.1413
24908W        W41042   8.685  18.036  12.961 -0.1773 -0.1074 -0.2675
24909W        W41043   7.879   2.911   3.933 -0.1969  0.2748  0.0445
24910W        W41044   7.884  16.335   5.399  0.3770  0.1410  0.2411
24911W        W41045   2.354  12.103   0.513 -0.0654  0.1196  0.0389
24912W        W41046  14.717  13.427   2.799  0.2468 -0.0994 -0.0289
24913W        W41047  14.750  13.899  12.647 -0.2639  0.4626  0.1006
24914W        W41048  15.776   9.388   2.653 -0.1342 -0.2057 -0.2165
24915W        W41049   3.195   6.026  10.873  0.4164  0.1128 -0.2109
24916W        W41050  15.840   7.472   4.363  0.5022  0.0844 -0.1014
24917W        W41051   8.861   7.230   5.042 -0.0356 -0.0430 -0.2049
24918W        W41052   8.542   7.626  12.462 -0.0784 -0.0324 -0.0441
24919W        W41053   9.871   0.671   2.697 -0.0273  0.1722  0.1634
24920W        W41054   5.120   1.499  15.236 -0.1290  0.0648  0.3221
24921W        W41055   5.563   0.110   2.164  0.3433  0.1374  0.1624
24922W        W41056  12.743   9.458  14.138  0.1457 -0.0155 -0.2450
24923W        W41057   8.131   9.637   5.669 -0.1968  0.2768  0.0708
24924W        W41058   4.291  11.561  14.336 -0.0849  0.0924  0.3223
24925W        W41059  13.161  13.041   5.345 -0.1773 -0.0711 -0.1008
24926W        W41060  17.399  10.623   1.637 -0.0803 -0.2797  0.4129
24927W        W41061   5.547   9.096  15.864  0.0706 -0.0206 -0.1171
24928W        W41062  11.360  13.708  13.723  0.0002 -0.0129 -0.0803
24929W        W41063  13.279   5.736  13.886  0.4189  0.1219 -0.3977
24930W        W41064   4.160   8.699   1.444 -0.1149  0.1047 -0.2190
24931W        W41065   7.083   8.878  12.166 -0.0263 -0.0927  0.0803
24932W        W41066  12.634  11.318   5.928  0.0532 -0.0922  0.0759
24933W        W41067   6.432  11.853  15.435  0.0416  0.1530 -0.1146
24934W        W41068  13.509  16.108  10.771  0.2615 -0.1517  0.3617
24935W        W41069  17.387  11.990   3.616  0.1922  0.2950 -0.2178
24936W        W41070  17.478   0.389  10.851  0.3957 -0.0988  0.1024
24937W        W41071   9.640  18.350   0.904 -0.0809 -0.0965 -0.0898
24938W        W41072  12.592  17.597   2.309  0.3225  0.0091  0.1452
24939W        W41073   4.013   7.346  14.743  0.0405 -0.1213 -0.0016
24940W        W41074  12.694   8.463  12.959  0.2116  0.0151  0.0015
24941W        W41075  12.094   0.041   2.763  0.2545  0.0333 -0.0157
24942W        W41076  15.298  17.742   4.962  0.1188  0.1068  0.1024
24943W        W41077   7.925  13.545   1.659 -0.0269  0.2636 -0.1938
24944W        W41078   3.616  12.827   5.223 -0.2176  0.0434  0.0153
24945W        W41079  11.939  11.813  12.432  0.1007  0.1512  0.0622
24946W        W41080   3.089   9.340  11.744 -0.2304 -0.2472  0.0078
24947W        W41081   2.372   9.265  13.632 -0.2151 -0.1510  0.2254
24948W        W41082   9.800   6.007   1.513 -0.0850 -0.1308  0.1684
24949W        W41083  14.718   2.608  12.313  0.2301 -0.0842  0.2425
24950W        W41084  13.894   9.182  13.523 -0.2665 -0.1578  0.2539
24951W        W41085  12.082   6.406   0.769 -0.0130  0.1989 -0.3834
24952W        W41086  17.123   4.940   1.145 -0.0762  0.1033 -0.0267
24953W        W41087   3.866   1.746   3.258 -0.2593  0.0652  0.0444
24954W        W41088  12.745  14.076   3.971 -0.1267  0.2985  0.2294
24955W        W41089  16.516   0.892   4.200  0.0555 -0.0169  0.0612
24956W        W41090   0.528   6.415  10.583 -0.3511  0.1309 -0.0780
24957W        W41091  11.033   2.673   3.808  0.0541 -0.1172  0.1889
24958W        W41092   9.085  12.250  11.872  0.1637  0.0499 -0.3395
24959W        W41093  14.184  14.084   3.232  0.0610 -0.3288  0.3891
24960W        W41094  12.671  11.293  11.893  0.1944  0.1089  0.0682
24961W        W41095   3.276   0.190  15.588 -0.3246 -0.1268 -0.0250
24962W        W41096  14.952   7.703   0.980  0.1430  0.0320  0.1768
24963W        W41097   5.378   3.222  13.711 -0.0437 -0.3243 -0.0776
24964W        W41098   5.981   3.656   5.183  0.0268  0.1966 -0.0883
24965W        W41099  15.714   3.297   6.003 -0.1812  0.0078 -0.2308
24966W        W41100   0.783   6.868   0.596  0.0437  0.3262  0.0146
24967W        W41101   8.942   9.124  11.462  0.1033  0.3221  0.2494
24968W        W41102   7.083  15.577   0.702  0.0354  0.0126 -0.1942
24969W        W41103  16.237  10.617  11.152 -0.0993  0.3704 -0.0261
24970W        W41104   7.195  16.771   5.159 -0.0789  0.1057 -0.0198
24971W        W41105  16.779   2.058  15.719 -0.1201 -0.1052 -0.1135
24972W        W41106  13.115   5.851  12.871 -0.3146 -0.2657  0.0672
24973W        W41107   8.205   8.436  15.753 -0.0891  0.0487 -0.1538
24974W        W41108   3.691  12.140  11.276 -0.2564  0.0375  0.2162
24975W        W41109  16.283   2.158   4.846  0.0452 -0.0725  0.0576
24976W        W41110   4.347   9.468   3.543  0.3761 -0.0468  0.3270
24977W        W41111   2.905   9.792   4.792 -0.0710 -0.1681 -0.0229
24978W        W41112   1.301   3.274  13.356 -0.0586  0.0058 -0.5038
24979W        W41113  16.395   3.415   4.362  0.3083  0.0368  0.2842
24980W        W41114  18.081   1.192   3.126  0.2120 -0.0909 -0.1205
24981W        W41115   9.373  15.674  11.720 -0.3481 -0.2236  0.2942
24982W        W41116   9.508  12.476   3.549 -0.3069 -0.1049  0.0507
24983W        W41117   7.340   7.612   1.851 -0.2555 -0.2292  0.0236
24984W        W41118  17.475  14.231   2.467  0.1651 -0.2034  0.0759
24985W        W41119  13.899   1.772  14.409 -0.1926 -0.0831  0.1440
24986W        W41120  11.572  15.310   0.901  0.1881  0.0622  0.1888
24987W        W41121  11.725   9.263   3.296 -0.2942  0.1766 -0.0435
24988W        W41122   1.187  12.836   1.483 -0.0607  0.0166 -0.1205
24989W        W41123  14.430   7.185  15.076 -0.0312 -0.1806 -0.0184
24990W        W41124  10.072   5.060  14.902 -0.0181  0.1103 -0.0924
24991W        W41125   8.082  11.720   3.428 -0.2486 -0.2142  0.2024
24992W        W41126  10.176   1.223  12.109  0.1487 -0.1225  0.2153
24993W        W41127  11.151   0.835  14.267 -0.1753 -0.3062  0.0821
24994W        W41128  12.653  16.699   4.490 -0.5523 -0.1038  0.2940
24995W        W41129   2.944  13.720   5.556 -0.0336  0.0599  0.0287
24996W        W41130   8.623  14.132  15.072  0.0257  0.3001 -0.1382
24997W        W41131   7.567   6.373   5.276 -0.2347  0.0360  0.1716
24998W        W41132   6.308  16.972  12.791  0.3153 -0.1502 -0.1170
24999W        W41133   9.212   9.500   0.786 -0.1443 -0.1061  0.1967
25000W        W41134   8.564  14.126   5.083 -0.0005 -0.0869  0.0510
25001W        W41135   1.206  15.674   5.088  0.0684  0.1396  0.1098
25002W        W41136   5.660  12.252   2.482  0.1308 -0.3378  0.1346
25003W        W41137  15.486   3.367  12.268 -0.0861  0.1052 -0.1336
25004W        W41138  13.952   6.987  14.000  0.3148  0.2610  0.0033
25005W        W41139   0.737   2.400   1.694 -0.0961 -0.1134  0.1437
25006W        W41140   6.979   2.168  14.151 -0.3217 -0.0815 -0.0352
25007W        W41141  15.549   6.390  11.014  0.0070 -0.2924 -0.2762
25008W        W41142   5.009  15.374  14.977  0.0470 -0.0930 -0.0578
25009W        W41143  17.182  15.551  14.276 -0.0386 -0.0261 -0.3721
25010W        W41144   0.883   6.703   4.260 -0.0539  0.2966  0.2556
25011W        W41145   6.862  17.695   1.295 -0.1935  0.0649 -0.2704
25012W        W41146  14.438  16.934   1.937  0.2004  0.2256 -0.0841
25013W        W41147   9.371   5.669   0.170 -0.2494  0.0291  0.1473
25014W        W41148  12.444  10.136  12.911  0.0899  0.3645  0.1358
25015W        W41149   3.109  10.489   1.716 -0.1042  0.1369  0.4221
25016W        W41150   1.373   0.172  11.616 -0.5510 -0.2420  0.1528
25017W        W41151   4.546  13.553  13.192 -0.0269 -0.2407 -0.2547
25018W        W41152   9.764   0.000  13.649 -0.0017  0.1872  0.1818
25019W        W41153  15.714  11.953   1.041 -0.0656 -0.1484 -0.0943
25020W        W41154  11.989   6.864   4.809 -0.1631  0.0985 -0.0860
25021W        W41155  15.711   5.725   0.899 -0.2453 -0.1073 -0.1585
25022W        W41156  16.521   7.754   2.978  0.0196 -0.1445 -0.1085
25023W        W41157   1.888   6.485  10.433 -0.2046  0.0156  0.0911
25024W        W41158  13.415   5.358  12.854 -0.1705 -0.0909 -0.4467
25025W        W41159   3.953  16.183   3.274 -0.3962  0.2058  0.1965
25026W        W41160   0.432  16.174  10.868 -0.2052 -0.0829  0.0485
25027W        W41161   9.638   2.281  12.685 -0.0940 -0.0835 -0.0078
25028W        W41162  13.925  13.815  15.007 -0.2124 -0.0525 -0.3510
25029W        W41163  11.038   9.378  10.436  0.1458  0.4027  0.2028
25030W        W41164   7.167  11.178   3.982  0.0617 -0.1339  0.0200
25031W        W41165   7.266   4.957  10.840  0.0807 -0.2852  0.1225
25032W        W41166  15.828   4.279   2.353 -0.1955 -0.0332  0.1627
25033W        W41167  13.431  10.897  14.220  0.1641  0.2146  0.1229
25034W        W41168  12.670  14.286   4.796 -0.2653  0.0297 -0.0014
25035W        W41169   6.736  13.548  14.380  0.1297 -0.0869 -0.0422
25036W        W41170  10.261   2.957   0.619 -0.3618  0.1195 -0.0822
25037W        W41171  14.716   9.220  13.401  0.0770  0.0075  0.1544
25038W        W41172  15.067  15.924  13.680 -0.2473  0.0691  0.2521
25039W        W41173   2.270   1.126   0.680  0.0969  0.1335 -0.1121
25040W        W41174   7.943  13.323  13.103 -0.1272  0.1211  0.0632
25041W        W41175   2.746  14.561   3.119 -0.0136 -0.1797 -0.0577
25042W        W41176   9.748   7.358  11.142 -0.0641 -0.3210  0.1523
25043W        W41177   2.214   3.618  14.168 -0.1063 -0.3759  0.2799
25044W        W41178  13.553  15.689  12.912  0.2872  0.1342  0.0516
25045W        W41179   0.236  18.367  12.829 -0.0616 -0.3462 -0.2140
25046W        W41180   3.336   4.688   0.466 -0.0292  0.1768  0.0747
25047W        W41181   8.258  10.347  15.008  0.0063 -0.1188 -0.2233
25048W        W41182   7.058  10.449  11.432  0.0751  0.0635 -0.0387
25049W        W41183  15.785   5.671   4.723 -0.4700 -0.3411  0.0447
25050W        W41184  18.122   3.908   0.286 -0.3454  0.1812  0.0696
25051W        W41185   6.975  18.345   0.332 -0.1080  0.3116 -0.0519
25052W        W41186  14.356  17.429  15.395  0.1559  0.0507 -0.0382
25053W        W41187   7.991   0.655   0.123 -0.1293 -0.1150 -0.0264
25054W        W41188   2.404  17.044  12.440 -0.0123  0.2783  0.0847
25055W        W41189   4.603   5.011  14.225 -0.3028  0.0306 -0.1636
25056W        W41190  13.154   9.944  13.843  0.1116  0.0255 -0.1876
25057W        W41191   1.502  14.649  14.373  0.0684 -0.0703  0.0304
25058W        W41192  10.582   8.605   5.474 -0.0387  0.0341 -0.3931
25059W        W41193  10.673  17.934  13.878  0.0444 -0.1452 -0.1562
25060W        W41194  15.149   5.537   1.719 -0.2901  0.0465 -0.0928
25061W        W41195   0.870  16.837  14.551  0.1563  0.1802  0.3837
25062W        W41196  17.989   5.093   1.438  0.1011 -0.0531 -0.1821
25063W        W41197   3.512   0.584  12.107  0.0683  0.0706 -0.1374
25064W        W41198   2.963  17.609   3.325  0.0678 -0.0324 -0.0362
25065W        W41199  18.009   1.793  12.472  0.2032  0.0194 -0.3826
25066W        W41200   0.615   8.990   4.817 -0.0360  0.1321  0.0845
25067W        W41201  11.096   6.042   1.653  0.1031  0.2293  0.2027
25068W        W41202  15.567   7.593  12.772 -0.0423  0.0628 -0.2865
25069W        W41203   5.151   4.041   5.495 -0.2423  0.1738 -0.3324
25070W        W41204  13.842   3.186  11.139  0.3724 -0.3004 -0.0437
25071W        W41205   9.705   6.407  11.500  0.1616 -0.1420 -0.2460
25072W        W41206   7.228  12.745  11.776 -0.2921 -0.2373  0.3189
25073W        W41207   5.704  13.459   4.355  0.0319  0.2000  0.1917
25074W        W41208  12.227  11.323  14.550  0.0689 -0.0860 -0.3211
25075W        W41209   4.992   0.055  12.220 -0.3526 -0.2082  0.0102
25076W        W41210   1.628  12.856   1.244  0.2250 -0.1845 -0.2010
25077W        W41211  15.633  14.400  14.602 -0.2206  0.0054 -0.0387
25078W        W41212   6.780  14.125   4.682  0.0463 -0.0351  0.1841
25079W        W41213  11.338   1.905   4.097  0.0621 -0.0977 -0.3341
25080W        W41214  10.042  12.595   3.966  0.2126 -0.0259 -0.0891
25081W        W41215  11.853   6.233  12.910 -0.1530 -0.0957  0.2299
25082W        W41216   8.373  17.868  12.017  0.1000  0.1663  0.0372
25083W        W41217   4.207   8.147   0.144 -0.1167 -0.0474 -0.2568
25084W        W41218  11.643  13.821   4.728 -0.2808 -0.1749 -0.0690
25085W        W41219  18.182   5.866   2.342  0.1645  0.0080  0.1807
25086W        W41220   7.221  13.470   4.666  0.1753  0.4064 -0.0232
25087W        W41221   0.181   4.222   3.370  0.1025  0.2174  0.0406
25088W        W41222  10.189  18.222  13.778 -0.2308  0.0434  0.1893
25089W        W41223   5.429  13.301   0.345 -0.0445 -0.1132  0.2120
25090W        W41224  16.497   9.081  11.442  0.0144 -0.0132  0.2506
25091W        W41225   9.393   3.360  13.951 -0.0957  0.3052 -0.2737
25092W        W41226   8.753  13.079   3.172  0.0455 -0.0330 -0.0163
25093W        W41227  18.209   5.359   2.389  0.0108 -0.3831 -0.3092
25094W        W41228  17.187   6.228   3.614  0.0663 -0.0369  0.1064
25095W        W41229   5.709   5.547  14.373 -0.3636 -0.2133 -0.1676
25096W        W41230  14.765   8.386   0.521  0.0587 -0.0996  0.1422
25097W        W41231  15.397   7.293   3.528  0.2364  0.0602 -0.2637
25098W        W41232   4.071  12.921   9.800 -0.0443  0.3099  0.0154
25099W        W41233   0.328  16.247   5.151  0.0544  0.2900 -0.1265
25100W        W41234  17.612   3.238   2.201 -0.0653 -0.1412 -0.1334
25101W        W41235  12.008   8.086   1.889  0.0891 -0.1381 -0.1855
25102W        W41236  16.536   6.141  12.886  0.1316 -0.1323 -0.0703
25103W        W41237  12.878  12.478   2.119  0.1745  0.0208 -0.3476
25104W        W41238   7.580   7.622  10.710  0.0761  0.0311  0.0503
25105W        W41239  16.881  14.795   2.904 -0.3463  0.1500  0.2002
25106W        W41240  15.726   2.712  13.511  0.0214  0.0328  0.2018
25107W        W41241   5.696  16.573  15.251  0.2088  0.2993  0.0649
25108W        W41242   6.269   4.110   0.538  0.2361  0.0961  0.1151
25109W        W41243   4.301  15.475  12.405 -0.0696 -0.0186 -0.0848
25110W        W41244   4.639  17.550   0.502 -0.1060  0.0355  0.2305
25111W        W41245   7.258  12.173  13.157 -0.2565 -0.1988 -0.1094
25112W        W41246  17.832   0.916  14.867  0.0568  0.0404  0.1925
25113W        W41247   9.191   5.624  15.527  0.0551  0.2835 -0.1304
25114W        W41248  14.046  16.457  14.787  0.2291 -0.0006  0.0096
25115W        W41249   2.710  11.479   2.727  0.0260 -0.0124 -0.0017
25116W        W41250  14.824   8.925  14.934 -0.0532 -0.1047  0.2678
25117W        W41251  13.926  10.019  11.368 -0.0273  0.0027 -0.3037
25118W        W41252   1.941  13.993  15.439  0.0732  0.4400  0.0363
25119W        W41253   4.509   0.411  13.391 -0.1070  0.0605  0.0247
25120W        W41254  15.838  17.664  11.712  0.1639 -0.0914 -0.0048
25121W        W41255   6.021  12.870   4.959 -0.2049  0.1844 -0.0528
25122W        W41256  17.661  11.497   5.138 -0.1352 -0.0116  0.3463
25123W        W41257  12.619   9.478   4.819 -0.2314  0.1465  0.0783
25124W        W41258  11.369  15.566  13.129  0.0933 -0.0931 -0.3346
25125W        W41259   4.898   3.412  14.694  0.0223  0.0304  0.0604
25126W        W41260   3.958   3.214  13.696  0.0101  0.1119  0.2049
25127W        W41261   8.130   6.467  14.717  0.0224  0.2529 -0.1082
25128W        W41262   1.821   8.654  11.444 -0.0932 -0.1686 -0.0700
25129W        W41263   2.826  18.272  14.861  0.0612 -0.3121 -0.2814
25130W        W41264   4.508   2.809  11.067  0.2843 -0.0810 -0.0796
25131W        W41265  15.597   3.763  14.464 -0.0024  0.0430  0.0568
25132W        W41266  15.028   4.466  13.092 -0.0104  0.3628 -0.0917
25133W        W41267   9.872   9.886   3.860  0.2805 -0.0893 -0.1114
25134W        W41268  11.005  17.434   1.502  0.1897 -0.0903 -0.0037
25135W        W41269  10.266   1.395  12.617 -0.1430 -0.0978 -0.0355
25136W        W41270   5.054   6.576   1.022 -0.0299  0.0572 -0.1269
25137W        W41271   7.049   4.016  13.391  0.0730 -0.0175  0.0401
25138W        W41272   3.619   5.627  15.147 -0.3605 -0.1594 -0.0485
25139W        W41273  12.266   7.125   3.326 -0.0621 -0.2073  0.2214
25140W        W41274   5.969  18.275   1.899  0.1423 -0.0006 -0.1426
25141W        W41275   0.050  11.851   1.985 -0.0644  0.1221  0.0985
25142W        W41276   7.491  17.713   4.069 -0.0064 -0.0783  0.1779
25143W        W41277   9.027   2.821   2.098  0.2434  0.1026  0.5474
25144W        W41278   5.431   3.159   0.953  0.3108  0.0685 -0.2668
25145W        W41279   8.303  16.151   1.557 -0.0933  0.0442 -0.0035
25146W        W41280  13.748  17.748   0.326 -0.2318 -0.1067 -0.1635
25147W        W41281  11.337   3.521  11.705  0.0793 -0.1449  0.3333
25148W        W41282   6.267   0.552   2.852 -0.1133  0.2283  0.0014
25149W        W41283   2.064   4.662   4.054 -0.0139 -0.1316 -0.2414
25150W        W41284  11.135   0.300  13.207 -0.2292  0.0268  0.4932
25151W        W41285   0.252  12.951  10.594  0.1436 -0.2157  0.1093
25152W        W41286  18.128  16.239   5.933 -0.1193  0.4274 -0.0470
25153W        W41287  17.054   8.973  10.400  0.2699  0.0885 -0.1713
25154W        W41288   0.042  16.778   3.775 -0.1411  0.2427  0.0319
25155W        W41289  12.465  16.660  15.336 -0.1168  0.0059 -0.2512
25156W        W41290  13.191  14.601  12.090  0.1642 -0.1622 -0.0316
25157W        W41291   2.960   5.872   3.308  0.0696 -0.2359 -0.0114
25158W        W41292  14.110   9.208   5.646  0.1851  0.2001 -0.2108
25159W        W41293   5.316   6.364   0.290  0.3141  0.1972 -0.0692
25160W        W41294   5.214  16.968   0.789  0.3285  0.0601 -0.2508
25161W        W41295  15.826  12.433  12.486 -0.0596 -0.2286  0.1109
25162W        W41296   0.673   4.494   3.574 -0.1843 -0.0062 -0.1931
25163W        W41297  13.803  15.117   5.950  0.1089  0.1944  0.3003
25164W        W41298  18.044  17.910  11.393  0.0155  0.0581  0.1603
25165W        W41299   5.323   2.774   4.412  0.0760 -0.1446 -0.0205
25166W        W41300   0.636  16.072   4.173 -0.0111  0.0713 -0.1161
25167W        W41301   3.261   3.751   2.488 -0.1488 -0.3626 -0.2937
25168W        W41302  17.197  11.014   3.556  0.0707 -0.2823 -0.1383
25169W        W41303   6.401  13.994   1.773 -0.2752 -0.2085  0.2476
25170W        W41304   9.658  18.118   5.447 -0.1544  0.1141 -0.0519
25171W        W41305  16.440   2.985  11.131 -0.1361 -0.0067 -0.0817
25172W        W41306   8.034  12.138   1.772  0.0746 -0.0634 -0.0196
25173W        W41307  15.606   0.730   1.626 -0.0444 -0.0305  0.2219
25174W        W41308  12.777   9.046   4.594  0.3336 -0.0381 -0.0371
25175W        W41309   8.646   7.715  13.664  0.0414 -0.2106 -0.3818
25176W        W41310  17.016  15.472  11.328  0.1692  0.0485 -0.0980
25177W        W41311  16.769   3.264   4.751 -0.2568 -0.1456 -0.1660
25178W        W41312   0.620  15.783   1.477  0.1649 -0.0398  0.0094
25179W        W41313   8.265   7.276  15.211 -0.0270  0.2934  0.2651
25180W        W41314   8.438   5.414  13.869  0.0562 -0.1317  0.1611
25181W        W41315   3.365  14.080   0.763  0.0928  0.0386  0.0480
25182W        W41316   7.559   0.965   0.826 -0.1562 -0.0966 -0.0744
25183W        W41317   2.819  13.755  13.656 -0.0462 -0.0855  0.1449
25184W        W41318   2.645  15.443   2.600  0.0220  0.0284 -0.0848
25185W        W41319   5.574  11.374   1.530 -0.0355  0.4092 -0.1651
25186W        W41320   9.585  14.106   2.630  0.1798  0.0135  0.2153
25187W        W41321   1.308   3.267  14.721  0.2721 -0.1424 -0.2182
25188W        W41322   8.185   4.927   3.687 -0.0870  0.3360 -0.0925
25189W        W41323   5.912  15.646   2.851 -0.0749  0.1786  0.1184
25190W        W41324   0.030   1.371  13.960 -0.1108  0.1076 -0.4430
25191W        W41325  17.164   3.440   2.064  0.1211  0.2357  0.3893
25192W        W41326  16.034   9.233  14.794  0.0918 -0.1417  0.2617
25193W        W41327  18.468  14.106   0.419  0.3965 -0.1319  0.5118
25194W        W41328  12.923  15.442   6.041 -0.0035  0.1364  0.0404
25195W        W41329  13.705  14.771  13.435 -0.4502  0.1704 -0.0868
25196W        W41330   4.103   4.684   2.506  0.0985 -0.0414 -0.0093
25197W        W41331   6.565  14.574   4.457 -0.2692  0.0556  0.0167
25198W        W41332  17.219  14.190  13.576 -0.1717 -0.0532 -0.2864
25199W        W41333  16.099   5.298   0.073  0.0119  0.2218  0.0543
25200W        W41334   9.750  16.644   0.640 -0.0620 -0.0692  0.4416
25201W        W41335   8.053  12.801  15.027 -0.0120  0.3103  0.0566
25202W        W41336  14.688  17.162   4.053 -0.0789  0.2267 -0.1400
25203W        W41337  18.312  13.022   0.313  0.0104  0.2926 -0.1353
25204W        W41338  13.430   7.469   3.934 -0.1998 -0.0595  0.0920
25205W        W41339   8.189   7.952   5.987  0.2285 -0.0023 -0.0668
25206W        W41340  18.280   9.092   2.762 -0.3107 -0.1476  0.0173
25207W        W41341  13.451   0.181   3.385  0.0179  0.1001  0.0012
25208W        W41342   0.489   4.527   5.711  0.1697  0.1278 -0.3437
25209W        W41343   8.096   2.061  12.028  0.2027 -0.0615  0.1773
25210W        W41344   3.605  11.707   2.324  0.2901  0.0574 -0.2141
25211W        W41345   7.140   1.277  12.233 -0.3159  0.1384  0.1855
25212W        W41346   7.222   2.273  11.434  0.1353 -0.1104 -0.1062
25213W        W41347   9.782   1.506  15.300  0.3932 -0.2578 -0.1276
25214W        W41348   3.939  12.190  15.564  0.2063 -0.0006 -0.0456
25215W        W41349  14.265  15.726   2.504  0.1729 -0.1463 -0.1100
25216W        W41350  10.763   0.823  12.921  0.2156 -0.2651  0.6391
25217W        W41351   8.712   6.436   2.095 -0.1617 -0.1397 -0.2510
25218W        W41352   9.895   0.966   4.831 -0.2001 -0.0952  0.0611
25219W        W41353   1.233  18.202  11.786  0.2210  0.0029 -0.1699
25220W        W41354  17.864   4.353   0.749 -0.2488 -0.0525 -0.1477
25221W        W41355   1.551   4.845  15.387 -0.2423 -0.2979 -0.1757
25222W        W41356  11.664   6.085  15.798  0.1881 -0.1682 -0.0163
25223W        W41357   6.494   8.405   1.026  0.0095 -0.1744 -0.0555
25224W        W41358   4.496  11.586  13.202  0.1566 -0.2199 -0.1826
25225W        W41359  17.914  15.733   3.827 -0.0569  0.0364  0.2565
25226W        W41360  13.884   8.792  11.131  0.0375  0.2135 -0.2504
25227W        W41361  17.323  13.922  10.165  0.1020  0.1545  0.1392
25228W        W41362   5.307   5.214   2.040 -0.1493  0.0808 -0.2318
25229W        W41363  13.265   9.061   4.790 -0.1106 -0.1060  0.0012
25230W        W41364  15.145   5.827  14.354 -0.0609  0.3484  0.1754
25231W        W41365   3.405  15.289  12.696  0.0287 -0.1228  0.1774
25232W        W41366  15.897   5.998  14.954  0.0377 -0.4995 -0.0111
25233W        W41367   8.151   1.382  13.142  0.3554 -0.0800  0.0406
25234W        W41368  11.781   6.593  13.288 -0.2351  0.1382 -0.0234
25235W        W41369  11.660   7.570  15.557  0.2295 -0.3310 -0.2812
25236W        W41370  13.786   5.877  11.148 -0.0006  0.0416 -0.0704
25237W        W41371  10.470   9.345   3.382 -0.1009  0.0465 -0.2686
25238W        W41372  15.517  13.318   2.707 -0.0903  0.1149 -0.0559
25239W        W41373   3.097   5.431  12.079  0.1168 -0.0931 -0.0060
25240W        W41374  11.077   7.111   4.357 -0.0281 -0.0167 -0.1456
25241W        W41375   1.633   3.469   1.322 -0.0381  0.3463  0.1924
25242W        W41376   3.734   1.724   5.511  0.0494 -0.3009 -0.2446
25243W        W41377   5.445   0.772  11.235  0.0363  0.3686 -0.3048
25244W        W41378  17.451  16.126   0.170 -0.3318  0.1607 -0.2434
25245W        W41379  16.793  12.344   4.914 -0.2837 -0.7311 -0.2163
25246W        W41380   4.534   6.585  13.526  0.0831 -0.0858 -0.0048
25247W        W41381  13.090  13.578   1.368  0.2983 -0.1163  0.1388
25248W        W41382  12.750  17.540  14.801 -0.3773  0.0535 -0.1171
25249W        W41383  11.417  10.480  15.807 -0.1464 -0.0715 -0.0993
25250W        W41384   4.778   6.814  13.898 -0.0649 -0.2069 -0.1236
25251W        W41385  12.472  11.408   0.062  0.1591  0.1038  0.0734
25252W        W41386   4.334   7.449   2.521  0.0330 -0.1521 -0.0401
25253W        W41387   2.042   5.687  12.754  0.0691  0.1630  0.1727
25254W        W41388  16.141   3.179   1.011  0.0424  0.0224  0.1741
25255W        W41389  16.176   4.141   0.771 -0.1434  0.0116 -0.2852
25256W        W41390  11.951   2.832  11.295  0.3772 -0.0194 -0.1229
25257W        W41391   6.588  14.105  11.248  0.1534  0.0875 -0.1788
25258W        W41392  11.672   5.491   0.411 -0.0380 -0.1978 -0.2095
25259W        W41393  10.215   2.142   0.595 -0.1688  0.0245  0.0002
25260W        W41394   2.600  13.189   3.256 -0.3606 -0.1134  0.4828
25261W        W41395   9.810  11.806   3.077 -0.2861  0.2292  0.0576
25262W        W41396   2.097  13.976   3.275  0.0986 -0.2644  0.1037
25263W        W41397  14.683  18.280   1.897  0.1467 -0.0897  0.1737
25264W        W41398   2.061   1.293   2.156  0.0925 -0.0027  0.0388
25265W        W41399   0.404  12.392  13.625  0.1165 -0.1736 -0.0506
25266W        W41400  11.433   2.537   0.832 -0.1076  0.2711  0.1641
25267W        W41401  10.364  13.256   5.218  0.2437 -0.0986 -0.1958
25268W        W41402   0.733  18.314   4.933  0.1437  0.1421  0.0261
25269W        W41403   0.437   3.476  14.461 -0.0716  0.1749  0.1620
25270W        W41404   7.117   8.279   3.286  0.0677  0.1560  0.1455
25271W        W41405   4.315   7.025  13.518  0.2096  0.1267  0.1977
25272W        W41406   1.891   2.652   2.327  0.1902  0.1812 -0.0311
25273W        W41407  17.183  17.064   1.686  0.1967  0.0173 -0.1175
25274W        W41408   3.014  15.248  11.285 -0.0148 -0.1165 -0.0708
25275W        W41409   7.945   3.979   3.094  0.0584 -0.0617  0.2010
25276W        W41410   2.862  13.847   2.240 -0.1413  0.0620  0.1313
25277W        W41411  17.047  16.283   0.406  0.0095  0.0125  0.0736
25278W        W41412  11.386   3.550   1.211  0.0840  0.0497  0.0549
25279W        W41413   4.768  14.094  13.221 -0.0214  0.0605  0.2562
25280W        W41414  11.351  16.509  15.543  0.0280  0.1137 -0.0767
25281W        W41415   7.920  18.041  11.671  0.3576 -0.0093 -0.1743
25282W        W41416   4.601  11.834   3.285 -0.0506  0.0430  0.2263
25283W        W41417   4.248   1.014   1.595  0.1079 -0.0440 -0.0652
25284W        W41418  17.318   2.329   0.275 -0.1078 -0.3111  0.1180
25285W        W41419   9.260  17.470  15.356 -0.0926 -0.1127 -0.2336
25286W        W41420   9.286   7.882   4.146 -0.0147 -0.0937  0.4144
25287W        W41421   8.081   5.459   0.934 -0.3252 -0.4238 -0.1735
25288W        W41422   7.970  16.869   3.963  0.0654  0.3257  0.4787
25289W        W41423   4.501  12.582  13.341 -0.1726 -0.1240  0.0619
25290W        W41424   7.285  17.078  11.626  0.1178 -0.2386 -0.3145
25291W        W41425   6.250  11.126   6.168  0.1513 -0.0889 -0.2573
25292W        W41426   3.117   3.316  12.706 -0.2611  0.3860 -0.0529
25293W        W41427   5.493  14.746   3.230  0.3426  0.1101  0.1124
25294W        W41428   2.802   9.564  15.705 -0.0884 -0.0440 -0.4719
25295W        W41429   7.650   0.694   1.715 -0.4409  0.2190  0.2540
25296W        W41430  16.547   2.028   2.106 -0.2227 -0.0350 -0.1536
25297W        W41431  12.380  16.207  13.047 -0.0474  0.0381  0.0076
25298W        W41432  10.502  13.801   6.382  0.1487 -0.2313  0.0808
25299W        W41433   3.593  11.131   0.068 -0.3308 -0.1028  0.2178
25300W        W41434   9.578   5.548  11.089 -0.4127  0.0743 -0.1405
25301W        W41435  15.833  14.159   4.681  0.0574  0.0121  0.1270
25302W        W41436   4.641  15.697  12.013 -0.0662  0.3782  0.0001
25303W        W41437   4.868  18.460  14.143  0.2984  0.1747  0.3175
25304W        W41438   8.871   1.092   4.725 -0.1886  0.0466  0.0408
25305W        W41439  14.314  14.822   0.245 -0.1716 -0.3359 -0.1878
25306W        W41440  15.605   5.490  15.494 -0.0493 -0.2280  0.2068
25307W        W41441  10.864   2.259  12.376  0.0915 -0.2071 -0.2111
25308W        W41442  17.418   5.662   0.679  0.2671 -0.4144  0.1142
25309W        W41443   0.221   9.682  15.114 -0.2547 -0.0612  0.2158
25310W        W41444  10.280   1.338   3.297 -0.0681  0.2771 -0.0880
25311W        W41445  17.790   9.547  12.284 -0.2012  0.0555 -0.1723
25312W        W41446   5.613  14.920  12.684  0.2298 -0.2262 -0.1197
25313W        W41447  10.314  14.951   5.510  0.0808  0.2265  0.1012
25314W        W41448  11.754  17.040   0.360  0.0946  0.2784 -0.0874
25315W        W41449  17.888  12.533   4.841 -0.3693 -0.0490  0.0052
25316W        W41450   4.680  17.254   0.855  0.1041  0.2708  0.2087
25317W        W41451   1.958  14.621  11.443  0.1491 -0.2083  0.0224
25318W        W41452  15.794   7.473   4.913 -0.0767  0.3885  0.2193
25319W        W41453   6.035  10.905   2.230 -0.0127 -0.1933  0.1106
25320W        W41454  10.179   0.259  10.949  0.0003 -0.3972 -0.0541
25321W        W41455  11.768   1.292   0.793 -0.2011  0.0486 -0.3839
25322W        W41456   0.076  12.546  12.134  0.3633  0.3811  0.1257
25323W        W41457   9.186  13.157  13.267  0.0646 -0.0654 -0.0251
25324W        W41458  15.577   2.927   3.718  0.3503  0.0302  0.4657
25325W        W41459   6.168   2.901   4.203 -0.3700  0.2447 -0.1588
25326W        W41460  14.319   9.536  13.556  0.1005  0.0603  0.2807
25327W        W41461  17.156  12.712  12.077 -0.2158  0.1320  0.0691
25328W        W41462   7.989   6.672   5.128  0.1639  0.0508 -0.0192
25329W        W41463  14.126   6.066   4.889 -0.1306  0.0964 -0.0004
25330W        W41464  12.515   1.323   5.457  0.4090 -0.0043  0.1178
25331W        W41465  14.094   7.056   0.300 -0.2289  0.0670  0.0237
25332W        W41466   6.300   8.707  13.285  0.1654 -0.1040 -0.2051
25333W        W41467  12.804   3.432  15.060 -0.2885 -0.1217 -0.0914
25334W        W41468  14.859  14.682   1.034 -0.0565 -0.0395 -0.4711
25335W        W41469  17.240  17.700  14.322 -0.3289  0.1347  0.0871
25336W        W41470   9.934  13.272   4.985  0.2211  0.0267  0.0412
25337W        W41471  10.543  15.002   3.560 -0.0027 -0.2142  0.2367
25338W        W41472  11.977  17.320  10.762  0.1472 -0.1517 -0.0332
25339W        W41473   9.765  17.592   3.370 -0.1208  0.3106 -0.2723
25340W        W41474   9.167  17.161   0.165  0.0760 -0.1896 -0.1564
25341W        W41475   2.450   9.694  13.015  0.0189 -0.2666  0.2532
25342W        W41476   4.148   2.379   3.909 -0.1995 -0.3096 -0.1018
25343W        W41477   3.320  12.400   4.326  0.0993 -0.0289 -0.0847
25344W        W41478   7.786  16.433  12.253 -0.0495  0.2699  0.0029
25345W        W41479   6.254  15.869   0.999  0.2656  0.2371  0.1977
25346W        W41480  13.647  15.508   0.807 -0.1287  0.0445 -0.2387
25347W        W41481  13.240   7.177  10.968 -0.2507  0.1094  0.2364
25348W        W41482   6.693   6.161  15.006  0.2206  0.0187  0.0595
25349W        W41483   1.972  12.099   1.879 -0.0144  0.2374 -0.0851
25350W        W41484   5.250   1.725   5.224 -0.0651 -0.0768 -0.0203
25351W        W41485  12.529   8.513  11.165  0.0015 -0.2491  0.0463
25352W        W41486   8.139   5.993   4.007 -0.0199  0.0033  0.2982
25353W        W41487   2.947  10.119   9.593 -0.0956 -0.1413 -0.1430
25354W        W41488  13.238   3.208  11.420 -0.3268 -0.3689  0.0130
25355W        W41489  15.526  16.135   3.568  0.0657  0.2133  0.0003
25356W        W41490   1.729  13.495   4.504  0.0564  0.1079 -0.0739
25357W        W41491   6.891  13.750  11.152  0.0959 -0.2360 -0.3143
25358W        W41492  11.149  11.590   3.557  0.0538 -0.0928 -0.1773
25359W        W41493   3.856   7.694  10.377  0.0304  0.4720 -0.0524
25360W        W41494   9.861  10.790  14.366  0.0197  0.3360 -0.2638
25361W        W41495  13.312   6.431   0.369 -0.2354 -0.1721 -0.1954
25362W        W41496  14.232   3.828  14.168 -0.0089  0.0534  0.1252
25363W        W41497  18.010   7.700   2.942 -0.0528  0.0505 -0.1068
25364W        W41498  11.070   1.362  14.273 -0.1402  0.0844  0.1621
25365W        W41499   5.019   9.028  10.723  0.0881  0.1336 -0.1707
25366W        W41500  10.613   6.615  14.225 -0.5783  0.2593  0.1348
25367W        W41501  14.964  12.751   0.324  0.0061 -0.0226 -0.1298
25368W        W41502   4.365  12.265   0.026  0.0405 -0.1281  0.2725
25369W        W41503  14.641  14.718  13.582  0.0244  0.0119  0.1312
25370W        W41504  15.315   9.229  11.871 -0.2463 -0.1353 -0.0318
25371W        W41505  14.738   6.744   2.221 -0.1524 -0.2110 -0.0554
25372W        W41506  15.985  18.210   4.861 -0.1014  0.2640  0.0773
25373W        W41507  11.028  17.508  12.474  0.1347 -0.0594  0.0094
25374W        W41508  16.987   8.518   1.588  0.1569 -0.0247  0.1048
25375W        W41509   8.702  16.245  14.682  0.0822  0.1197  0.1789
25376W        W41510   0.638  16.014   0.970  0.0013 -0.1920  0.2464
25377W        W41511  14.785   1.962   4.635 -0.1447 -0.0335  0.1857
25378W        W41512   5.434  14.703   5.152 -0.1034  0.1332  0.1089
25379W        W41513  10.183   1.846  13.399 -0.0681 -0.2803  0.0378
25380W        W41514   8.324  12.182   3.700  0.1760  0.0678  0.0244
25381W        W41515  10.652  15.336   0.492 -0.2260 -0.1257  0.4322
25382W        W41516   1.010  10.639   1.375 -0.1156 -0.0519 -0.3310
25383W        W41517   3.291   5.894   3.757  0.2627  0.2575  0.2979
25384W        W41518  14.038  11.246  12.777 -0.0367  0.0474  0.0878
25385W        W41519  11.618  17.841   3.282  0.2865 -0.1478  0.0387
25386W        W41520  12.308   0.492   5.216 -0.0871  0.2600 -0.0116
25387W        W41521  15.074  13.025  14.849  0.1620  0.4821  0.1003
25388W        W41522   4.317  14.101   1.555  0.1490 -0.1056 -0.0128
25389W        W41523  15.168   1.192  14.838  0.0882 -0.1171  0.1639
25390W        W41524  18.236   1.065   0.106  0.5082 -0.2352 -0.0439
25391W        W41525   1.026  10.269  13.969 -0.1581  0.2914  0.0358
25392W        W41526  10.468   9.693  14.957 -0.1749 -0.1318 -0.2037
25393W        W41527   6.046   1.862  15.597  0.1961 -0.1469  0.1685
25394W        W41528   6.187   3.243   5.512 -0.0446  0.3032 -0.0223
25395W        W41529   1.199  13.630   2.286  0.1636  0.1451 -0.0413
25396W        W41530   2.872   9.235   1.181  0.0202 -0.1544 -0.0382
25397W        W41531   2.512  13.109   0.178  0.2490 -0.0369  0.0066
25398W        W41532   6.599   6.798   2.500 -0.0679 -0.2426  0.1347
25399W        W41533   6.361  10.108   1.470 -0.1883 -0.0893  0.1060
25400W        W41534  12.986   1.791   3.136 -0.2385  0.0249  0.0112
25401W        W41535  17.028   3.715   0.435 -0.0896 -0.0785 -0.2067
25402W        W41536  15.167  16.413  12.908  0.1136 -0.0693 -0.2472
25403W        W41537  12.443   3.673  12.149  0.1196 -0.1463  0.0631
25404W        W41538   4.171   0.141   4.269 -0.0035  0.0541  0.0487
25405W        W41539   5.226   7.172  11.676  0.1965 -0.2249  0.0146
25406W        W41540   2.373  12.915  15.144  0.0625 -0.0216  0.2490
25407W        W41541   3.626  16.828   4.600  0.1048  0.1463 -0.1095
25408W        W41542  11.242   2.400   5.347  0.2129 -0.0919  0.1557
25409W        W41543   9.712   8.630  12.922 -0.1232 -0.0325 -0.2319
25410W        W41544   3.542   1.962   1.372 -0.1003 -0.1931  0.0139
25411W        W41545  10.551   0.506   5.619  0.3615  0.0551  0.0323
25412W        W41546   3.688  15.354   1.391  0.1054  0.0271 -0.1100
25413W        W41547   0.884  14.238  11.865 -0.1570  0.0086 -0.0615
25414W        W41548  16.858  12.926  14.339  0.0513  0.1295 -0.1483
25415W        W41549  12.692  11.425  13.225 -0.0292 -0.0616  0.3881
25416W        W41550  14.076  14.523  13.141  0.2026  0.1297 -0.1459
25417W        W41551  16.138  12.910   1.103  0.1042  0.0393  0.1257
25418W        W41552  15.140  10.376  13.850 -0.2621 -0.0141  0.3880
25419W        W41553   2.023  10.351   1.969 -0.6490  0.3587  0.0785
25420W        W41554   4.388  16.953  15.597  0.1676 -0.0541  0.1999
25421W        W41555   4.081  15.920   0.795  0.1021  0.1476 -0.0550
25422W        W41556  17.419   5.983  15.655 -0.4812  0.2940 -0.2222
25423W        W41557  15.001  13.264  12.772 -0.1354  0.2106 -0.1951
25424W        W41558  16.957  13.933  15.496 -0.2589 -0.1741 -0.0413
25425W        W41559   6.391  11.502   1.652 -0.2170 -0.0133  0.1872
25426W        W41560  17.562   9.440   3.533 -0.0069  0.2165 -0.0504
25427W        W41561  17.365   7.935   4.959 -0.0773  0.2160 -0.1246
25428W        W41562  10.121   6.133  13.783  0.0849  0.0374 -0.2694
25429W        W41563   6.481   5.705  15.395  0.1257 -0.0133  0.0087
25430W        W41564   3.693   1.194  15.525  0.0631  0.0656  0.0159
25431W        W41565  16.238   9.391   2.908 -0.0886 -0.4288  0.0352
25432W        W41566   1.177  14.553  12.173 -0.0408 -0.1207 -0.0906
25433W        W41567   6.284   2.869  12.082 -0.3501 -0.1517  0.0074
25434W        W41568  14.595  13.338  15.414 -0.3599 -0.2120 -0.1231
25435W        W41569   0.509  16.653  12.238  0.1026 -0.3005  0.3483
25436W        W41570  18.318  11.761   3.953  0.0039 -0.1819 -0.0251
25437W        W41571   3.057   8.692  11.001  0.0016  0.0151  0.3494
25438W        W41572   9.945   2.258   0.232  0.0850  0.2081  0.1555
25439W        W41573  15.865  15.985  15.430  0.1373  0.3177 -0.2595
25440W        W41574   0.721  15.947  12.894  0.1103  0.2286 -0.0293
25441W        W41575  17.983  15.337   1.563  0.1905  0.0655  0.1316
25442W        W41576   4.939   1.372   1.083  0.0161 -0.1080  0.3276
25443W        W41577  15.834  15.749   3.339 -0.1534  0.0423 -0.0816
25444W        W41578  12.026  11.802   0.370 -0.1248 -0.3767  0.2510
25445W        W41579   0.173   0.862   0.956  0.1173 -0.1041  0.0185
25446W        W41580  14.250  13.030   5.525 -0.1278 -0.0124 -0.1646
25447W        W41581  14.783  16.677  11.700 -0.2583 -0.0568 -0.1669
25448W        W41582   0.239   2.427  10.905  0.0405 -0.0914 -0.0565
25449W        W41583  17.146  11.868   5.657  0.2232 -0.2261  0.2208
25450W        W41584   2.543   5.357  14.961  0.2958 -0.1731  0.0001
25451W        W41585   7.447   6.450  12.099  0.3824 -0.1789  0.3529
25452W        W41586   1.585   3.730  10.945 -0.1454  0.1123 -0.0059
25453W        W41587   6.805  16.208   4.726 -0.2225  0.0452 -0.0493
25454W        W41588   2.550   4.561   2.026  0.1065 -0.3360  0.3369
25455W        W41589  16.029   8.745   5.298  0.3026 -0.1233  0.0597
25456W        W41590  12.324   2.169   3.749 -0.1295 -0.0377 -0.1320
25457W        W41591   0.784  13.957   1.587 -0.2240 -0.1761 -0.0553
25458W        W41592   4.456   3.151   4.003 -0.0858  0.1618  0.1257
25459W        W41593  18.201   0.691   3.852 -0.0777 -0.1212  0.2114
25460W        W41594  16.130   7.712  12.908 -0.4867 -0.1862 -0.0470
25461W        W41595   2.674   0.736   5.485  0.0265  0.1454  0.0820
25462W        W41596  16.882   5.351  12.372  0.3922  0.2454 -0.0453
25463W        W41597  16.016   1.759  11.444 -0.1389 -0.1436  0.0880
25464W        W41598  16.126   3.904   0.306 -0.0426 -0.0077  0.0126
25465W        W41599  15.260   6.509   4.894 -0.0238  0.1900 -0.1415
25466W        W41600  10.397   2.869   2.317 -0.1478  0.0073  0.1496
25467W        W41601   3.951   7.684   4.734  0.2371  0.2013 -0.0431
25468W        W41602   5.854  15.859   3.379  0.2619  0.0134 -0.1567
25469W        W41603  16.156   3.738   2.091 -0.0693  0.1199 -0.0173
25470W        W41604  15.247  13.304   5.281 -0.5033  0.1751  0.1486
25471W        W41605   4.827  16.382   2.943  0.1121  0.1781 -0.1596
25472W        W41606  18.212  17.585   1.516  0.0897 -0.0421  0.1887
25473W        W41607   7.272   4.086   0.713 -0.1536  0.4951 -0.1307
25474W        W41608  18.233  12.743  14.666 -0.0816  0.1021 -0.0154
25475W        W41609  10.901   8.479  12.610  0.4860  0.0296  0.2287
25476W        W41610   3.572  14.478  13.840  0.3634 -0.1507  0.1864
25477W        W41611   6.237  14.341  14.284 -0.0774 -0.1418  0.2988
25478W        W41612  14.247   0.689  14.905 -0.0323  0.1992 -0.0895
25479W        W41613  13.331   8.039  12.573 -0.1674  0.1698 -0.0481
25480W        W41614  10.990   1.676  15.262 -0.1038  0.0572  0.2916
25481W        W41615   4.790   6.069   4.664 -0.2421 -0.1393 -0.0032
25482W        W41616   8.682   3.253   0.226  0.1595  0.0169  0.1723
25483W        W41617   2.884  13.259  13.227  0.1656  0.1115 -0.0869
25484W        W41618  17.189  18.071  13.526  0.3506 -0.0476  0.0920
25485W        W41619   3.805  11.441  11.266  0.0255 -0.0293  0.1302
25486W        W41620   4.221  10.332   0.959  0.1632 -0.2306 -0.0560
25487W        W41621   3.165  10.272  11.870  0.1097 -0.2234  0.0448
25488W        W41622  15.507  10.390   2.898  0.0245 -0.0050 -0.0266
25489W        W41623   5.542  15.701  15.525  0.0136 -0.1403 -0.0479
25490W        W41624  18.102   2.315  14.034  0.0205 -0.2852 -0.0227
25491W        W41625  16.223   0.483   0.798 -0.0167 -0.1050 -0.0077
25492W        W41626   2.841   1.152   3.271 -0.0782 -0.1034 -0.0641
25493W        W41627   5.785  12.504  10.974 -0.1675  0.0714  0.2994
25494W        W41628   6.878   7.458   1.280  0.0453  0.0255  0.1929
25495W        W41629   5.031   5.899  11.297  0.4020  0.3058 -0.1961
25496W        W41630   8.977  17.264   0.622  0.0976 -0.0817 -0.0328
25497W        W41631   9.972   5.709  14.084  0.0113  0.2441 -0.1480
25498W        W41632   2.426   4.504   5.759  0.1682  0.1610  0.1097
25499W        W41633   3.261   2.965   2.315  0.2187  0.2180  0.3246
25500W        W41634  17.131  18.016   2.974  0.1771  0.1811 -0.0725
25501W        W41635  10.684   4.604   5.812 -0.0134  0.1093 -0.0959
25502W        W41636   0.045  13.251   4.300 -0.0832 -0.3012 -0.0812
25503W        W41637   1.192   8.474   4.282  0.0053  0.1707 -0.1915
25504W        W41638   1.050  12.036  11.274 -0.1131 -0.3000 -0.1256
25505W        W41639   5.989  17.443   1.423 -0.0832  0.1828  0.1448
25506W        W41640   9.052   5.190   4.631  0.2333 -0.1683 -0.0098
25507W        W41641   0.674   6.532   1.544 -0.1299 -0.1563  0.1821
25508W        W41642  11.496  10.889  12.240  0.1666 -0.2279 -0.0551
25509W        W41643  13.511   0.853   2.212  0.0499 -0.1298 -0.2013
25510W        W41644   3.920   8.561   0.650 -0.1488 -0.1084  0.1705
25511W        W41645  12.363   3.583  14.820  0.1417  0.1360 -0.0113
25512W        W41646  11.393   6.328   0.709 -0.1732 -0.1191 -0.0332
25513W        W41647   7.248   5.171  13.831 -0.0035  0.2055 -0.3880
25514W        W41648   4.218   7.086   3.727 -0.1405 -0.3356 -0.0147
25515W        W41649   0.589   6.873  14.841  0.0551  0.2663 -0.1137
25516W        W41650  12.599  18.080   4.677 -0.1269  0.3904 -0.1244
25517W        W41651   6.249   6.991   5.049 -0.0646 -0.0204  0.0576
25518W        W41652  17.759  15.868  13.715 -0.3204 -0.3201 -0.0128
25519W        W41653   4.252  10.970   0.200  0.1358 -0.0636  0.4181
25520W        W41654  14.188   8.687   3.357 -0.1935 -0.2311  0.0384
25521W        W41655  15.821   8.772  12.285  0.0478 -0.0560  0.0017
25522W        W41656  18.196   0.785   3.305 -0.0511  0.0237 -0.1905
25523W        W41657   4.564   8.216   3.117 -0.0610  0.3394 -0.1449
25524W        W41658  10.936  16.171   4.318 -0.0817  0.1397 -0.0485
25525W        W41659   0.449   1.321  12.305 -0.1184  0.1035 -0.1314
25526W        W41660  15.701  15.235   3.419 -0.1456 -0.2832  0.4030
25527W        W41661  12.718   7.410  14.262 -0.0235  0.2706  0.0973
25528W        W41662   1.056   9.738  13.789  0.1614  0.0959  0.0933
25529W        W41663  10.969  10.476  13.923  0.2447 -0.0622 -0.1276
25530W        W41664  18.076  18.296   3.092 -0.2082 -0.1073  0.1763
25531W        W41665  15.485   2.693  13.056 -0.2428  0.1660  0.2948
25532W        W41666   0.795  14.792   1.333  0.1422  0.0549  0.1370
25533W        W41667   4.946   9.950   2.126 -0.0651  0.1385  0.0152
25534W        W41668   5.848  16.190  12.575 -0.1340  0.1218 -0.1075
25535W        W41669  13.166  10.852  15.435  0.0941 -0.2587  0.2504
25536W        W41670   1.673   4.252  10.985  0.0985 -0.3697  0.4771
25537W        W41671   2.645   9.152   3.064 -0.1022 -0.1762 -0.3883
25538W        W41672   7.647   5.215  12.468  0.3713 -0.3481  0.1635
25539W        W41673  14.797  13.568  15.799  0.0244 -0.1666  0.2306
25540W        W41674   7.878   2.913  15.515 -0.1489  0.0077 -0.1280
25541W        W41675   6.015   3.378   2.799 -0.2428 -0.0908  0.4113
25542W        W41676   6.985  10.998  15.574 -0.2234 -0.0781  0.1185
25543W        W41677  13.319  16.324  14.129 -0.0128 -0.0566  0.1105
25544W        W41678  10.993  13.596  15.016 -0.0833 -0.2457 -0.1574
25545W        W41679  10.524   9.108   0.107  0.0828  0.0248  0.1251
25546W        W41680   1.304  10.287  10.995  0.0127  0.0224  0.1749
25547W        W41681  15.259   2.882  12.268  0.2242 -0.2429 -0.0008
25548W        W41682   1.564   3.166  12.814 -0.0727  0.2138  0.1567
25549W        W41683   2.743  17.995   3.151  0.0045 -0.1410  0.1375
25550W        W41684   5.997   7.334  13.853 -0.0922  0.2643 -0.0107
25551W        W41685  11.008   7.154  13.268  0.0958 -0.1580 -0.1133
25552W        W41686  14.854   7.738  14.026  0.0244 -0.1489  0.1290
25553W        W41687   1.225  14.650   1.048 -0.0653  0.0353 -0.0450
25554W        W41688   8.668  11.287   2.548  0.1663  0.0520  0.1955
25555W        W41689   3.036   5.155   4.516 -0.0861  0.1863  0.1041
25556W        W41690  13.201  17.612  15.789 -0.0186 -0.0129 -0.0580
25557W        W41691  12.043  10.499  10.716 -0.0734 -0.1053  0.0462
25558W        W41692   1.866  17.461   5.415 -0.0507  0.0540  0.2047
25559W        W41693  13.055   4.288  14.779  0.3358 -0.1072  0.0379
25560W        W41694   5.773   4.420  12.829  0.0625 -0.3721  0.0755
25561W        W41695   8.939   1.857  15.274 -0.3165  0.3325 -0.0582
25562W        W41696   8.383  12.158  13.964 -0.1838 -0.1571 -0.0348
25563W        W41697  17.158   5.735   5.432 -0.1195  0.2642 -0.1330
25564W        W41698  18.389  13.045  12.438  0.0530  0.2561 -0.0724
25565W        W41699   4.537  17.493   6.332 -0.0965 -0.0385  0.0555
25566W        W41700   1.613  18.251  14.143  0.2720 -0.3478 -0.0637
25567W        W41701  12.069  10.030  11.483 -0.0627  0.0405  0.2388
25568W        W41702  13.583  17.105  11.560 -0.2161 -0.0194  0.0984
25569W        W41703   5.558   5.908  12.119  0.3082 -0.0713 -0.0040
25570W        W41704   3.255  15.998  13.736 -0.1875  0.1059 -0.1143
25571W        W41705  15.360  10.694  15.561 -0.1185 -0.2161 -0.3025
25572W        W41706   6.060  11.323  11.487 -0.1168  0.0074  0.0903
25573W        W41707   5.022   3.172   0.560 -0.3173 -0.0513 -0.0600
25574W        W41708  11.967   3.295   3.533 -0.0674  0.2704 -0.0320
25575W        W41709   0.554  10.668   0.662  0.2760 -0.1191 -0.2763
25576W        W41710  11.995   1.146  12.492  0.2268 -0.1765 -0.0875
25577W        W41711  13.579   2.700   3.709  0.4514  0.1692 -0.1565
25578W        W41712  13.684   9.058   5.060  0.0634  0.1416 -0.1552
25579W        W41713   6.117  17.195  12.008 -0.0195 -0.0093  0.1513
25580W        W41714   6.190  15.809   4.206  0.0707  0.1031 -0.0035
25581W        W41715   3.592  12.001  13.400  0.2543  0.1869 -0.1955
25582W        W41716   0.916  14.075  12.937 -0.0292  0.1496 -0.1104
25583W        W41717   7.476   9.377  10.797  0.0650 -0.0245 -0.0726
25584W        W41718  16.345   2.974  12.234 -0.2067 -0.1115  0.4101
25585W        W41719   7.236  13.914  15.184  0.5804 -0.1848  0.0517
25586W        W41720  13.184  14.393  12.644 -0.1385 -0.2406 -0.0844
25587W        W41721   7.643  10.262   5.254 -0.0773 -0.3961 -0.0000
25588W        W41722   3.549   5.601  12.313  0.0437  0.1101  0.0748
25589W        W41723   9.711  17.565   3.875  0.0189 -0.1833  0.0845
25590W        W41724   8.974   7.469   4.280 -0.1814 -0.0762 -0.1215
25591W        W41725   7.871  12.890  11.379 -0.1801  0.0051  0.0456
25592W        W41726  16.457   3.199   1.527  0.2372 -0.0092 -0.1944
25593W        W41727   2.222  10.313  10.665 -0.2425  0.1262  0.1613
25594W        W41728  13.628  17.332   1.217  0.1675  0.0220  0.3806
25595W        W41729  18.062  13.069   2.016  0.1546  0.0650  0.0196
25596W        W41730   3.618   9.816   0.935  0.1242 -0.2060  0.0007
25597W        W41731   4.044   7.299  15.651  0.1453  0.0893 -0.1394
25598W        W41732   9.093  14.491  10.868 -0.1645  0.1743  0.0093
25599W        W41733  11.992   3.953  11.182 -0.1595  0.1935  0.1202
25600W        W41734   6.296  13.753  12.922  0.0113 -0.3684  0.1955
25601W        W41735   3.816   4.677  12.900 -0.1435 -0.0527 -0.2416
25602W        W41736   0.480   0.911  12.823 -0.1367  0.0132  0.0621
25603W        W41737  13.623   6.865  12.266 -0.1880  0.3803 -0.0684
25604W        W41738   0.510  17.792   4.324  0.1267 -0.0057 -0.1500
25605W        W41739   8.482  18.317   0.686 -0.3033 -0.0966  0.2076
25606W        W41740  11.404   8.717  11.587  0.1404 -0.1377  0.3827
25607W        W41741   0.094   7.200  15.000  0.0938 -0.0352  0.1318
25608W        W41742  12.976  15.114   3.836  0.2530 -0.0876 -0.0191
25609W        W41743   2.290   4.372  14.930  0.2467  0.1282  0.1420
25610W        W41744   7.032  13.287   5.713 -0.0297 -0.0529 -0.1600
25611W        W41745   8.715  15.722  14.825  0.1914 -0.0497 -0.0772
25612W        W41746  12.828   1.542   2.661 -0.1885  0.2784 -0.1373
25613W        W41747  17.293  12.493  13.415 -0.0150 -0.0481  0.1651
25614W        W41748   3.395  14.097   1.811  0.0334 -0.0361  0.0682
25615W        W41749  17.110   6.652  11.988 -0.0050  0.1524 -0.0562
25616W        W41750   4.607  13.963  12.786  0.1461  0.0399 -0.0309
25617W        W41751   9.135  18.135   0.091 -0.3179 -0.0026 -0.2573
25618W        W41752   8.510  15.029   4.012  0.2953  0.0215 -0.2074
25619W        W41753  15.762  11.045   0.589 -0.0469 -0.0908  0.1504
25620W        W41754   8.782   7.226  13.709  0.2404 -0.1137 -0.6567
25621W        W41755   7.428   6.618   2.314  0.0105 -0.0081 -0.0390
25622W        W41756  13.121  16.022  12.315 -0.0546  0.2625 -0.3545
25623W        W41757  13.838   2.064   3.477  0.0171  0.1721  0.0480
25624W        W41758  18.065  10.967   0.934 -0.0616  0.0717 -0.1262
25625W        W41759   1.985   9.992  14.791  0.1013 -0.0213  0.0568
25626W        W41760   7.024  18.014   5.345 -0.2871 -0.1048  0.0393
25627W        W41761  13.168   5.844   1.428  0.1041 -0.1858 -0.6302
25628W        W41762   1.132  14.352   4.815 -0.1171  0.0110  0.0286
25629W        W41763  18.063   7.450   1.395  0.1441  0.0061  0.1953
25630W        W41764   1.609   6.231   4.637 -0.2163  0.0278  0.4707
25631W        W41765  14.850   0.581   2.180 -0.0204 -0.0026  0.3445
25632W        W41766   6.957   9.547   3.816 -0.2593  0.1102  0.1290
25633W        W41767   0.425   2.793  12.575 -0.1866 -0.1181 -0.1336
25634W        W41768   0.134  18.455   2.385 -0.1969 -0.1627 -0.0460
25635W        W41769  11.202  14.412  15.251  0.0343  0.2443 -0.3302
25636W        W41770   4.920   3.149  13.530 -0.3096  0.4995  0.0473
25637W        W41771   3.288  12.880   3.514 -0.0595 -0.0054 -0.2519
25638W        W41772  14.991   9.691   5.328 -0.2245 -0.1814  0.0997
25639W        W41773  16.226  10.205  15.637  0.0286  0.0436 -0.0270
25640W        W41774  17.418   6.496   1.118 -0.2183 -0.4145  0.3108
25641W        W41775  16.155   2.494   0.836  0.2993 -0.2268 -0.0490
25642W        W41776   1.053  11.013   2.040  0.0498  0.0597 -0.0078
25643W        W41777  13.787   3.529   3.551 -0.0095 -0.3098 -0.2319
25644W        W41778   4.444   3.549  15.211 -0.1134 -0.0301 -0.0673
25645W        W41779  14.357   1.122   0.342 -0.0346  0.2209  0.0675
25646W        W41780  15.500  18.462   2.021 -0.1188  0.0673 -0.1915
25647W        W41781  13.900  17.368   5.764  0.2384 -0.0957 -0.4464
25648W        W41782  11.388  10.875   3.052 -0.0945 -0.1685  0.0588
25649W        W41783   9.355   0.210  15.882  0.0362  0.2610  0.1603
25650W        W41784  13.141  10.193   1.143  0.0138  0.0916  0.0072
25651W        W41785   8.543   3.965   4.389  0.3216 -0.0368  0.0231
25652W        W41786  11.038  14.369   2.758  0.3395  0.0209  0.0290
25653W        W41787   5.990  11.435   4.316  0.0128  0.1999 -0.1229
25654W        W41788   7.866   2.949  14.274 -0.1710 -0.0471 -0.2101
25655W        W41789  17.596   2.455  11.888  0.2449 -0.2666 -0.0479
25656W        W41790  14.931   5.593   2.195  0.1994 -0.0918  0.1719
25657W        W41791   9.970   3.181  14.818 -0.1079 -0.0461  0.0649
25658W        W41792  17.905  13.392   5.356  0.0199  0.1936  0.1652
25659W        W41793   3.666   8.765   3.227 -0.0064  0.2991 -0.2253
25660W        W41794   7.574  14.007  13.393 -0.2831 -0.1466 -0.0252
25661W        W41795   4.506   7.690  14.937  0.1167  0.0868 -0.0129
25662W        W41796   5.446  12.165   1.668  0.1458  0.2957 -0.0320
25663W        W41797   4.489  13.029   3.882 -0.1139 -0.0596  0.1745
25664W        W41798  11.793   6.336  15.363  0.2324 -0.1278 -0.0850
25665W        W41799   4.219   5.368   5.111 -0.1996 -0.1699  0.0005
25666W        W41800  13.396   4.420   4.599 -0.0018  0.0437  0.2919
25667W        W41801  16.708  17.840  12.933  0.0467  0.1389  0.2174
25668W        W41802   6.566   3.662   3.168  0.0452  0.1196 -0.2806
25669W        W41803   5.940  17.316  15.215 -0.1619 -0.0473 -0.1829
25670W        W41804   4.461   3.987   0.613  0.2960  0.2125  0.1050
25671W        W41805   5.174   4.170   4.268  0.4146 -0.2088 -0.1476
25672W        W41806  10.351  16.475   1.978  0.1356 -0.0891 -0.2815
25673W        W41807  12.025   6.232   4.097  0.0353  0.1213 -0.0596
25674W        W41808   4.877  17.235  11.119 -0.0591  0.1245  0.0497
25675W        W41809  10.492   6.297  14.996  0.2844  0.0431 -0.2102
25676W        W41810   2.553   3.636  12.549  0.0669 -0.2801  0.1553
25677W        W41811  11.258   9.231   1.228 -0.0664 -0.1073  0.1584
25678W        W41812  15.061   7.275  14.319  0.0662  0.2905 -0.4085
25679W        W41813   7.202  14.134  11.422  0.4000  0.5637  0.4082
25680W        W41814  15.775   1.742   0.275 -0.1052 -0.1157  0.0041
25681W        W41815   2.857   0.334  14.096 -0.2411  0.0510  0.1695
25682W        W41816   0.159  10.885   2.843 -0.0945 -0.1705  0.1146
25683W        W41817   2.269   6.806   2.484  0.0241 -0.0673  0.0686
25684W        W41818   9.859   2.301   2.458  0.1248 -0.0118  0.0825
25685W        W41819   9.504  10.944  12.628 -0.2617  0.2494  0.4346
25686W        W41820   6.414   9.068   2.520 -0.2280 -0.0361  0.1107
25687W        W41821  14.872   1.905  13.331 -0.0473 -0.1618 -0.4563
25688W        W41822  13.013  15.348  12.879  0.4218 -0.1446  0.0962
25689W        W41823   7.425   7.229   5.149  0.2060 -0.3775  0.2774
25690W        W41824   2.639  10.330   1.872 -0.1096  0.0747  0.1445
25691W        W41825   8.389  18.273  13.614 -0.0759 -0.1165 -0.3684
25692W        W41826   3.411  12.400  10.238 -0.0870 -0.1605 -0.4021
25693W        W41827  16.953   7.789  13.911 -0.2368 -0.1401  0.0331
25694W        W41828  10.822  10.649  11.802 -0.0599 -0.0350 -0.1621
25695W        W41829  10.945  16.324  10.691  0.2667  0.1327 -0.1342
25696W        W41830   5.668  14.280   2.963 -0.0568 -0.1172 -0.1660
25697W        W41831   7.683   7.348   1.664 -0.3721  0.0987 -0.2801
25698W        W41832  17.949   9.579   4.979 -0.2194  0.2412 -0.3317
25699W        W41833  16.002   1.576   5.382  0.0061  0.0360 -0.1089
25700W        W41834  11.331  13.159  12.740 -0.0966 -0.2258  0.1365
25701W        W41835  14.006   4.159  11.500 -0.2172  0.1359  0.0620
25702W        W41836  14.119  10.629   1.243 -0.2466 -0.1106  0.2607
25703W        W41837   5.570  12.032  12.842 -0.0515  0.1755 -0.5180
25704W        W41838  15.737   9.941  15.394 -0.2129  0.1551  0.1305
25705W        W41839  13.541   7.607   1.555  0.2249  0.1074  0.1181
25706W        W41840   3.721   1.999  13.872  0.1177  0.1371 -0.3065
25707W        W41841   8.224   5.928  13.283 -0.0656 -0.3204 -0.3420
25708W        W41842  15.331   5.660   2.985  0.1865  0.2113  0.0378
25709W        W41843  15.338  13.091   3.272  0.2335 -0.2451 -0.1387
25710W        W41844   4.710   1.956  11.857 -0.0055  0.2785  0.1427
25711W        W41845   4.366  10.641  14.167 -0.2076 -0.1851 -0.2523
25712W        W41846   6.383  13.146   4.758 -0.0155 -0.0075  0.1865
25713W        W41847   3.759  16.665  11.454 -0.1044  0.2087 -0.2995
25714W        W41848   1.246   5.889   4.393 -0.0946 -0.2004  0.2118
25715W        W41849   1.955   8.749   4.668  0.3170 -0.0078  0.2659
25716W        W41850  17.428   0.085   5.713 -0.3597  0.1571 -0.1440
25717W        W41851   0.760   1.454  15.273 -0.0455  0.0278  0.0985
25718W        W41852   6.571  12.597   0.850 -0.0150 -0.4595  0.0694
25719W        W41853   6.474  10.081   5.297  0.0942  0.1569 -0.1157
25720W        W41854  10.523   0.913  14.848 -0.0318  0.1815 -0.0554
25721W        W41855   3.815   5.606   2.347  0.0108  0.1967 -0.1605
25722W        W41856  13.718  13.335  11.854  0.1167  0.1601  0.4974
25723W        W41857  13.302   4.695   5.456  0.2687  0.1954  0.1295
25724W        W41858   3.042  14.048   5.189 -0.1546  0.2550  0.0488
25725W        W41859   3.268   9.413  14.852 -0.0777 -0.2372  0.1917
25726W        W41860  10.857  12.066  13.321  0.0053  0.0313  0.3155
25727W        W41861   5.860  17.437   2.758 -0.0171  0.0717  0.0574
25728W        W41862   6.690  17.289  12.820 -0.2046 -0.1827 -0.1648
25729W        W41863  15.523   5.706  10.872  0.2385  0.0345  0.1358
25730W        W41864   6.253   8.684   2.792  0.2740  0.1907 -0.0121
25731W        W41865  16.388  17.316  13.477  0.3118 -0.0640 -0.0345
25732W        W41866  10.568  11.636   2.012  0.1528  0.1541  0.1696
25733W        W41867  10.298  11.385   1.693 -0.1174  0.0898 -0.1981
25734W        W41868   8.645  15.968   1.835 -0.0170  0.0017 -0.0653
25735W        W41869  15.059   3.414   0.718  0.0849  0.0105 -0.1232
25736W        W41870  13.347  11.714   1.212  0.1060  0.0144  0.0329
25737W        W41871   8.682   2.426   3.284  0.1341  0.3140 -0.2991
25738W        W41872  14.301   7.742  14.820  0.1837 -0.0619 -0.0372
25739W        W41873   4.756  16.766   0.004  0.4033  0.2545  0.0178
25740W        W41874  10.466  12.891  12.693  0.0505 -0.0470  0.0942
25741W        W41875   4.614   5.013   2.490  0.0182 -0.0026 -0.0922
25742W        W41876  18.279   0.539  12.358  0.4085  0.0547  0.0812
25743W        W41877  10.938  16.410   4.859 -0.0996  0.0354 -0.1161
25744W        W41878   3.553   8.141   1.402  0.0161  0.2039 -0.2152
25745W        W41879  11.779  11.116  14.715 -0.0199  0.0198 -0.0636
25746W        W41880   9.847  11.535  11.662  0.0053  0.2623 -0.0557
25747W        W41881   7.404   4.025   1.206  0.2362  0.1438 -0.1188
25748W        W41882  11.289  13.928   0.168 -0.5179  0.2777  0.0702
25749W        W41883   8.560  16.071  11.603  0.1962 -0.0704  0.0748
25750W        W41884   0.965  12.879   4.040 -0.1838  0.0516 -0.0679
25751W        W41885   7.155  10.839  13.889 -0.2736  0.2334 -0.1284
25752W        W41886  12.926  15.654   2.943 -0.0031 -0.1831 -0.2738
25753W        W41887   4.782  18.054  12.317 -0.0486 -0.0193  0.0575
25754W        W41888   5.673   4.670  10.190  0.1302  0.1469  0.4188
25755W        W41889   0.560   0.613  14.945 -0.2063 -0.0183 -0.2576
25756W        W41890  10.816  17.328   2.507  0.1376 -0.1144 -0.0598
25757W        W41891  15.614   0.574  13.591 -0.1475  0.4100 -0.4705
25758W        W41892   2.683  18.252   3.597  0.0784  0.0088  0.0370
25759W        W41893  11.112  14.711  15.672 -0.2252  0.0935 -0.0985
25760W        W41894  13.526   5.530   3.884 -0.2436 -0.1372  0.0761
25761W        W41895   1.350   9.199  13.778  0.0254 -0.0813 -0.0494
25762W        W41896  10.580   0.595  10.844  0.2908 -0.0626  0.1585
25763W        W41897  12.619  12.507  11.055 -0.1835 -0.2498 -0.0590
25764W        W41898  17.853   1.556  14.853 -0.0848  0.0891 -0.0197
25765W        W41899  13.271   4.474   3.264  0.1583 -0.2015 -0.2125
25766W        W41900  14.559  17.732  12.318  0.0835  0.3973 -0.2241
25767W        W41901  15.023   6.931   3.498 -0.0049 -0.0935 -0.2235
25768W        W41902  16.145   7.292  15.772  0.0932 -0.3165  0.0441
25769W        W41903   7.925   3.510  11.432  0.1255  0.3679 -0.2561
25770W        W41904   5.637   0.416  12.469  0.1528 -0.1552  0.3204
25771W        W41905   3.732   3.991  11.250  0.0832 -0.2490 -0.1997
25772W        W41906   3.908   6.527  14.599  0.1570  0.2782  0.2164
25773W        W41907   2.111   3.875   0.723 -0.0573 -0.0109 -0.2067
25774W        W41908  12.612   5.167  11.120 -0.4087  0.0892  0.2693
25775W        W41909   1.686   8.738   5.190  0.0388 -0.1201 -0.0368
25776W        W41910   0.873  17.710  14.104  0.1771 -0.1892 -0.0488
25777W        W41911   7.510   3.953  15.217  0.1548  0.1841  0.1042
25778W        W41912  10.130   8.393  15.072  0.3396 -0.1419  0.2303
25779W        W41913   0.884   3.396  12.300  0.0422  0.0078 -0.1759
25780W        W41914  13.731   8.278   4.463 -0.2398  0.0816  0.0497
25781W        W41915   2.988  14.089  15.864 -0.1548  0.0950 -0.0399
25782W        W41916  15.813  18.245   0.346 -0.1005  0.0262  0.0615
25783W        W41917  15.364   2.567   4.932  0.3513  0.0000 -0.0053
25784W        W41918  10.954  11.370  15.126  0.0292 -0.0648  0.1518
25785W        W41919  17.700  17.055   0.090  0.2677  0.0223  0.1306
25786W        W41920  14.915  12.084  15.508 -0.0570  0.0740  0.3769
25787W        W41921   3.629   6.123   0.783 -0.2322  0.2718  0.0149
25788W        W41922   0.431   9.795   1.330 -0.0202  0.0057 -0.2790
25789W        W41923  12.201   1.908  10.506  0.0392  0.0528 -0.3731
25790W        W41924   9.829  17.974   6.010 -0.1555 -0.1482 -0.2301
25791W        W41925  16.822   8.388   5.696 -0.0926 -0.2233  0.1587
25792W        W41926   9.869  11.312   4.420  0.0083 -0.0612  0.3876
25793W        W41927   5.351  13.632   5.251  0.0246 -0.0427  0.4799
25794W        W41928  13.431   5.593   5.830 -0.0844  0.0592  0.0858
25795W        W41929   8.613  16.145   3.860  0.1159 -0.2213 -0.2658
25796W        W41930  13.399   5.994   0.673  0.0184 -0.0727 -0.2098
25797W        W41931   0.225  12.355   1.827  0.0044 -0.2222 -0.1348
25798W        W41932   9.587  15.961   4.529  0.1161 -0.0639  0.0753
25799W        W41933   2.521   4.965  13.141 -0.0568  0.0471  0.0021
25800W        W41934   6.462  16.804  13.987 -0.1482  0.0919 -0.1285
25801W        W41935  13.774   4.406  13.599  0.1483  0.1246  0.0335
25802W        W41936  12.989   6.097   5.489 -0.4071 -0.1777 -0.1110
25803W        W41937   2.026   4.980  14.268  0.1193  0.2010  0.0793
25804W        W41938  15.096  16.389  12.012 -0.1429 -0.2478  0.1250
25805W        W41939  11.811   7.528  13.350 -0.1607  0.1000 -0.0228
25806W        W41940   2.653   5.058  11.472  0.0851 -0.0027 -0.2791
25807W        W41941   2.606   3.918   2.069 -0.4450  0.0874  0.0763
25808W        W41942   4.234  12.759   5.349 -0.0925  0.3021  0.1198
25809W        W41943  17.743  11.727   1.469 -0.0487 -0.0513 -0.2288
25810W        W41944  16.431   3.915  12.012 -0.1053  0.0015 -0.1767
25811W        W41945  10.856   9.358  11.882  0.0694 -0.1817  0.0606
25812W        W41946   6.302   1.050   4.862  0.0627  0.0568 -0.1974
25813W        W41947  15.951  15.884   4.705  0.1340 -0.1177 -0.3142
25814W        W41948   0.059  10.133  15.746 -0.2184 -0.0039  0.0084
25815W        W41949   8.227   7.068   2.301  0.0566 -0.0575 -0.3125
25816W        W41950  11.749  11.810  15.795 -0.0566  0.1383  0.3642
25817W        W41951  11.008   0.789  13.321 -0.1054  0.3148 -0.1547
25818W        W41952  16.192  17.955  15.657 -0.0312  0.0320  0.1480
25819W        W41953   2.891   0.486   2.089 -0.0057  0.1814 -0.5015
25820W        W41954  11.764   7.798  11.315  0.2872  0.1330 -0.1101
25821W        W41955   4.847  11.579   5.025 -0.1727 -0.1000 -0.1185
25822W        W41956   1.706   7.734  15.239 -0.0323 -0.3425  0.1253
25823W        W41957   3.339   6.984  11.891  0.1531  0.1996 -0.2885
25824W        W41958  17.939   4.326  12.802  0.0987  0.2687 -0.1194
25825W        W41959   8.328   6.522   2.484  0.2296  0.2040 -0.0236
25826W        W41960   8.898   2.128  13.550  0.0190 -0.0080  0.1111
25827W        W41961  17.003   6.400  13.089 -0.0500 -0.0151 -0.1601
25828W        W41962   0.238   1.056   4.551  0.1448  0.0521 -0.0848
25829W        W41963   5.132   5.033   2.652  0.0049  0.0033  0.1805
25830W        W41964   2.988  15.870   0.561  0.1770  0.1361 -0.1078
25831W        W41965  12.959   3.205  13.989 -0.0699  0.0722  0.1562
25832W        W41966  16.838   2.186   2.521  0.0131 -0.0534 -0.2223
25833W        W41967  13.689  13.488   1.243 -0.0309  0.1889  0.1259
25834W        W41968   0.746   4.827  15.244 -0.1522  0.2351 -0.1667
25835W        W41969   4.900   6.246  15.890 -0.0053 -0.2351 -0.0603
25836W        W41970   5.060  16.267   2.497  0.1737  0.0017  0.0900
25837W        W41971   2.078  14.090   5.179 -0.3523  0.0124 -0.2613
25838W        W41972   7.484   7.804  15.345  0.0042 -0.1436  0.2581
25839W        W41973   4.788   2.109   6.075  0.1362 -0.1536  0.0625
25840W        W41974  15.133   4.486   0.497  0.0441  0.2588  0.0867
25841W        W41975  18.034   4.338  14.265 -0.1312 -0.1986 -0.4873
25842W        W41976   3.393  15.721   1.614  0.0956 -0.0565 -0.0257
25843W        W41977  12.423   8.372  13.466  0.0438  0.0983  0.2383
25844W        W41978  14.162   2.871   4.975 -0.0225 -0.0605  0.2469
25845W        W41979   7.587  11.439   3.278 -0.0551  0.0063 -0.0167
25846W        W41980   4.816  16.059   3.353  0.1309  0.2662 -0.0773
25847W        W41981   1.536  15.248   5.316  0.1086  0.1078  0.1971
25848W        W41982  14.994   3.906   5.468 -0.1488 -0.0653  0.0522
25849W        W41983  10.195  15.370   3.440  0.0591  0.0705 -0.0668
25850W        W41984  16.801  17.157  13.646 -0.0405 -0.2557 -0.0785
25851W        W41985  10.892  14.042  14.544  0.2132 -0.2357  0.0793
25852W        W41986   6.194  15.643  11.064 -0.0416 -0.0772 -0.0053
25853W        W41987  13.724   2.611   5.167 -0.1192  0.0482  0.0988
25854W        W41988  13.051   0.291   1.750 -0.0669  0.0274 -0.1194
25855W        W41989   1.660   3.847   0.395  0.1494  0.2051  0.0972
25856W        W41990   6.615   3.666  10.220  0.1374  0.0280  0.1650
25857W        W41991   3.105  12.079  15.887 -0.2001 -0.0589 -0.2181
25858W        W41992  11.668  17.900  15.536  0.1188 -0.0862 -0.0199
25859W        W41993  11.407   6.006   0.300 -0.1577 -0.1543 -0.0562
25860W        W41994  10.418  14.665  13.253 -0.1157  0.0879 -0.0944
25861W        W41995   2.632   4.824   4.667  0.0086 -0.0261 -0.2521
25862W        W41996   0.261  11.320   3.952  0.2011 -0.1868 -0.1667
25863W        W41997  14.222   2.911  14.617  0.0441  0.2716 -0.0425
25864W        W41998   6.100   8.916   1.109 -0.0405 -0.0059  0.2246
25865W        W41999  17.460  13.625   5.253 -0.3855  0.0857  0.1974
25866W        W42000  17.708   6.340   3.424  0.1344  0.2494  0.0291
25867W        W42001   1.588  18.069   1.206  0.2723 -0.0813  0.0715
25868W        W42002   8.922   4.140   4.864  0.0453  0.0708  0.1790
25869W        W42003  13.873  17.134   1.917  0.1290  0.0892  0.1506
25870W        W42004   2.126   3.679  11.755  0.2520 -0.0706 -0.1064
25871W        W42005  15.213   2.136  10.960  0.2522  0.1294  0.1145
25872W        W42006  14.194  15.197   3.365  0.4346 -0.1714  0.1542
25873W        W42007  12.197  10.325  15.035 -0.0459 -0.3379  0.1391
25874W        W42008   3.880   3.563   3.342 -0.2894  0.2139 -0.1351
25875W        W42009  14.345   6.467   4.656  0.1998  0.0596  0.0908
25876W        W42010  15.966   2.878   0.519  0.2695  0.0365 -0.0774
25877W        W42011   0.395   9.212   3.109  0.0093 -0.1290 -0.0598
25878W        W42012  17.295   0.810   4.366 -0.0263 -0.0336  0.4785
25879W        W42013   4.158   4.674   5.821 -0.0907  0.0282  0.2283
25880W        W42014  13.794   6.670   3.437 -0.0482 -0.2377 -0.0671
25881W        W42015   8.584   8.392   3.168 -0.0867 -0.0508  0.2512
25882W        W42016  14.278  10.715   4.589 -0.3397 -0.1919  0.1014
25883W        W42017   8.588   3.795  13.109 -0.2560  0.4386 -0.0636
25884W        W42018   5.786   4.036   1.758 -0.2148 -0.0257 -0.2703
25885W        W42019  12.391  15.499   2.415 -0.0164  0.1890 -0.2648
25886W        W42020   0.987  16.365   4.372 -0.0295  0.3063  0.0475
25887W        W42021  15.288  14.173  14.978  0.0307 -0.1062 -0.2098
25888W        W42022   1.123   2.669   2.936  0.1303  0.3191  0.0986
25889W        W42023   9.237   3.830  13.750 -0.2183  0.3227 -0.4020
25890W        W42024  15.478   8.878   5.358 -0.0373  0.0602 -0.1704
25891W        W42025  12.624  15.152   2.204  0.1973 -0.0150  0.2076
25892W        W42026   6.737   6.695  15.818  0.2121  0.1356  0.0450
25893W        W42027   1.299  11.873  14.149  0.2269  0.3487 -0.0435
25894W        W42028   9.279  15.009  12.786 -0.3184  0.0835 -0.2469
25895W        W42029   6.741   1.614   4.144  0.0232  0.4072 -0.1425
25896W        W42030  17.437   4.731  13.396  0.0078 -0.2826  0.0656
25897W        W42031   4.162  18.323   3.547  0.3002  0.0847  0.0789
25898W        W42032   4.344   9.915   2.777  0.0422 -0.0309 -0.2772
25899W        W42033  14.786  10.808   0.605  0.1019  0.0800 -0.0014
25900W        W42034   7.164  14.248   0.793  0.1310  0.0734  0.1314
25901W        W42035   0.834  14.237  10.822  0.4531  0.1869  0.4342
25902W        W42036   5.529  16.166  14.288 -0.2110 -0.1005  0.2374
25903W        W42037  14.361   7.874   2.610 -0.2386 -0.0474  0.2323
25904W        W42038  15.547   4.300  13.980  0.0767  0.2947 -0.2618
25905W        W42039   9.095  10.307  15.490 -0.2260  0.0038 -0.1771
25906W        W42040   4.571   2.820  13.232 -0.0783  0.1812  0.1991
25907W        W42041  10.215   1.721  10.869 -0.1902  0.2103  0.0351
25908W        W42042   7.998  13.779  13.641 -0.0380  0.1954  0.1061
25909W        W42043  14.903  10.735  11.634 -0.2393  0.2961  0.0710
25910W        W42044  13.398   7.646  12.826 -0.0580 -0.1237 -0.0115
25911W        W42045   1.992   5.221  13.037 -0.1605 -0.1406 -0.0316
25912W        W42046   2.125  14.497   3.171 -0.1371 -0.1644 -0.0480
25913W        W42047   6.365   6.481  11.031  0.1863  0.1096 -0.0968
25914W        W42048  18.112   2.635   0.229  0.1192 -0.0671  0.1166
25915W        W42049  14.823   3.087  15.246 -0.1959  0.3055 -0.0915
25916W        W42050   4.498  10.221  12.551  0.0359  0.0261  0.3141
25917W        W42051   7.715  12.751   4.757  0.1383 -0.2828 -0.2237
25918W        W42052  13.562  17.120  10.940  0.3022  0.2536  0.0299
25919W        W42053  13.125  15.306   1.288 -0.0294 -0.0731  0.0679
25920W        W42054   3.855   1.421  13.678 -0.1240  0.2296 -0.1903
25921W        W42055   3.525   8.754   2.223  0.1437  0.1873  0.0679
25922W        W42056  13.073   2.958   2.515 -0.1304  0.1087 -0.1644
25923W        W42057  16.505  13.704  11.781  0.1393  0.0558  0.1099
25924W        W42058   0.930  10.721  11.922 -0.1047 -0.1571  0.0034
25925W        W42059   2.329   3.375   3.369  0.2416  0.0322 -0.1139
25926W        W42060  12.777  14.151  15.852 -0.1216  0.1356 -0.0299
25927W        W42061   6.628   0.729   4.062  0.0630 -0.2435 -0.0593
25928W        W42062  12.781   4.284   0.045  0.1322 -0.4100 -0.2284
25929W        W42063   0.232  15.674   5.634  0.0194 -0.1273  0.2267
25930W        W42064  11.715  12.004   4.735 -0.1166 -0.4093 -0.4295
25931W        W42065   9.762  13.517  13.005  0.1913  0.1820  0.0891
25932W        W42066  14.979  17.733  11.339 -0.1291  0.3235 -0.0132
25933W        W42067  15.117  14.870   1.398  0.2016 -0.1192 -0.0189
25934W        W42068  14.712  12.745  14.410 -0.0127 -0.4295  0.0014
25935W        W42069  15.134   3.431   2.893 -0.0224 -0.1992 -0.2837
25936W        W42070  14.588   5.743   0.745  0.2213 -0.1323  0.3703
25937W        W42071   5.337  17.879  10.626 -0.0960 -0.2980  0.0159
25938W        W42072  10.692   1.015  14.313 -0.0026 -0.4702  0.0887
25939W        W42073   6.846  12.601  15.138 -0.1614  0.1043 -0.1471
25940W        W42074  15.576  10.662  12.441  0.1864  0.0427  0.1457
25941W        W42075   7.722   9.098   1.052  0.1077 -0.0113  0.0757
25942W        W42076   8.011   3.144  13.096 -0.1231  0.1230 -0.1999
25943W        W42077  13.857   6.194   1.605 -0.0033  0.0017  0.2521
25944W        W42078   5.498   4.028  11.666 -0.0087 -0.0844  0.1625
25945W        W42079   2.580   7.140   2.292  0.0811 -0.2028  0.1944
25946W        W42080   9.092   4.695   4.737 -0.0105  0.1125  0.1156
25947W        W42081   0.483   8.203   4.292  0.3632 -0.1615 -0.0015
25948W        W42082  12.612   1.864   5.585  0.1621  0.0266  0.0188
25949W        W42083  12.382  15.674  13.737 -0.0524  0.4670  0.0611
25950W        W42084   4.547   3.814  12.938  0.1168  0.1003 -0.4167
25951W        W42085   5.357   0.785  14.722 -0.0586  0.0146  0.2309
25952W        W42086   1.677   6.574  13.307  0.0104  0.0657 -0.0882
25953W        W42087  15.186   9.938  12.987 -0.0292 -0.0885 -0.2054
25954W        W42088  15.505   6.495   3.278  0.0949  0.0335  0.0523
25955W        W42089  10.490   7.948  14.297  0.0429  0.1317  0.1019
25956W        W42090  13.686  13.757  12.122  0.0575  0.1235 -0.0343
25957W        W42091  18.034  17.977  13.488  0.1917 -0.0624 -0.1037
25958W        W42092  10.349  18.028  12.897 -0.1338  0.1616  0.0338
25959W        W42093   5.970   1.896   5.555 -0.0527  0.3189 -0.1603
25960W        W42094   4.512   7.543  12.299  0.2341 -0.0043 -0.1913
25961W        W42095  10.262   1.326   0.247 -0.1099  0.0925  0.2286
25962W        W42096   2.308  17.889   0.883  0.0362  0.3378 -0.0958
25963W        W42097  16.217   9.207  12.952 -0.0599  0.0013 -0.1584
25964W        W42098  17.879   7.165   2.965 -0.2718 -0.2456 -0.1732
25965W        W42099   9.220  18.161  12.732  0.0588 -0.0319 -0.2246
25966W        W42100  17.019   9.622   3.486 -0.0009 -0.0453 -0.1898
25967W        W42101  15.369   8.201  12.937  0.0231  0.2886 -0.0808
25968W        W42102   3.730   5.752   2.913  0.1314 -0.4034 -0.0469
25969W        W42103   1.748   2.387   5.328 -0.2210  0.2663 -0.0644
25970W        W42104  14.693   4.839  13.401  0.3678  0.0470 -0.0782
25971W        W42105  11.946  15.297  13.109 -0.0244  0.0229 -0.2334
25972W        W42106  10.779  12.278  14.720  0.3887 -0.0348 -0.4200
25973W        W42107  10.993   3.145  15.081 -0.0186  0.0178 -0.3587
25974W        W42108   2.454  11.624   1.343 -0.2712 -0.2736  0.1668
25975W        W42109  15.546  11.027   4.408  0.2087 -0.0027 -0.2789
25976W        W42110  18.203  10.343  11.934 -0.1073 -0.0921  0.0389
25977W        W42111   6.884  13.082   3.807 -0.0824  0.1430 -0.1907
25978W        W42112  18.394   6.372  13.279  0.0103  0.3741  0.0065
25979W        W42113   9.596  11.727  14.522 -0.0406 -0.3269  0.1544
25980W        W42114   0.005  17.932   4.438 -0.0479  0.0645  0.0643
25981W        W42115   3.349   2.000  11.811 -0.3766  0.1510 -0.0572
25982W        W42116  12.329   3.201  15.106  0.2102 -0.1258 -0.0067
25983W        W42117  13.038   0.654   3.476  0.1414  0.1116 -0.0823
25984W        W42118   7.663   4.539  12.426 -0.0160  0.0947 -0.0688
25985W        W42119   7.179  14.261   2.494  0.1744  0.0722 -0.0409
25986W        W42120  11.608  17.543   4.045  0.2394  0.1042  0.0769
25987W        W42121  17.451   1.725   2.477  0.0704  0.0653  0.2192
25988W        W42122  17.223  11.014   2.008  0.4298 -0.0186 -0.0137
25989W        W42123   2.180  14.235   1.026  0.0577  0.2427  0.0792
25990W        W42124  17.938   8.228  15.785  0.0665  0.2273  0.1568
25991W        W42125   5.859   4.901  13.597 -0.1351  0.0925  0.3723
25992W        W42126  12.295   2.814   2.865  0.2571 -0.1103  0.0626
25993W        W42127   4.655   1.276  14.936 -0.0375 -0.2430  0.2108
25994W        W42128   0.108   2.806   5.028 -0.0126 -0.0306  0.4293
25995W        W42129  11.325   5.331   0.757 -0.0302  0.0346  0.0864
25996W        W42130   0.832   0.195  14.002 -0.1709  0.0195 -0.0429
25997W        W42131  16.716   5.658  12.002  0.0345 -0.4142  0.1368
25998W        W42132  13.474   5.062   1.802  0.0532 -0.2442 -0.1330
25999W        W42133   7.309  17.085   4.270  0.2288  0.0368  0.4067
26000W        W42134   5.977  13.748   0.177 -0.1158 -0.1324  0.1271
26001W        W42135   3.672   5.360  11.189  0.0691 -0.0848  0.1032
26002W        W42136  16.166   1.895   3.859  0.0053 -0.0172  0.0718
26003W        W42137  16.268   9.350   0.069  0.0950 -0.0819  0.0714
26004W        W42138   2.568   7.413   0.099 -0.2533  0.3264 -0.1543
26005W        W42139  13.622  17.404   4.810 -0.0631  0.1872  0.0980
26006W        W42140  14.701  10.339   4.281  0.1409  0.2550  0.3833
26007W        W42141  17.622  11.039  11.359  0.1429 -0.0541 -0.0749
26008W        W42142  11.176   8.886   1.635 -0.1151 -0.1721 -0.1435
26009W        W42143   6.081  16.763  14.489  0.0181 -0.0982  0.2091
26010W        W42144   0.157  14.710   3.627 -0.0356  0.1221 -0.2677
26011W        W42145   0.035  14.224   3.389  0.2238  0.0258  0.1255
26012W        W42146   2.001  13.383  13.783 -0.1071 -0.2619 -0.2794
26013W        W42147   5.908   2.277   2.845  0.2315 -0.2531 -0.0105
26014W        W42148   3.000  12.329   1.226 -0.2823 -0.1971  0.0187
26015W        W42149  16.818   4.662   4.707  0.2653  0.1582  0.0804
26016W        W42150  17.279  16.542  13.155  0.1228 -0.1059  0.0693
26017W        W42151   7.717  11.134   2.487 -0.1026  0.1182 -0.5989
26018W        W42152  12.546   3.779   2.593 -0.0737 -0.1961  0.0166
26019W        W42153   7.590  16.888  14.562  0.0849 -0.0634 -0.1345
26020W        W42154   7.277  17.956   0.439 -0.0040  0.0929 -0.1335
26021W        W42155  12.209  10.019   1.557 -0.0829  0.1325  0.1450
26022W        W42156   4.608  13.951   0.229  0.1100  0.0228 -0.0971
26023W        W42157   6.281  11.721   4.023  0.2697 -0.0760 -0.3064
26024W        W42158  14.046  16.313  13.495 -0.0900  0.1589  0.1466
26025W        W42159  13.359   2.845   4.239  0.1172 -0.1646  0.1066
26026W        W42160  16.640  10.981   3.667 -0.0698  0.2180  0.2905
26027W        W42161   1.847   5.802  12.282  0.2380 -0.6859 -0.2053
26028W        W42162   1.897   8.535   0.812 -0.0669  0.1040 -0.0381
26029W        W42163   7.568   4.048   4.397 -0.1166 -0.0254 -0.2063
26030W        W42164   5.316   6.998   2.884  0.1176  0.0524  0.0822
26031W        W42165   6.586  15.218   1.267 -0.1289 -0.2252 -0.0010
26032W        W42166   8.272   8.756  13.757  0.0666  0.0461  0.1410
26033W        W42167  14.546   0.166  14.774  0.1520 -0.2205 -0.0577
26034W        W42168   3.178   0.291   0.232  0.0294 -0.1589 -0.1800
26035W        W42169  12.542   3.164   2.573 -0.2099 -0.1727 -0.1072
26036W        W42170  13.326   0.237  12.387 -0.2806 -0.0489 -0.0038
26037W        W42171  12.557   8.660   4.831  0.3591  0.1599 -0.3718
26038W        W42172  13.920  15.961  14.124  0.1450  0.0328 -0.2048
26039W        W42173  10.358   9.946   5.046 -0.1546 -0.0053  0.0361
26040W        W42174  10.395   8.536   4.271 -0.0771 -0.2114 -0.0430
26041W        W42175  11.058  12.519  15.046  0.1757  0.0281  0.2235
26042W        W42176  14.337   3.719  15.880 -0.0415 -0.0663  0.0019
26043W        W42177  12.287  11.199   3.951  0.0150 -0.0370 -0.0668
26044W        W42178   0.688  18.324   1.433  0.2660  0.1550 -0.1625
26045W        W42179  11.524  12.454   2.888  0.2264  0.0788 -0.0647
26046W        W42180   6.057  18.390   0.010 -0.1522 -0.0170 -0.2568
26047W        W42181  10.728  15.265  14.214  0.2026  0.0256  0.0013
26048W        W42182   3.422   1.677  14.846 -0.1880  0.1909  0.2969
26049W        W42183   5.892  16.923  11.660 -0.2046  0.0506  0.3238
26050W        W42184   9.078  12.836  14.871 -0.0339  0.0710  0.0838
26051W        W42185  10.879  10.057  15.042 -0.0132  0.4195  0.0114
26052W        W42186   8.686   7.128   3.078  0.0260  0.0684  0.4235
26053W        W42187  10.786  16.811   3.435 -0.1823  0.1149  0.1167
26054W        W42188  13.132   4.186   3.642  0.0180  0.1231 -0.0214
26055W        W42189   0.812   5.979  10.845 -0.2000 -0.1661 -0.2793
26056W        W42190   1.891  17.167  11.242 -0.2919 -0.3318 -0.0453
26057W        W42191   5.187  17.860   5.918  0.1241  0.1734  0.0742
26058W        W42192   1.513   0.172   4.328 -0.1087 -0.3668 -0.1397
26059W        W42193  11.492  16.062  11.462 -0.1551  0.1566 -0.0687
26060W        W42194   3.445  15.843  12.772  0.2712 -0.2673  0.0533
26061W        W42195  16.099   8.090   2.920 -0.2164 -0.1273  0.0124
26062W        W42196   1.384  10.665   4.621  0.1802  0.0869  0.0877
26063W        W42197  18.024   0.018   3.692 -0.2250 -0.1403 -0.0621
26064W        W42198  15.057  11.427  14.402 -0.3197  0.3558  0.1068
26065W        W42199   5.996   5.417   4.046  0.0913  0.0978 -0.1147
26066W        W42200   4.366   3.294  13.014  0.1567  0.1020 -0.0995
26067W        W42201  15.149   7.362  13.850  0.1280  0.0777 -0.2125
26068W        W42202   0.117   1.947  14.696  0.0466 -0.2844 -0.1830
26069W        W42203   7.340   9.817  13.896 -0.1020 -0.2060 -0.0163
26070W        W42204  10.087  17.154   3.690 -0.1596 -0.1199 -0.0546
26071W        W42205   6.623   0.239  14.193  0.1129  0.1455  0.2865
26072W        W42206  11.375   7.437   0.038 -0.0371  0.1926 -0.0302
26073W        W42207   0.149   6.479   0.223 -0.1631  0.3466  0.1059
26074W        W42208   9.848  15.713  12.124 -0.1537 -0.0465  0.3679
26075W        W42209   5.714  17.369   3.244 -0.0294 -0.0863  0.3351
26076W        W42210   7.905  17.172  11.761 -0.1569 -0.0228 -0.3232
26077W        W42211  15.609  18.206   0.935 -0.2782  0.0789  0.4893
26078W        W42212  17.952   6.033  15.674 -0.0361  0.2222 -0.1857
26079W        W42213   2.141  11.552  12.092  0.0285  0.0856  0.2954
26080W        W42214  17.890  14.119  15.616 -0.0221  0.0360  0.2865
26081W        W42215   6.069  10.799  11.540  0.1709  0.1388  0.2012
26082W        W42216   7.004  17.625  11.983 -0.1863  0.0179  0.2882
26083W        W42217   9.803   1.877  15.754  0.0337 -0.0827  0.2322
26084W        W42218   9.636   3.029   2.882  0.1026 -0.0019  0.0580
26085W        W42219   8.741  18.181   5.368 -0.0130  0.2534 -0.1971
26086W        W42220   5.061   8.507   0.487 -0.3755  0.3317  0.1443
26087W        W42221  13.060  16.750   4.835 -0.3665  0.1109 -0.3064
26088W        W42222   2.751  12.544  11.507 -0.2197  0.0885  0.4491
26089W        W42223   3.442  11.127  11.017  0.0576  0.0320 -0.0187
26090W        W42224   2.235  11.152  13.527  0.0929  0.0516  0.0076
26091W        W42225  14.522  17.465   0.280 -0.2525 -0.1483 -0.0099
26092W        W42226   8.034   3.613   3.953 -0.2532  0.1494 -0.0485
26093W        W42227  14.512  13.858  13.843 -0.2179  0.2877 -0.0066
26094W        W42228   3.308   1.635  13.908 -0.0081 -0.1723 -0.0652
26095W        W42229  11.419   4.444  12.359 -0.0711 -0.1514  0.0273
26096W        W42230   6.235  13.699   5.648 -0.3414 -0.1552 -0.0183
26097W        W42231  15.412   3.335   4.752 -0.1243  0.3083  0.0455
26098W        W42232  13.744   8.046  11.702  0.2700  0.2419  0.0158
26099W        W42233  14.871   6.062  13.158 -0.0138  0.1111  0.1837
26100W        W42234  12.093  15.191   1.033  0.0640  0.0130  0.0823
26101W        W42235   7.753  11.031  11.738 -0.0336  0.0312  0.1435
26102W        W42236  11.600  16.524   2.168 -0.0983 -0.2344 -0.1487
26103W        W42237   3.236  16.872   2.938  0.2326  0.1976  0.1194
26104W        W42238  18.449  11.818  10.520  0.0075  0.0515  0.1823
26105W        W42239  11.264  13.148   0.688 -0.0153  0.0518 -0.3666
26106W        W42240   0.925  15.366  12.670 -0.3309 -0.1767  0.0469
26107W        W42241   3.857   7.059  11.288  0.4037 -0.1384 -0.1223
26108W        W42242  18.383   6.596  12.742 -0.1228  0.0618  0.0997
26109W        W42243   0.872  11.987   3.551 -0.3571 -0.0279 -0.1999
26110W        W42244  16.272  14.429  15.727  0.0617  0.0338  0.0922
26111W        W42245  18.348   5.781  12.417  0.2664  0.3074 -0.0096
26112W        W42246  12.765  10.946  15.894  0.1344 -0.1495 -0.0154
26113W        W42247   4.426  10.532  15.199 -0.1652 -0.1375  0.3091
26114W        W42248  17.950  17.115   1.058 -0.1889 -0.0614 -0.1335
26115W        W42249   1.652   2.368  14.592 -0.0113 -0.2137 -0.0498
26116W        W42250   1.433   0.311   1.501 -0.0298  0.0623 -0.1798
26117W        W42251  13.795   9.041  14.833 -0.0632 -0.1509 -0.0979
26118W        W42252   7.372   3.507  15.005 -0.0183 -0.2211 -0.2767
26119W        W42253  10.012   0.652  10.033  0.3666  0.3784  0.1097
26120W        W42254  10.346   5.176   4.877 -0.1510 -0.2287  0.2318
26121W        W42255   9.025  16.957  11.965  0.1926 -0.0962  0.2636
26122W        W42256  16.670  12.061   0.680  0.0350  0.2957 -0.0808
26123W        W42257  14.526   0.233  15.655  0.1019  0.0571 -0.0496
26124W        W42258   3.220   7.315   9.645 -0.2131  0.0766  0.1329
26125W        W42259   6.664   2.181  14.657 -0.1577  0.1158 -0.1435
26126W        W42260  17.711   9.768   0.569  0.0365  0.1058  0.0209
26127W        W42261  14.212   7.695   2.147 -0.2934  0.2252  0.2554
26128W        W42262   0.418   7.460   3.055 -0.0056 -0.0572  0.0777
26129W        W42263   9.352  12.715  12.732  0.0949 -0.2678 -0.1278
26130W        W42264  16.248   1.624   1.842  0.1856  0.0474 -0.1022
26131W        W42265  16.290  12.415   2.311  0.3071 -0.0222  0.1027
26132W        W42266  15.534  15.450   2.992  0.1293 -0.1299  0.1642
26133W        W42267   9.214  12.084   1.351  0.0123 -0.1879  0.0358
26134W        W42268  14.363   7.744  14.298  0.0902  0.1329  0.0654
26135W        W42269   6.938  11.933   5.447  0.0240 -0.1685  0.0554
26136W        W42270  16.108   2.398   2.093 -0.0638 -0.0393  0.0201
26137W        W42271  10.490   0.155   1.542  0.0587 -0.1603 -0.0959
26138W        W42272  12.835   9.452  11.309  0.0772  0.0420 -0.0643
26139W        W42273   8.008   1.381  11.578 -0.1180  0.0890  0.0847
26140W        W42274   8.012   9.394   0.853  0.0531 -0.0908  0.1073
26141W        W42275   0.181  10.613   3.254 -0.1401  0.2089  0.0457
26142W        W42276   2.068  14.867  15.403 -0.0422 -0.2401 -0.0953
26143W        W42277  16.181   6.623  13.628 -0.2175  0.5850 -0.2938
26144W        W42278   8.175   5.234  13.488 -0.0504 -0.1004 -0.1633
26145W        W42279  12.038   9.166   3.802 -0.1660 -0.2031 -0.1424
26146W        W42280   5.458  14.496  14.031 -0.1225 -0.0195 -0.0094
26147W        W42281   5.248  10.399  14.405 -0.0554 -0.0315 -0.2103
26148W        W42282  14.771  12.365  11.760  0.1034  0.0048  0.2334
26149W        W42283   2.573  18.056  15.429 -0.0304 -0.3163 -0.2549
26150W        W42284  10.068   0.362  15.024 -0.1985 -0.1215  0.1864
26151W        W42285  10.458  14.267  14.963  0.0937  0.0450  0.3377
26152W        W42286  10.264  10.627  15.176  0.1467  0.1490  0.3477
26153W        W42287  14.129   9.079   2.166 -0.0417  0.2323  0.0223
26154W        W42288   5.376  17.642   4.953  0.2182 -0.2912 -0.3617
26155W        W42289   8.918  15.022   3.262 -0.1171 -0.3455 -0.0368
26156W        W42290   3.419   4.105  12.216  0.2517  0.2735 -0.2919
26157W        W42291   8.031   1.813  14.192  0.1154 -0.0464  0.1430
26158W        W42292  15.915   2.382   1.602  0.3172  0.1807  0.1506
26159W        W42293   6.196   7.195  14.320  0.1379  0.1397 -0.3223
26160W        W42294  12.277   3.618   0.750  0.0432 -0.2883 -0.1913
26161W        W42295  17.624   1.065   4.047 -0.0544  0.0052 -0.0589
26162W        W42296  16.427  15.851   4.846 -0.1026 -0.2967  0.0093
26163W        W42297  15.808  11.447  15.278 -0.0360 -0.1822 -0.0417
26164W        W42298   6.316   8.669  11.487  0.0978 -0.0724 -0.1586
26165W        W42299   0.866   9.542   1.534 -0.1300 -0.2118 -0.1845
26166W        W42300   3.331   7.281  11.439  0.2275 -0.1011  0.0380
26167W        W42301  14.174   8.573  10.118 -0.2436  0.1036 -0.3984
26168W        W42302   7.411   1.860   1.717 -0.1527 -0.0803 -0.3270
26169W        W42303  13.716   1.723  13.408  0.0244 -0.0766 -0.0506
26170W        W42304   6.212  11.756   2.036 -0.1544  0.2222 -0.2246
26171W        W42305   2.400   3.090   0.426 -0.2828 -0.1965 -0.0217
26172W        W42306  17.003   3.803   1.734  0.0812  0.0948  0.1234
26173W        W42307  11.194  12.734  14.004 -0.2332  0.1229  0.1040
26174W        W42308  14.722   7.089   0.009  0.0888 -0.2938 -0.0988
26175W        W42309   1.655  14.503   2.292  0.1750  0.4151 -0.1963
26176W        W42310  15.382   4.310  12.603  0.0480 -0.0359 -0.0079
26177W        W42311  16.690  16.260   4.975  0.0490  0.6163  0.0361
26178W        W42312   2.305   7.072   4.177 -0.2714 -0.1365 -0.1518
26179W        W42313   8.735   9.912  12.531 -0.2334  0.1353  0.0691
26180W        W42314  12.868  14.791  13.858  0.1783 -0.3355 -0.0841
26181W        W42315   2.985  15.784  11.135  0.0768  0.1169 -0.1562
26182W        W42316  10.252  11.333  10.563  0.1142 -0.1118 -0.2411
26183W        W42317   1.486  10.033  10.604  0.2365  0.3329  0.0777
26184W        W42318   0.164  18.298  15.140 -0.3146 -0.1446 -0.1715
26185W        W42319  13.690  11.994  12.563 -0.0341  0.4228  0.1445
26186W        W42320  14.361  14.265  14.056 -0.0230  0.0713 -0.2226
26187W        W42321  14.786   9.389   2.686 -0.1506 -0.0227  0.0694
26188W        W42322   3.952  11.475  12.222 -0.2821 -0.1107  0.3719
26189W        W42323   6.067   8.708  14.082  0.2564 -0.3858  0.0696
26190W        W42324   1.752   9.702  15.591 -0.4044 -0.0198  0.1250
26191W        W42325  12.229   4.236   0.275  0.0510 -0.1372 -0.0166
26192W        W42326   5.265  17.456   3.912 -0.0291  0.2787 -0.3455
26193W        W42327  16.062  18.128  12.343  0.1714 -0.1370 -0.0002
26194W        W42328   0.609  14.569  13.691 -0.0977  0.0871  0.1065
26195W        W42329  12.780  12.364  11.549 -0.1216 -0.1890 -0.1207
26196W        W42330   5.485  13.126   1.597  0.2061  0.1361  0.1046
26197W        W42331   9.244  16.283   3.231  0.1280 -0.0019 -0.0175
26198W        W42332  13.640   0.553  11.720 -0.3806  0.1473 -0.1386
26199W        W42333   5.203   5.618  13.588  0.2525 -0.0992 -0.2767
26200W        W42334   7.597  16.060   4.478 -0.1269 -0.0990  0.2935
26201W        W42335   5.668  17.576   1.889 -0.0777 -0.0636 -0.0814
26202W        W42336   5.169   9.115  14.614 -0.3086 -0.1477  0.1566
26203W        W42337   4.832  14.295  11.977 -0.0689  0.0736 -0.2435
26204W        W42338   9.144   7.277  12.662 -0.0811  0.0830  0.2580
26205W        W42339  12.188   6.102  15.631 -0.1915  0.4300 -0.0732
26206W        W42340  13.956   8.279  15.094  0.1749  0.1244 -0.0747
26207W        W42341  12.893  15.974  13.740  0.0744  0.0809 -0.2726
26208W        W42342   6.554  12.714  12.100 -0.2259  0.1311  0.1059
26209W        W42343  12.783   2.855   5.338 -0.0960 -0.1199 -0.0282
26210W        W42344  14.384  10.475  11.660  0.1424 -0.0456  0.1251
26211W        W42345   5.699   9.568   2.627  0.0797 -0.4593  0.1059
26212W        W42346  16.699   1.302   0.144  0.1787 -0.1087  0.1206
26213W        W42347  12.936   9.473   4.434 -0.1577  0.0103  0.0678
26214W        W42348   7.888   9.073  12.913 -0.1417  0.4936 -0.2346
26215W        W42349   0.033   8.748   3.628  0.3168  0.1890  0.3522
26216W        W42350   9.894  15.245   4.988 -0.5762  0.1912  0.2030
26217W        W42351   4.465   7.935  14.404 -0.2133  0.1138  0.2300
26218W        W42352   3.811  17.030   3.764 -0.2019  0.0803 -0.0845
26219W        W42353  15.988  14.748  13.238  0.0429  0.2257 -0.0278
26220W        W42354  15.643  13.615   3.382  0.3369 -0.1569  0.1273
26221W        W42355   5.890   6.119   4.757 -0.1489 -0.1103 -0.1220
26222W        W42356   7.848   9.536   2.436  0.1925 -0.1109  0.1778
26223W        W42357   6.795  16.396   3.769  0.0624  0.1193 -0.2184
26224W        W42358   6.135  11.681  14.156  0.2387  0.0876 -0.0010
26225W        W42359   0.722   3.013   2.869 -0.1146 -0.1744  0.0371
26226W        W42360  10.792   5.433  11.203  0.0777  0.2666 -0.3570
26227W        W42361  11.568  16.021  14.285  0.0195 -0.0635 -0.1190
26228W        W42362   5.892  18.125   4.892  0.0774  0.3534 -0.2832
26229W        W42363  18.293  13.198   5.580 -0.2117  0.0798  0.5541
26230W        W42364  10.630   8.027   3.342  0.2226  0.3177  0.3837
26231W        W42365   6.592  10.049  15.715 -0.2649  0.1738  0.2644
26232W        W42366  11.385  18.075  15.130 -0.1245 -0.2572  0.3515
26233W        W42367  15.246  14.305   3.157 -0.2060  0.2409 -0.4639
26234W        W42368   4.222  10.181  14.198 -0.0037  0.3405 -0.0277
26235W        W42369   5.526  17.294  15.899  0.0159  0.1922  0.0539
26236W        W42370   3.366   1.045   2.578 -0.0354  0.0101 -0.1287
26237W        W42371  16.054   2.359  14.869  0.0782  0.0191 -0.0398
26238W        W42372  14.960  17.450   1.880 -0.1934  0.0740 -0.2049
26239W        W42373  12.628  13.800   4.936  0.0265 -0.1094 -0.0549
26240W        W42374   5.503  17.589   5.531  0.0086  0.0957  0.0551
26241W        W42375   5.125   6.353   5.206  0.1411  0.1268  0.1546
26242W        W42376  16.769   4.988  13.749  0.1179 -0.4023  0.3643
26243W        W42377   4.045   7.846  14.773  0.3697  0.4374  0.4201
26244W        W42378   0.951   2.983  11.431 -0.1664 -0.2405  0.0631
26245W        W42379  12.971   7.964  15.189 -0.2973 -0.1412 -0.0538
26246W        W42380   0.342  14.493   4.152  0.0111  0.1846  0.0660
26247W        W42381  17.220  16.203   1.576 -0.1383 -0.0442 -0.2123
26248W        W42382  18.454   9.452   1.853 -0.2587 -0.1554 -0.0874
26249W        W42383  15.897   5.299  12.432 -0.0022  0.2206  0.2812
26250W        W42384   3.737  15.885  13.513  0.0341  0.0348 -0.2027
26251W        W42385   9.225   3.339  11.246 -0.3389  0.3838 -0.3971
26252W        W42386  14.273   4.588  13.445  0.3680  0.2542 -0.2151
26253W        W42387  14.694  12.866  12.511  0.0759 -0.3152  0.1152
26254W        W42388   1.452  12.245  12.031  0.0068 -0.0278  0.1661
26255W        W42389   8.965  17.512  15.784  0.3215  0.0995  0.1478
26256W        W42390  10.003   8.099  14.664  0.1276 -0.0188 -0.2625
26257W        W42391   1.453   8.662   4.761  0.0649  0.1296 -0.0121
26258W        W42392  15.766  17.053  15.435 -0.2449  0.1833 -0.0160
26259W        W42393  16.874   5.357   2.079  0.0031  0.1575 -0.0666
26260W        W42394   2.713   8.285   3.197 -0.0126  0.1015 -0.4799
26261W        W42395  14.749  12.029  13.124  0.0243  0.1700  0.0403
26262W        W42396  13.083   1.746  13.020  0.2491  0.0318 -0.1017
26263W        W42397  18.164  10.504   3.103  0.2773  0.2359  0.2584
26264W        W42398   5.320  13.023  11.576  0.3382  0.0572 -0.4082
26265W        W42399  16.650   9.568   0.820 -0.0782 -0.0365 -0.4024
26266W        W42400   5.181   1.322   2.558  0.0330 -0.1356  0.0817
26267W        W42401   8.777   1.305  15.202  0.3358  0.2867  0.0636
26268W        W42402  12.557  10.763   3.881  0.0940 -0.1423 -0.0311
26269W        W42403  10.183  12.265   1.434 -0.0864 -0.1225  0.0356
26270W        W42404  14.744   7.954  15.436  0.0486  0.2714  0.1705
26271W        W42405   4.388   7.450  10.561  0.2303 -0.1387 -0.4806
26272W        W42406  10.091   8.035  12.325  0.1383  0.2485  0.0815
26273W        W42407  12.851   0.707  14.692  0.1468  0.0388  0.0818
26274W        W42408   5.854  17.818  15.025 -0.2383  0.2020  0.0491
26275W        W42409   4.168   7.923  12.902 -0.1069 -0.1425  0.1398
26276W        W42410  15.781  11.036  12.691  0.2186  0.2361 -0.2086
26277W        W42411  13.330   2.625   0.849 -0.2665 -0.0737 -0.0551
26278W        W42412  15.688  14.733   4.836 -0.0747 -0.1025 -0.1909
26279W        W42413   7.026  15.813   5.179  0.1264 -0.1988 -0.1644
26280W        W42414  11.040  11.151  11.614 -0.1445  0.2439  0.2157
26281W        W42415   1.049   9.070  12.541  0.1789  0.0523 -0.0851
26282W        W42416   2.808  17.287  11.258  0.0517  0.2610 -0.0444
26283W        W42417   6.244   9.861  14.418  0.1556 -0.0367 -0.2285
26284W        W42418  11.379  16.004   4.394  0.1506  0.1059 -0.0266
26285W        W42419   5.150  12.120  13.716 -0.0443  0.1031 -0.0489
26286W        W42420  15.519   0.721   0.178 -0.1230 -0.1804 -0.1111
26287W        W42421   2.207  14.242   1.634  0.3561 -0.2802  0.0545
26288W        W42422   2.878  17.634  12.849  0.0598 -0.0222 -0.0447
26289W        W42423   9.485  16.489   2.810 -0.0659  0.2419  0.0767
26290W        W42424   8.570   0.773   0.560  0.2702  0.3080  0.0738
26291W        W42425  15.346  14.325   4.707  0.1463 -0.2062 -0.0233
26292W        W42426  12.124  12.403  11.623  0.0012 -0.1418  0.1432
26293W        W42427  16.063   4.961  14.121  0.0086  0.0250 -0.2339
26294W        W42428   7.662   5.457   1.987  0.0093 -0.0488 -0.1363
26295W        W42429  14.136  12.659  11.351 -0.1258  0.0964  0.1603
26296W        W42430  18.042  17.134  14.593  0.0557 -0.0514 -0.0728
26297W        W42431  14.142  11.030   1.533 -0.0467 -0.4116 -0.3657
26298W        W42432  15.386  16.010  12.660 -0.2006  0.1206  0.0507
26299W        W42433   6.303   5.869   4.288 -0.2374 -0.5076 -0.1388
26300W        W42434   6.535   6.133   5.287  0.3135  0.2374  0.1032
26301W        W42435  18.064  12.526  12.326 -0.0758 -0.0702 -0.0074
26302W        W42436   3.648  16.299   3.972 -0.0602  0.0427 -0.2343
26303W        W42437  13.710  12.799  14.027 -0.0429  0.4268  0.1640
26304W        W42438   2.045  15.709   1.759  0.1526  0.1054  0.1416
26305W        W42439   7.472   7.731   5.022  0.1957 -0.1698  0.1947
26306W        W42440   5.352  11.176   3.921 -0.0977 -0.2792  0.2949
26307W        W42441  12.593   4.201  14.540  0.0295 -0.2219  0.0250
26308W        W42442  14.335   2.919  11.843 -0.0962  0.2454 -0.0714
26309W        W42443  11.675   9.091   0.892 -0.1849  0.0553  0.2453
26310W        W42444  13.847   0.797  10.895 -0.2027 -0.2842 -0.0374
26311W        W42445   1.885  16.411   4.452  0.1293 -0.1199  0.0498
26312W        W42446   1.801   7.289   4.165  0.1346  0.3154  0.1720
26313W        W42447  10.395  12.744   4.418 -0.0361  0.1715 -0.3390
26314W        W42448   5.715   3.208   5.280  0.0190  0.1487 -0.2268
26315W        W42449  14.684   9.758  14.506 -0.0398 -0.0424 -0.0802
26316W        W42450  11.542  15.440   3.993 -0.2558  0.0410 -0.0010
26317W        W42451   3.079  18.180   2.721 -0.2143 -0.0914  0.1204
26318W        W42452  17.925   0.786   0.443 -0.0572 -0.1646  0.3678
26319W        W42453   7.379  17.784  14.725 -0.1729  0.2631  0.1684
26320W        W42454  11.527   4.298  13.997 -0.2391  0.2834  0.2020
26321W        W42455   9.962   3.220   1.170 -0.0417  0.0627  0.2457
26322W        W42456   0.834  13.898  13.421  0.1475  0.0500 -0.1543
26323W        W42457   1.607   8.213   0.483  0.1110  0.0366  0.0442
26324W        W42458   8.512   5.065   0.981  0.0386  0.0830  0.2007
26325W        W42459   9.019  17.325   5.754 -0.0441 -0.0374  0.0359
26326W        W42460   6.173   7.930  12.254  0.2302 -0.1857 -0.2532
26327W        W42461  13.498  11.666  13.474 -0.0832 -0.1320  0.1255
26328W        W42462  14.880   9.919  12.136 -0.2830  0.0898  0.0308
26329W        W42463   2.823  11.695   1.779 -0.1598 -0.4008  0.0786
26330W        W42464  15.029  14.600  15.548 -0.0682  0.2389  0.1022
26331W        W42465   5.421   5.852  10.711  0.0233  0.0348 -0.1806
26332W        W42466  13.997  18.417  13.916  0.0040 -0.0853  0.0032
26333W        W42467  13.042  10.093  11.981  0.3917 -0.1930 -0.2313
26334W        W42468   3.595   5.026   2.882 -0.2606  0.0922 -0.0547
26335W        W42469  11.785   3.627  12.395 -0.1600 -0.1389 -0.0208
26336W        W42470   1.304   6.413  14.639 -0.3432  0.1332  0.2353
26337W        W42471  16.774   6.342   1.883 -0.0021 -0.1520  0.4455
26338W        W42472   4.538   9.617   4.357  0.0126 -0.0172  0.1734
26339W        W42473  16.916   9.623  15.186  0.1398  0.0275  0.0953
26340W        W42474  13.768   5.081   0.472  0.1880 -0.1695 -0.2317
26341W        W42475  18.167   0.814   0.905  0.1461 -0.4582  0.1637
26342W        W42476   3.290   4.900  11.705 -0.1829 -0.2243 -0.0131
26343W        W42477   0.542   7.390   0.305 -0.1433  0.1875  0.0001
26344W        W42478  11.532  16.572  12.769  0.0979 -0.2364 -0.1819
26345W        W42479   4.824   9.429  13.444 -0.3493 -0.4742  0.1297
26346W        W42480  15.535  15.718  15.119  0.1343 -0.3100 -0.2436
26347W        W42481  11.409   7.814   3.267 -0.0385 -0.0330 -0.1840
26348W        W42482  16.531   5.585   2.991  0.0097  0.1145 -0.0923
26349W        W42483   2.908   9.160  13.704 -0.2956 -0.3005 -0.0922
26350W        W42484   3.030   8.690  15.031 -0.0900 -0.0515 -0.1615
26351W        W42485   7.387  11.759   2.251  0.1299 -0.0169  0.1583
26352W        W42486   6.600  17.600   2.463 -0.1097 -0.1947  0.1257
26353W        W42487  17.197   6.626   1.753 -0.2951  0.0887 -0.0028
26354W        W42488   4.990   3.737   3.587 -0.1004  0.0473 -0.1616
26355W        W42489   6.092   2.578   2.132 -0.3274 -0.0914  0.1573
26356W        W42490  13.354  15.591   2.347  0.0558 -0.1169 -0.2805
26357W        W42491  17.472   3.592  15.477 -0.2593 -0.1180  0.1401
26358W        W42492   5.896  11.704  11.936  0.0618 -0.1899  0.1552
26359W        W42493  15.964  17.252  10.475  0.1972 -0.0036  0.1753
26360W        W42494  11.446   3.203   0.131  0.0039  0.1853 -0.2276
26361W        W42495  17.516   8.795  11.547 -0.1475 -0.1203  0.3602
26362W        W42496  18.021  13.140   4.265  0.0591 -0.1322 -0.1307
26363W        W42497   0.973  15.667   2.026  0.1414  0.1477  0.0007
26364W        W42498  11.320   3.932   3.798  0.1641 -0.2617  0.3829
26365W        W42499   9.167  13.385  12.793  0.1613 -0.0217  0.0697
26366W        W42500  17.635  13.795  11.558  0.0680  0.1519 -0.2653
26367W        W42501   3.332   0.042   2.477  0.1249  0.1785 -0.0903
26368W        W42502  12.573  11.506  14.916 -0.1776 -0.0870 -0.3855
26369W        W42503  10.948   6.588  15.042 -0.4953 -0.1264 -0.0748
26370W        W42504   2.363   2.239   3.676  0.1224  0.2369  0.2296
26371W        W42505  13.294   0.778  13.129  0.1811 -0.2792  0.0276
26372W        W42506   8.186  11.678  12.157  0.0383  0.2180 -0.0775
26373W        W42507  18.218   4.620  14.996 -0.0555 -0.1088 -0.1064
26374W        W42508   3.967   3.710   2.491  0.2175  0.1181  0.0050
26375W        W42509  15.087   2.667   0.382  0.1280 -0.0905  0.0140
26376W        W42510   8.750   8.085  12.458 -0.3539 -0.1206  0.1276
26377W        W42511  15.053  10.520  14.342 -0.1102 -0.2020 -0.0479
26378W        W42512   5.637   6.014  11.172 -0.1424  0.0868 -0.0626
26379W        W42513   1.297  11.603   5.008  0.1069 -0.2183 -0.3585
26380W        W42514   0.786   1.819   2.466  0.0501  0.0218 -0.0773
26381W        W42515   2.752   3.268   1.313  0.1672  0.0850 -0.0907
26382W        W42516   0.205  17.549  12.298  0.1454  0.1416 -0.0929
26383W        W42517   4.175   2.355   1.108 -0.0474  0.0347 -0.1295
26384W        W42518   3.400   3.573  10.908  0.1380 -0.2334  0.0306
26385W        W42519   4.366   1.123   4.441 -0.1438 -0.1581  0.1622
26386W        W42520  10.626  12.334  15.257  0.2221 -0.1535  0.1469
26387W        W42521  12.399   4.499   3.730 -0.0534  0.2369 -0.1292
26388W        W42522  11.197  11.069   5.021  0.2326 -0.3521  0.1338
26389W        W42523   8.120  12.200  12.330  0.0353  0.2205  0.2882
26390W        W42524   5.288   4.667   1.819 -0.4578 -0.0673  0.0543
26391W        W42525  16.729  14.064  11.451 -0.2006 -0.0907  0.0487
26392W        W42526  12.911  11.973  15.197 -0.1991 -0.0642 -0.5679
26393W        W42527  17.527   1.006  11.465 -0.0031  0.2432  0.0081
26394W        W42528  13.049   7.562  13.318  0.2520  0.1188 -0.3326
26395W        W42529  15.512   0.302   4.117  0.1396  0.1025 -0.1248
26396W        W42530   3.268  18.176   4.228  0.0292 -0.0498 -0.0479
26397W        W42531   6.668   6.806  12.684  0.0054 -0.1780  0.2250
26398W        W42532   6.922  13.558  13.173  0.1575 -0.0922 -0.1021
26399W        W42533   6.441   9.595   3.957  0.0571 -0.0774 -0.0022
26400W        W42534  10.438  11.914  14.966  0.0417 -0.1116 -0.3117
26401W        W42535   1.062  17.213  11.798  0.2242 -0.0056  0.0697
26402W        W42536   6.604  11.647   1.115  0.1924  0.4040 -0.1027
26403W        W42537  11.907   2.327  12.591  0.0321  0.2506  0.0351
26404W        W42538  11.604  14.012  15.694 -0.1663  0.0248  0.1266
26405W        W42539  15.216  13.906   0.640  0.5032 -0.0287 -0.2214
26406W        W42540  12.878   7.735  12.781  0.3138 -0.1435 -0.3309
26407W        W42541   5.090  10.631   5.080 -0.0031 -0.1678  0.2347
26408W        W42542  12.904   0.363  15.027  0.2135  0.0782 -0.0623
26409W        W42543  15.586   6.244   4.590 -0.0150  0.3038 -0.0686
26410W        W42544  18.239  17.079   3.367  0.2985  0.0730  0.0819
26411W        W42545   3.871   1.418   0.335 -0.0316 -0.0234 -0.1952
26412W        W42546   3.643   5.543   0.040  0.4388 -0.1681  0.3078
26413W        W42547   2.362  13.833   2.240 -0.0839  0.0777 -0.1596
26414W        W42548  10.697  11.958   4.572 -0.1081  0.2236 -0.3652
26415W        W42549   1.511  17.406  12.957  0.0065  0.0898 -0.0115
26416W        W42550  12.322  14.364   3.956  0.0110  0.0403  0.1906
26417W        W42551  11.789   1.967   0.894  0.1634 -0.1529  0.1296
26418W        W42552   7.459  13.550   2.728  0.1347 -0.5651 -0.0797
26419W        W42553  14.067   1.335  13.362 -0.2558  0.1313  0.2678
26420W        W42554  16.128  12.309  14.375  0.0908 -0.4778 -0.0792
26421W        W42555  12.138   8.669   5.919  0.0201  0.1731 -0.0173
26422W        W42556   6.645  11.603  14.117 -0.2131  0.1141  0.1939
26423W        W42557   0.545  11.987  14.313  0.2351 -0.1575 -0.0296
26424W        W42558   8.901  17.707   3.410  0.2130 -0.1790  0.0983
26425W        W42559   4.337   2.022   0.622 -0.2051 -0.2827 -0.0487
26426W        W42560  16.439   6.921   0.249  0.0888  0.0195  0.0450
26427W        W42561  11.395   0.036   4.576 -0.1744 -0.0163 -0.0061
26428W        W42562   8.719   9.996   4.890  0.2858  0.0109  0.3347
26429W        W42563   7.013   3.930   3.185  0.2788  0.0939 -0.0729
26430W        W42564  16.379  16.006  11.467  0.1161 -0.2396  0.1164
26431W        W42565   7.853   3.623  14.887  0.1761  0.2181 -0.1351
26432W        W42566  17.556  12.773  13.001  0.0170  0.2234 -0.0036
26433W        W42567  16.928  13.398  15.250 -0.1113 -0.0593 -0.1370
26434W        W42568  11.813  13.964  14.712  0.1237  0.4304 -0.4428
26435W        W42569   8.124  16.578   4.944 -0.1338 -0.0185  0.1161
26436W        W42570  12.151   2.695  14.441 -0.1571 -0.0176 -0.0932
26437W        W42571  13.062   2.849  14.331  0.0504  0.0990 -0.1055
26438W        W42572   9.510   0.741  14.837  0.1461  0.2270 -0.0320
26439W        W42573   0.474   4.092   2.641 -0.2897  0.2051 -0.1305
26440W        W42574   5.458  15.366  11.468  0.1620 -0.1640 -0.2297
26441W        W42575  13.072  13.627  13.771  0.1371 -0.0135  0.4831
26442W        W42576  13.325  14.946  14.608  0.1394 -0.2452  0.1882
26443W        W42577  13.021   6.685   2.841 -0.0734  0.0692  0.0511
26444W        W42578   4.231   1.943  14.994 -0.1046  0.0191 -0.0328
26445W        W42579  13.055   2.993  11.863 -0.1312  0.1027 -0.3254
26446W        W42580   2.655  10.113   4.463  0.1761  0.2223 -0.0361
26447W        W42581   2.132  11.528   3.245  0.0705 -0.2070 -0.1330
26448W        W42582   3.433   1.322  13.435  0.1145  0.2705  0.2633
26449W        W42583  15.981   1.015  14.439  0.0758  0.1763  0.0042
26450W        W42584   8.779   7.068   4.487  0.0271 -0.1941  0.0617
26451W        W42585  10.384   3.257   4.006 -0.2360  0.2347  0.0103
26452W        W42586  11.998  12.606   2.773 -0.1123  0.0360 -0.0069
26453W        W42587  11.539  14.844   2.107 -0.0684  0.1434 -0.3583
26454W        W42588   6.540  14.053   4.164 -0.1848  0.0267  0.1267
26455W        W42589   1.280  18.382  10.237  0.1112  0.0490  0.1335
26456W        W42590   2.158   6.506  15.816  0.0641  0.1218  0.1136
26457W        W42591   0.415  11.888  10.781 -0.3102  0.1924  0.0284
26458W        W42592  11.847   2.021  11.951 -0.3668  0.0871 -0.0824
26459W        W42593   2.761   8.761   0.387  0.3360  0.0448 -0.0274
26460W        W42594  10.043   6.478   1.511  0.0994 -0.2523 -0.2245
26461W        W42595   2.035   2.793   5.467  0.0778  0.0462  0.0223
26462W        W42596   5.107   3.311   3.346 -0.0789  0.1329  0.3627
26463W        W42597   8.298   8.030  12.243 -0.1116 -0.1985 -0.0607
26464W        W42598  11.296  13.404  10.054  0.3414  0.0108 -0.2154
26465W        W42599  12.374  10.636  14.153 -0.0167 -0.1054  0.1169
26466W        W42600  12.524  12.789  15.522 -0.3686  0.1042  0.0277
26467W        W42601   9.264  10.081   3.261 -0.1492 -0.0410  0.3026
26468W        W42602   1.412  17.447  11.513  0.1794 -0.0485 -0.0900
26469W        W42603  16.524   9.351   4.662  0.0264 -0.0620 -0.3569
26470W        W42604  15.134   1.627   3.843 -0.3391  0.0440 -0.0236
26471W        W42605   2.522  15.228   5.237 -0.1425  0.0177  0.0066
26472W        W42606   1.687   8.669  12.240 -0.6485 -0.0072 -0.0494
26473W        W42607  12.572   9.094   3.735 -0.1302  0.2797 -0.0796
26474W        W42608   2.220   3.670   5.605  0.0434 -0.1738  0.3231
26475W        W42609  18.212   8.570  13.981 -0.0658  0.0528 -0.4111
26476W        W42610  16.604  10.363  14.358 -0.1012  0.2780  0.0216
26477W        W42611  12.125  12.121   3.935  0.2163 -0.0050  0.0542
26478W        W42612   8.657   7.812   2.469  0.1888 -0.1036  0.2408
26479W        W42613   1.402  12.106   5.001  0.2980  0.1064 -0.2994
26480W        W42614  13.918   0.547   5.138  0.2072  0.2138 -0.1256
26481W        W42615  11.468   3.337  15.067 -0.0738 -0.4503  0.0496
26482W        W42616  16.229   6.099  12.057  0.1881  0.3238 -0.0059
26483W        W42617   9.300   2.185  14.921 -0.3149  0.0913 -0.0105
26484W        W42618   9.304  15.922   4.981  0.0310  0.0331 -0.0848
26485W        W42619  10.638  10.242  12.091  0.0748  0.1286  0.3249
26486W        W42620   5.951   3.232  13.608  0.1475 -0.2887 -0.0753
26487W        W42621  14.527   5.527   4.138  0.0084 -0.0399 -0.0552
26488W        W42622   9.032   4.837   4.277  0.0334 -0.2223  0.0844
26489W        W42623   7.699  16.880   5.256  0.2158 -0.0463 -0.1459
26490W        W42624   4.328   6.456  15.635 -0.1417  0.2001  0.2233
26491W        W42625  15.205   6.100  10.763  0.2507  0.0835 -0.1507
26492W        W42626  11.336   3.198   4.571 -0.1509  0.1034  0.1640
26493W        W42627   6.465   4.887  15.192  0.0536  0.2121  0.1929
26494W        W42628  12.076   2.733   3.547  0.1029 -0.2304  0.0486
26495W        W42629  12.614  12.715   4.992 -0.0238  0.2213 -0.4811
26496W        W42630   0.670  10.314   4.180 -0.1390 -0.2586  0.0703
26497W        W42631   7.842   7.763   3.958  0.0545  0.0345  0.0700
26498W        W42632  17.741  17.495   1.298  0.2953 -0.2866  0.1057
26499W        W42633   6.356   8.101  11.461  0.0077  0.1241  0.1798
26500W        W42634   5.379   8.911   3.446  0.1523 -0.0796 -0.3413
26501W        W42635  16.064   4.676  11.643  0.2917 -0.0971 -0.0830
26502W        W42636  15.173   5.866   0.795  0.2716  0.2309 -0.1149
26503W        W42637   8.369  15.147   5.085  0.0317 -0.1378  0.1710
26504W        W42638  15.469   2.019   3.064  0.1152 -0.2128 -0.0223
26505W        W42639  15.034  13.137  11.554  0.0306  0.2055 -0.1277
26506W        W42640  10.193   6.401   2.077 -0.0466  0.2109  0.0131
26507W        W42641  13.239   9.436  14.234 -0.4382  0.1401  0.1362
26508W        W42642  11.715   8.548  11.220  0.0332 -0.0339 -0.0720
26509W        W42643   0.752   9.086   1.280  0.2264  0.1304 -0.2351
26510W        W42644   4.960   5.336  10.416 -0.0123 -0.0094  0.0177
26511W        W42645  15.331   8.098   4.205 -0.3960  0.0656 -0.0266
26512W        W42646   4.366  13.139  15.571  0.1451 -0.0808 -0.4237
26513W        W42647  15.471  16.139   0.575  0.2803 -0.0704  0.0297
26514W        W42648  12.458  16.927   0.791 -0.0147  0.1983 -0.3696
26515W        W42649   8.980   0.657  15.760  0.1045 -0.3037 -0.0969
26516W        W42650  16.818  17.961  14.252 -0.1078 -0.1132 -0.0126
26517W        W42651   3.858  18.430   5.805  0.0265  0.4965  0.1216
26518W        W42652   1.569   2.546  12.697 -0.1941 -0.0605 -0.2131
26519W        W42653  16.745  16.711  14.972 -0.0591 -0.1290  0.0169
26520W        W42654   1.671  15.169   2.474  0.2970  0.0279  0.2565
26521W        W42655  16.648   1.759  14.074 -0.0202 -0.2938  0.1607
26522W        W42656  15.755   8.990  11.824 -0.0671  0.0049 -0.1329
26523W        W42657   7.969   8.692   3.338 -0.0320  0.0176  0.3069
26524W        W42658   0.051   8.592  11.728  0.0548 -0.2048  0.0457
26525W        W42659   7.381   8.357   4.574 -0.1726  0.0243 -0.0103
26526W        W42660  10.038  13.020   0.440  0.1139  0.1658  0.1112
26527W        W42661   0.074   7.436   2.120  0.0515 -0.2022 -0.4331
26528W        W42662   2.557   4.034  13.230 -0.0784 -0.1771 -0.3637
26529W        W42663   8.056   7.754   4.862 -0.0603 -0.1824 -0.1345
26530W        W42664   5.993  11.276   5.350 -0.1895  0.0788  0.0176
26531W        W42665   1.284   4.421   2.267 -0.2438 -0.1406 -0.0097
26532W        W42666   7.583   6.772  14.376  0.0402  0.1939  0.1247
26533W        W42667  15.614   3.938   3.348 -0.4259 -0.0894 -0.0877
26534W        W42668  14.195  16.422  11.161 -0.0066  0.1565 -0.0937
26535W        W42669   7.605   0.999  12.443 -0.0356  0.1315 -0.2050
26536W        W42670   1.986   7.179  14.725  0.0784 -0.0611  0.1230
26537W        W42671   1.748  17.678  15.373 -0.0282 -0.2729 -0.0935
26538W        W42672   0.327   6.335  13.617 -0.2368 -0.2785 -0.0410
26539W        W42673  16.530  12.144   1.176  0.0253  0.1623 -0.3420
26540W        W42674   5.816   9.584   3.188  0.0328 -0.0706 -0.0409
26541W        W42675   4.755   2.549   3.391  0.0203 -0.0424  0.0594
26542W        W42676   6.992  12.134   4.068 -0.0145 -0.2724 -0.1046
26543W        W42677   7.730   2.868   1.947  0.1840 -0.1128  0.0419
26544W        W42678  10.456  17.963   4.984  0.1089  0.1330  0.0554
26545W        W42679   4.150   5.968  15.390 -0.1292 -0.2198  0.1022
26546W        W42680   9.150  13.656  11.563  0.2063  0.0216 -0.0567
26547W        W42681   2.315   4.041  11.177 -0.0348  0.1209 -0.0897
26548W        W42682   1.680  15.796  12.370 -0.2266  0.2153 -0.1471
26549W        W42683   8.955   8.523  12.348 -0.0563  0.2274  0.0422
26550W        W42684   3.232  12.454   0.737  0.2514 -0.1289  0.0389
26551W        W42685  15.099   0.536   1.457 -0.1676  0.1256 -0.0100
26552W        W42686  11.036  17.773   2.545  0.0182  0.2862  0.1646
26553W        W42687   3.527  12.812   1.229 -0.0638 -0.0112 -0.1132
26554W        W42688   1.669  15.467   2.032  0.0497 -0.1446  0.1369
26555W        W42689  14.136   5.322   1.569 -0.0424  0.1258  0.1361
26556W        W42690  17.243  12.230  10.988 -0.1516 -0.1627 -0.1244
26557W        W42691  11.797  11.634  14.480  0.1957 -0.1910  0.1181
26558W        W42692  11.451  18.063  13.823 -0.0427 -0.1431 -0.0022
26559W        W42693  11.846   4.960   5.019  0.1491 -0.1996  0.2671
26560W        W42694  14.322  14.598   4.012 -0.1628 -0.1791  0.3436
26561W        W42695   8.299  17.084  12.671 -0.0566 -0.2153  0.0693
26562W        W42696   8.819   5.997  11.393 -0.1596  0.1062 -0.1192
26563W        W42697  11.522  10.179   3.033  0.2504 -0.0185  0.1290
26564W        W42698  10.589   2.101  14.213  0.4368 -0.0663  0.0003
26565W        W42699   5.376   2.736  13.498  0.2673  0.3521  0.0091
26566W        W42700   6.316  16.811  12.305 -0.1145  0.0083  0.3879
26567W        W42701   9.404   8.901   4.298 -0.1869 -0.0720  0.0620
26568W        W42702  13.444  13.122   0.226  0.0651 -0.1615  0.1912
26569W        W42703   0.297  17.935   0.415 -0.1122 -0.0373  0.2510
26570W        W42704  12.678  17.089  11.003  0.2477  0.2796  0.0095
26571W        W42705   0.044  13.004  12.909 -0.1685 -0.1227  0.0502
26572W        W42706  14.584  11.102   5.242  0.0271 -0.1689  0.2412
26573W        W42707   5.889  10.769   5.900 -0.2004 -0.2447 -0.2678
26574W        W42708  14.826   2.182  12.878  0.2872  0.2790  0.0851
26575W        W42709   9.923   0.958   5.318 -0.0934 -0.1218  0.1862
26576W        W42710   5.698  13.227  11.892  0.2732 -0.0125 -0.0987
26577W        W42711   4.185   2.983   2.824  0.2077  0.0411  0.2826
26578W        W42712   2.332   0.539   2.808  0.0801 -0.0229 -0.0652
26579W        W42713   4.121   4.706  12.299 -0.1600  0.0617 -0.0394
26580W        W42714   1.089  14.586  12.879 -0.3475 -0.0065  0.0901
26581W        W42715  12.564  13.979   2.561  0.0738  0.3595  0.1894
26582W        W42716   3.329  11.447  15.717  0.0643 -0.1735  0.0992
26583W        W42717  13.191  14.184   4.214  0.1919 -0.1421  0.0974
26584W        W42718   4.728   4.571   0.018 -0.1715 -0.1724 -0.0612
26585W        W42719   4.396   3.817   3.507 -0.2489 -0.2613 -0.1140
26586W        W42720   8.339   3.356  12.775 -0.0307  0.0776 -0.3011
26587W        W42721  12.658  15.884  10.133  0.4600  0.3524 -0.3184
26588W        W42722   3.683  11.259   2.580  0.0112  0.1686 -0.1675
26589W        W42723   9.681   8.850   3.861  0.0839  0.1993 -0.0864
26590W        W42724  11.007  14.546  14.397 -0.1320  0.2252  0.2488
26591W        W42725   4.202   3.024  14.174  0.0849  0.0789 -0.1490
26592W        W42726   7.239   5.738   4.007  0.1327 -0.1028  0.1433
26593W        W42727  16.818   7.143   3.958 -0.0478  0.0468  0.3625
26594W        W42728  14.396  12.188  14.390  0.1164  0.1149  0.0455
26595W        W42729   3.645  14.771  13.457 -0.2433 -0.0749 -0.1235
26596W        W42730  18.095  10.867   1.602  0.2908 -0.0936 -0.0110
26597W        W42731   4.601   3.452  12.620  0.1724  0.0813  0.0909
26598W        W42732   0.748   8.323  13.207 -0.2332 -0.0211 -0.0064
26599W        W42733  16.869   7.641  11.717 -0.2325  0.1328  0.0329
26600W        W42734   1.199   9.469   4.641 -0.4205  0.1456  0.3332
26601W        W42735   6.877   7.878   5.604 -0.1223  0.1410 -0.0559
26602W        W42736   0.134   9.731   0.153 -0.0478  0.4650  0.0098
26603W        W42737  16.018   8.778  13.667 -0.1023  0.2327 -0.0055
26604W        W42738  11.529  14.060  12.043 -0.2924  0.1866 -0.1136
26605W        W42739   4.273  15.974  12.774 -0.2527  0.1792 -0.0830
26606W        W42740   2.102   4.480  10.810  0.0344 -0.1951 -0.1119
26607W        W42741  11.081   5.389   1.232 -0.1593 -0.2890 -0.0506
26608W        W42742  13.999  17.159  15.177  0.0517  0.1189  0.0516
26609W        W42743  15.486   4.999   1.034  0.1258 -0.0318  0.2524
26610W        W42744   1.623  11.477  11.482  0.1307  0.0098 -0.0314
26611W        W42745   5.386  13.640   4.705 -0.0611 -0.1144  0.5609
26612W        W42746  11.255   0.817   2.258 -0.2231 -0.0008 -0.0740
26613W        W42747   0.952  17.277   0.756 -0.4032  0.2365  0.2059
26614W        W42748   2.084  13.531  14.259  0.1515  0.0068 -0.1812
26615W        W42749   4.475  16.026   4.534 -0.3906  0.2430  0.0154
26616W        W42750   4.228   2.037   4.745  0.2177 -0.2286  0.4330
26617W        W42751  13.773   9.478   0.246 -0.2395 -0.0011 -0.1170
26618W        W42752  16.819   5.898   0.001  0.2216 -0.0358 -0.2530
26619W        W42753   1.370  11.129  15.275  0.2203 -0.0523  0.3299
26620W        W42754   5.043   4.233   2.234 -0.1481 -0.0323  0.1886
26621W        W42755  12.006  18.291   5.942  0.0089  0.1046  0.1513
26622W        W42756  12.156   3.838  13.652 -0.3538 -0.0738  0.0241
26623W        W42757  15.068   4.155  13.816  0.2317 -0.0358  0.0098
26624W        W42758  13.620   1.876   2.984 -0.2112 -0.1300  0.2137
26625W        W42759   2.177   1.494   0.214  0.1591 -0.1193  0.2717
26626W        W42760   8.031  13.814   0.418  0.2229  0.0587 -0.0763
26627W        W42761   0.224  16.857  13.270  0.0002  0.4184  0.1165
26628W        W42762  16.470  10.696  12.055 -0.1069 -0.0403 -0.0056
26629W        W42763  18.424   7.040  10.737 -0.0782  0.1723  0.0567
26630W        W42764  18.193  10.058   0.783  0.0578  0.0254 -0.1947
26631W        W42765   6.542  11.023   0.169  0.1803 -0.1179  0.0049
26632W        W42766   1.606  18.095  14.646 -0.2929  0.2429 -0.1255
26633W        W42767  16.034  11.614   3.997 -0.1001  0.0513  0.1992
26634W        W42768  13.315  14.383   5.160 -0.0408  0.0314  0.0040
26635W        W42769   1.164  17.714   0.478 -0.1169 -0.0659 -0.0714
26636W        W42770  14.033  13.460  11.413 -0.1781 -0.1604  0.0081
26637W        W42771   3.987  17.345   1.591 -0.0585  0.2253 -0.0483
26638W        W42772  10.230  16.908   2.589 -0.0350 -0.3655 -0.0485
26639W        W42773   0.499   0.849   0.328 -0.0850  0.1294 -0.1533
26640W        W42774   1.209  13.876  10.840 -0.0384 -0.1677 -0.3781
26641W        W42775  16.067   1.584  14.860 -0.1218  0.0692  0.0226
26642W        W42776  18.067   7.485   0.822 -0.0105  0.0546 -0.0224
26643W        W42777  14.058   7.185   3.845 -0.3822 -0.2113 -0.1118
26644W        W42778   2.287   8.144   4.531  0.0521  0.0397 -0.0442
26645W        W42779   4.841   4.157  11.085  0.0193 -0.2018  0.1937
26646W        W42780  14.033  16.718   2.061  0.0850  0.6591 -0.2366
26647W        W42781  13.257  17.034   1.148 -0.1555 -0.2826  0.1681
26648W        W42782  14.489   1.980  11.649  0.0105 -0.1740 -0.2556
26649W        W42783   0.397   2.396   5.044  0.0453 -0.0242  0.0068
26650W        W42784  14.544   2.700   0.987 -0.2367  0.1546  0.1695
26651W        W42785  16.890   5.885   3.319 -0.3247 -0.1532 -0.1205
26652W        W42786   4.761  12.742   5.439  0.0342  0.1776  0.0148
26653W        W42787  18.119   0.060  13.603  0.0871 -0.0875  0.1582
26654W        W42788   5.310  14.152   3.822  0.4008 -0.0317  0.2639
26655W        W42789  10.717   7.637   4.587 -0.1325  0.0949  0.2525
26656W        W42790   7.924   5.076   1.261  0.3673  0.1390 -0.0611
26657W        W42791   1.534   9.117  15.655  0.3788  0.2182 -0.1362
26658W        W42792   9.335   5.035   0.653 -0.2155  0.1216  0.0829
26659W        W42793   2.227  15.580   2.968 -0.0769 -0.0659  0.0567
26660W        W42794  11.771   9.907   2.516 -0.0073  0.3225 -0.0932
26661W        W42795  18.121   6.817  14.398  0.0006  0.0110  0.4355
26662W        W42796  17.201  16.027  14.468 -0.1295  0.2769 -0.2881
26663W        W42797   2.786  16.187  13.646 -0.1846 -0.1439 -0.1163
26664W        W42798   0.136   0.534  14.215  0.1826  0.1013  0.0053
26665W        W42799  12.823  11.488  12.732 -0.1176  0.1687 -0.2346
26666W        W42800   6.706  17.480   3.013  0.1006  0.0542  0.0382
26667W        W42801   3.412   4.943  12.964  0.0630  0.3227  0.0910
26668W        W42802  13.962  11.214   3.223 -0.1082 -0.2406  0.2411
26669W        W42803   3.286   2.805   3.012  0.1626  0.1818  0.1870
26670W        W42804   0.571  16.319   2.384 -0.0253 -0.0227  0.0291
26671W        W42805   3.630   6.996  14.560 -0.1024 -0.3911  0.1553
26672W        W42806   7.855  17.328   2.703  0.2172 -0.0398  0.1813
26673W        W42807  12.456  13.806   1.188 -0.0619 -0.0620 -0.1768
26674W        W42808   8.833   3.205   4.163 -0.2352 -0.1411  0.0326
26675W        W42809   4.014  15.286   4.127 -0.1521  0.0326 -0.0402
26676W        W42810   2.483  16.101   2.882 -0.1950  0.1142 -0.0240
26677W        W42811  12.778   4.415  11.550  0.1177  0.1524 -0.1206
26678W        W42812   5.206  14.081  11.663 -0.0796 -0.3623 -0.1095
26679W        W42813  14.566  12.953   2.794  0.2065  0.1777  0.0421
26680W        W42814   8.324   0.512  13.207 -0.0896  0.1457  0.1262
26681W        W42815   0.025   5.063   4.212  0.1614 -0.2801  0.2585
26682W        W42816   5.699   5.969   0.542  0.0463  0.0338  0.1264
26683W        W42817  11.039   2.043   3.042 -0.0372  0.0865 -0.0170
26684W        W42818   8.292   0.699   1.832 -0.0644  0.0388  0.1202
26685W        W42819   9.777   8.871   3.004 -0.1318 -0.1757  0.1029
26686W        W42820   0.515  13.883  11.735  0.2309  0.0144  0.2023
26687W        W42821  12.120   4.865   4.572 -0.1501 -0.0604 -0.0747
26688W        W42822  15.794  13.213   3.094  0.0755 -0.0582 -0.2517
26689W        W42823   9.868   0.248   2.303 -0.1430 -0.0292  0.2284
26690W        W42824   7.681   6.632  10.965  0.0789 -0.0005 -0.0256
26691W        W42825  17.388   4.243  13.520  0.0765 -0.0885  0.1958
26692W        W42826  15.961  10.566  14.377  0.1606 -0.0644 -0.1868
26693W        W42827   0.757  15.180  10.657 -0.1120  0.3176  0.0810
26694W        W42828   2.092   4.150   4.272  0.2705 -0.3777 -0.0967
26695W        W42829  16.084  11.464   0.563 -0.0117  0.0359 -0.0551
26696W        W42830   9.681   4.521   1.897 -0.1907  0.3220 -0.0380
26697W        W42831   8.236   2.738   1.264  0.1633 -0.0826 -0.0371
26698W        W42832   1.665   1.340  10.672  0.1046 -0.1719  0.0300
26699W        W42833  12.228  13.045   5.043 -0.0526  0.0935  0.3322
26700W        W42834   1.171  17.330  13.856  0.1314  0.0884 -0.2438
26701W        W42835  15.880   0.201  13.331  0.0332  0.0939 -0.2990
26702W        W42836  13.509   9.626  15.177 -0.3459  0.0683  0.3176
26703W        W42837   3.115   9.445  11.207  0.2090  0.1375 -0.2197
26704W        W42838   7.054   5.951  12.085  0.0191  0.0910 -0.0157
26705W        W42839  15.993  16.251   0.434 -0.0579  0.2309  0.1271
26706W        W42840  17.884   3.861   4.673 -0.0043 -0.1970  0.0525
26707W        W42841   5.516  13.683  15.860 -0.6334 -0.0305  0.3287
26708W        W42842  13.619  10.225   4.320 -0.1272  0.0487 -0.0766
26709W        W42843   9.907  18.085   0.571 -0.2323  0.2084  0.3568
26710W        W42844   1.668  16.001   3.830 -0.0307 -0.1880  0.0657
26711W        W42845  11.653   7.630   1.409 -0.0393  0.0576  0.1831
26712W        W42846   1.267  15.693   5.960 -0.1053 -0.2755 -0.2908
26713W        W42847  15.526  14.137  11.134  0.3578  0.1031  0.1560
26714W        W42848   1.745  15.614   5.037  0.0161  0.0304  0.2521
26715W        W42849  17.551  15.268   0.325  0.0023  0.1090  0.1015
26716W        W42850  17.533  14.240   5.701 -0.3593 -0.0370 -0.0358
26717W        W42851  10.533   5.145   1.710 -0.1053 -0.1331  0.0475
26718W        W42852  15.428   2.097  13.672 -0.2181 -0.3086  0.1377
26719W        W42853  15.802   7.375  14.787 -0.1681  0.0745 -0.2251
26720W        W42854   1.702  16.292   0.110  0.0867  0.1184 -0.0621
26721W        W42855  11.330  17.047  13.583 -0.0682 -0.0472 -0.0714
26722W        W42856   8.039   1.907  15.806 -0.3334  0.0484 -0.1465
26723W        W42857  16.248   9.361   3.839 -0.1992 -0.2103  0.0987
26724W        W42858   8.604  13.465  11.678  0.3894  0.2512 -0.5664
26725W        W42859   8.030  10.352  11.894 -0.0394  0.1275 -0.3947
26726W        W42860  12.370  15.402  15.610  0.4527 -0.1397 -0.0359
26727W        W42861  17.367   5.925  15.157  0.1661  0.2071 -0.1345
26728W        W42862  16.578   4.490  12.792  0.2366 -0.0027 -0.4076
26729W        W42863   6.873  12.556   3.342 -0.2464  0.1578  0.0862
26730W        W42864  16.355  17.493  15.759 -0.1398  0.2626  0.0976
26731W        W42865   2.629   4.450   1.241 -0.1610  0.2976  0.3117
26732W        W42866  15.501  10.689  14.218  0.1180 -0.2250  0.0374
26733W        W42867  11.423  13.916  12.879  0.0336  0.1401 -0.0012
26734W        W42868  12.266  14.821  13.065 -0.2059  0.0395 -0.0958
26735W        W42869   3.745   2.423   4.822  0.1613 -0.0340 -0.3008
26736W        W42870   2.222  15.526   4.875  0.0560 -0.0360  0.1462
26737W        W42871   4.230  15.353   1.147  0.0644 -0.1168  0.0925
26738W        W42872  11.899  10.942  10.764  0.0803  0.0803  0.0165
26739W        W42873   0.061   6.991   1.231 -0.1604 -0.0155  0.0764
26740W        W42874  13.912  13.017   1.071 -0.2520  0.1257  0.2174
26741W        W42875  17.397  17.449   0.334 -0.0276  0.0282  0.0642
26742W        W42876   2.466  11.853  11.877  0.0906 -0.0485 -0.0337
26743W        W42877   5.052  17.367   1.902 -0.1318  0.0029  0.0287
26744W        W42878  11.795  18.405   4.899  0.0561 -0.1663 -0.0273
26745W        W42879  17.648   4.386   3.547  0.1780 -0.1940  0.1198
26746W        W42880   1.380   8.108  14.972 -0.4326 -0.1218  0.1531
26747W        W42881   2.483  17.856   0.095  0.2672 -0.1720 -0.0773
26748W        W42882   8.914  14.840   0.079 -0.0899 -0.1984  0.0393
26749W        W42883   9.003   8.272   4.341 -0.1654 -0.2843 -0.0479
26750W        W42884   7.864  12.147   3.579  0.4405 -0.1125  0.0304
26751W        W42885  16.732  18.299   5.211 -0.2524  0.2845 -0.1959
26752W        W42886   1.855   6.157   0.501  0.2882 -0.0997 -0.2486
26753W        W42887   5.534   3.040  12.812  0.1626 -0.1675  0.1906
26754W        W42888  16.197   0.971   0.704 -0.2271  0.0652  0.0174
26755W        W42889   9.732   1.262  12.487  0.1419  0.0042 -0.0539
26756W        W42890   2.664   5.464  11.785  0.0378  0.1040  0.0457
26757W        W42891  11.644   8.116   4.530 -0.5251 -0.3190 -0.1590
26758W        W42892  14.541   9.701  14.038 -0.0210 -0.0799  0.1039
26759W        W42893  13.373  13.528  12.806  0.1106 -0.0065  0.1484
26760W        W42894   3.812  11.377  10.738  0.0672  0.1110  0.1027
26761W        W42895   4.732  15.273   1.014 -0.1169 -0.0006  0.1221
26762W        W42896   9.240  11.451  13.295  0.0679 -0.2262  0.3572
26763W        W42897   4.385   6.732  14.527 -0.2543  0.3129  0.0083
26764W        W42898  16.189   8.727  10.913 -0.2779  0.1034 -0.0554
26765W        W42899  13.986  15.789  11.890 -0.3899  0.2433 -0.1394
26766W        W42900  16.881   5.123   4.997  0.2478 -0.3574  0.0117
26767W        W42901   9.149  11.939  12.353 -0.3835 -0.0515 -0.0841
26768W        W42902   4.886  18.257   6.091 -0.2300  0.0214  0.1700
26769W        W42903   0.127   6.590  14.911 -0.0496 -0.0646  0.1938
26770W        W42904  10.958  13.398   3.147  0.0139  0.0436 -0.1266
26771W        W42905  12.026   1.662   4.553  0.2123 -0.0346  0.1304
26772W        W42906  16.728  17.203  15.126  0.0499  0.0668 -0.0171
26773W        W42907   5.088   4.643   4.480 -0.1224 -0.0922 -0.2666
26774W        W42908  17.280   0.882  15.768  0.0604 -0.1209 -0.0739
26775W        W42909  13.645  16.718  13.418 -0.1683  0.1695 -0.0492
26776W        W42910  12.919   5.552  11.023  0.1672  0.1085  0.0549
26777W        W42911  18.190  13.403  12.071  0.0942  0.2793  0.0205
26778W        W42912  16.355  10.880   4.557  0.2446  0.2075  0.1144
26779W        W42913   4.359   7.473   4.041  0.0511  0.0041 -0.0246
26780W        W42914  18.316   1.786   0.840  0.0949 -0.0908  0.2911
26781W        W42915  13.324   8.525   3.501  0.1727 -0.2887 -0.0399
26782W        W42916   9.630   8.435  14.340 -0.2029  0.0377 -0.0609
26783W        W42917  16.018   7.402  14.175  0.0893  0.0758 -0.1191
26784W        W42918  13.220   7.073  14.287  0.1114 -0.0260 -0.1824
26785W        W42919  15.024   1.054  13.163 -0.1098 -0.0412 -0.2115
26786W        W42920   0.554  12.201  11.264  0.0567  0.0708 -0.2448
26787W        W42921   5.775   7.097  14.667 -0.0512  0.1937 -0.3360
26788W        W42922  17.500  17.103   2.596 -0.2099 -0.2322 -0.0598
26789W        W42923   1.826  12.420   1.139  0.0089 -0.1061  0.0079
26790W        W42924   4.522   4.389   2.294 -0.2107 -0.1369  0.3397
26791W        W42925  15.291   5.264  10.166 -0.2814  0.0995  0.0887
26792W        W42926  16.514   1.549   4.135  0.1729 -0.0439  0.3980
26793W        W42927  12.997   5.410   1.178  0.2779  0.0600  0.3289
26794W        W42928  10.846   1.378   1.091 -0.1316 -0.3813  0.0267
26795W        W42929  18.442  12.511  12.604 -0.1856  0.0809  0.0033
26796W        W42930  10.759  15.002  14.681 -0.1766 -0.0238 -0.2291
26797W        W42931  15.692   8.915  15.135 -0.4570 -0.1071 -0.1291
26798W        W42932  16.502   0.694  13.169 -0.1144  0.0420 -0.1827
26799W        W42933  11.459   2.869   4.972  0.1959 -0.1212  0.0224
26800W        W42934   0.767   4.527  12.521 -0.2124 -0.1730  0.1676
26801W        W42935  15.613   5.945   0.460  0.0264 -0.0330  0.0062
26802W        W42936  10.285   3.382  13.418 -0.1829 -0.0235  0.0467
26803W        W42937  17.810  13.578   4.886 -0.1424  0.0973  0.0230
26804W        W42938  17.842   2.292   4.564  0.1824  0.1470  0.0234
26805W        W42939  11.470  15.767   2.766  0.2260 -0.0484  0.1225
26806W        W42940  12.471  12.963   3.791  0.1564 -0.0079 -0.1993
26807W        W42941  14.301  18.285   3.334  0.2991  0.2628  0.3731
26808W        W42942   2.803   1.224   0.790 -0.3339  0.0071  0.0691
26809W        W42943  13.743   5.937   2.039  0.0978  0.0101  0.0625
26810W        W42944  12.247   7.816   1.250 -0.0485 -0.0750  0.2769
26811W        W42945   5.744  10.305  12.818 -0.0848  0.0515  0.0761
26812W        W42946   0.413   2.253   3.342  0.1087  0.2375 -0.2676
26813W        W42947   6.238   4.967   3.869  0.0244 -0.0525 -0.0935
26814W        W42948  15.502  14.337  13.263  0.0632 -0.2900 -0.3962
26815W        W42949   3.695   1.531  11.043 -0.2746  0.0497  0.0013
26816W        W42950   9.987   6.508  15.756  0.0376  0.1819  0.0904
26817W        W42951   3.206   2.115  13.804  0.0985  0.1333  0.2741
26818W        W42952   3.168   8.620  15.515 -0.1452 -0.0282 -0.2263
26819W        W42953   8.985  13.359   4.886 -0.2913 -0.0526  0.1051
26820W        W42954   6.592  10.790  12.502  0.2563  0.2313  0.0238
26821W        W42955  10.482   2.831   3.660 -0.0550 -0.0214  0.2703
26822W        W42956  15.758   1.803  13.021  0.0030  0.0789  0.3507
26823W        W42957  17.794   3.262  15.145  0.0097 -0.1219 -0.1939
26824W        W42958   5.444  16.981   3.872 -0.0295 -0.2169 -0.2861
26825W        W42959   9.448   0.315   2.660 -0.0122 -0.2221 -0.1610
26826W        W42960   6.892   6.382  12.393  0.0543  0.2016  0.0496
26827W        W42961   9.458  17.871  14.580  0.1058  0.2250  0.5186
26828W        W42962  10.565   4.691   4.739  0.0309 -0.1296  0.0372
26829W        W42963  11.051  16.268   0.532  0.1047  0.2312  0.0862
26830W        W42964   6.835   8.832   5.547 -0.1239  0.0755 -0.0661
26831W        W42965  16.356  17.013  12.338  0.0203 -0.1313 -0.0779
26832W        W42966   2.883  16.228   0.271  0.0842 -0.2073  0.0864
26833W        W42967   6.895   4.281  15.651  0.1671 -0.0296  0.1244
26834W        W42968  17.279   7.398  12.553  0.3265  0.1600  0.0863
26835W        W42969  15.154  10.809   1.302  0.0124 -0.1681  0.0678
26836W        W42970  11.739  12.104  13.396  0.3304 -0.1819 -0.0075
26837W        W42971  18.464  17.953   0.846 -0.1674  0.0482  0.1965
26838W        W42972  15.479   8.847   4.430  0.1184 -0.0620  0.1223
26839W        W42973   8.985  17.699   2.876 -0.1278  0.0135 -0.0566
26840W        W42974   5.431  12.516  14.916  0.1102  0.1435 -0.0328
26841W        W42975   9.780  17.468   1.010 -0.1102 -0.1462  0.0391
26842W        W42976  13.784   0.738  15.099 -0.1081  0.2459 -0.1701
26843W        W42977  17.799   4.927  12.451  0.3887 -0.1789  0.0294
26844W        W42978  15.282  11.561   5.190  0.0537 -0.0411 -0.1243
26845W        W42979  14.837   8.223   0.043 -0.2117  0.3067  0.0710
26846W        W42980   4.855  10.547   4.274  0.0905 -0.0589  0.1757
26847W        W42981  10.580  10.775  13.923 -0.1472  0.0796  0.1143
26848W        W42982   6.087   4.169  13.968  0.0261 -0.0329  0.1398
26849W        W42983   0.913  13.452   2.787 -0.2246  0.0715 -0.0490
26850W        W42984   3.577  14.580   2.724  0.0230  0.0440 -0.1953
26851W        W42985  13.219   2.998   5.188 -0.3585  0.0294  0.0960
26852W        W42986   7.090   6.559  12.804  0.1245  0.1072 -0.1385
26853W        W42987  18.397  12.905   1.183  0.0321  0.0088 -0.1086
26854W        W42988  13.311  16.744  15.746 -0.3252  0.1482  0.2676
26855W        W42989   4.236  17.937   3.149  0.1773 -0.0938  0.1681
26856W        W42990  14.266   6.067  11.062  0.1351  0.1391  0.2220
26857W        W42991  15.251  15.392  15.785 -0.2170  0.1734 -0.0706
26858W        W42992   8.295   2.207   0.163 -0.0644 -0.0463 -0.1530
26859W        W42993  11.062   3.510  15.425 -0.2459 -0.0806  0.3536
26860W        W42994   7.653   1.018  15.856 -0.0608 -0.3146 -0.0701
26861W        W42995  18.301  12.909   4.737  0.1096  0.0852  0.1436
26862W        W42996   3.275  11.515  12.454 -0.0203  0.1774 -0.0647
26863W        W42997  13.008  13.223   3.810  0.3631  0.0509  0.0395
26864W        W42998   6.598   1.602  10.938 -0.0195  0.1437  0.1372
26865W        W42999   0.974  12.365  15.158  0.2949 -0.0164  0.1310
26866W        W43000   4.821   5.778  11.721 -0.4134  0.0537 -0.4503
26867W        W43001  10.305   4.382  13.773 -0.0043 -0.1253  0.1299
26868W        W43002   6.063  16.194   3.952  0.2833 -0.0418 -0.1596
26869W        W43003   0.262   1.123  10.588  0.1571  0.3185 -0.0524
26870W        W43004   4.058   2.344   5.260  0.5019  0.1387  0.0867
26871W        W43005  17.697  18.014  14.411  0.1421 -0.0739 -0.1301
26872W        W43006   1.922  17.597   6.164 -0.4256 -0.0063 -0.2432
26873W        W43007  18.426  11.625  13.886  0.1487 -0.0889  0.0685
26874W        W43008   7.509   8.818   5.230 -0.3563  0.0695 -0.2064
26875W        W43009   4.068  17.550  10.592 -0.1525  0.0844  0.0045
26876W        W43010   4.144  11.494  12.893  0.0468  0.1176 -0.1267
26877W        W43011   5.259   8.800  15.537  0.0829  0.2666  0.0551
26878W        W43012   1.243   6.479   2.576  0.0649  0.0543 -0.3343
26879W        W43013  17.657   6.754  12.926 -0.4027 -0.1067 -0.0498
26880W        W43014   7.786   8.145   4.224  0.0856  0.1455 -0.0796
26881W        W43015  11.997   4.489  10.566 -0.0938 -0.0434  0.1007
26882W        W43016   1.573  16.612   0.871  0.0067  0.0331  0.0259
26883W        W43017  11.461  11.543   4.766  0.2068 -0.0284  0.0531
26884W        W43018   7.817  18.398  14.383  0.0459  0.1019 -0.2984
26885W        W43019   7.463  10.047  11.481 -0.2384  0.2261  0.2981
26886W        W43020  11.180   8.724  15.337 -0.1465 -0.1255 -0.1327
26887W        W43021   7.494   2.574  15.199  0.2259 -0.0974 -0.0694
26888W        W43022   5.859  10.921   3.932  0.0771  0.1087  0.0150
26889W        W43023  15.589   6.318   1.694  0.1248  0.0946 -0.0331
26890W        W43024   9.598   7.196   0.434 -0.0742  0.0075 -0.2180
26891W        W43025  17.811  16.472   0.283 -0.0780 -0.3019 -0.0655
26892W        W43026   5.018  10.725   0.408  0.1780  0.2815  0.0945
26893W        W43027  16.774   0.153   1.721  0.3367  0.2132  0.2411
26894W        W43028   3.039  16.084  11.647 -0.0470 -0.0827  0.1561
26895W        W43029   1.847   2.089   2.527 -0.1723 -0.1978 -0.2576
26896W        W43030   0.454  18.287   0.105 -0.0373 -0.1282  0.2513
26897W        W43031  11.187   8.141  10.752 -0.0057 -0.2773  0.3861
26898W        W43032   2.339  17.551  14.157  0.2980  0.1967 -0.1178
26899W        W43033   1.760   2.988   1.073 -0.2806 -0.0241 -0.2780
26900W        W43034   5.872   2.373  13.364  0.0582  0.0252  0.0049
26901W        W43035  12.381  13.538   4.608 -0.1555  0.0290 -0.1800
26902W        W43036   9.984  15.049  12.097 -0.1839  0.2496  0.0145
26903W        W43037   6.485  15.060   2.421 -0.0217 -0.0782  0.3173
26904W        W43038  18.052   6.698   4.222  0.0542 -0.4507  0.0349
26905W        W43039   1.556  16.050   5.132 -0.1835 -0.1418  0.0678
26906W        W43040   8.651   7.843   1.884 -0.0516  0.1027  0.2382
26907W        W43041  14.513  11.257   3.141 -0.3138  0.0826 -0.2073
26908W        W43042  13.861  15.029  13.869 -0.1730 -0.2499 -0.1006
26909W        W43043  12.214   7.394   2.885  0.0368  0.0965  0.1644
26910W        W43044  14.778  12.586   1.451  0.1878  0.2464 -0.1087
26911W        W43045   0.921   2.171   2.092  0.3337 -0.1850 -0.0913
26912W        W43046  16.206  18.391  14.693 -0.1522  0.1013 -0.0305
26913W        W43047   4.358  18.379  13.497  0.4011 -0.1883 -0.0690
26914W        W43048   9.128   9.078  14.006 -0.0642 -0.0362  0.0898
26915W        W43049   6.603   3.545  14.942 -0.0414 -0.1832 -0.1513
26916W        W43050   1.693  10.009   3.634  0.1611 -0.3290  0.1479
26917W        W43051  16.655  12.780   2.961  0.2515 -0.1552  0.2271
26918W        W43052   4.966  14.605  13.297 -0.0811 -0.2529  0.0123
26919W        W43053  12.743   3.395   4.941  0.1271 -0.2165 -0.1129
26920W        W43054   9.297   7.830  11.888  0.0142  0.2748 -0.0621
26921W        W43055   2.520   0.693  13.250 -0.2920  0.1376 -0.0149
26922W        W43056   4.834  13.003   3.496 -0.2862  0.1039 -0.2140
26923W        W43057  11.870   2.546   3.133 -0.1626  0.0830  0.0801
26924W        W43058   7.274   8.454   5.536  0.2479 -0.0274 -0.1537
26925W        W43059  18.209  14.966   5.461  0.0864 -0.2563 -0.0048
26926W        W43060   8.526  15.588   4.756 -0.0681  0.0907 -0.0102
26927W        W43061  16.897   7.214   4.796 -0.3175  0.0063  0.3038
26928W        W43062   6.608  11.288  15.617  0.1023 -0.0932  0.0877
26929W        W43063   2.949   0.322  11.402  0.0866  0.0791 -0.1887
26930W        W43064   9.085   1.527   5.257 -0.2794  0.0176 -0.2222
26931W        W43065   8.266  11.925   1.012  0.4277  0.2296  0.0532
26932W        W43066   9.967   2.858  11.391 -0.0929 -0.0314 -0.0651
26933W        W43067  13.397  18.451  15.681  0.0673  0.0900  0.1183
26934W        W43068  11.105   4.047  15.569  0.2021  0.2185  0.6020
26935W        W43069   8.259   3.614  13.584  0.1864  0.1961  0.0606
26936W        W43070  13.601   7.271   0.343  0.2489 -0.2288  0.0644
26937W        W43071  11.312   0.964  11.041 -0.0235 -0.0702 -0.2548
26938W        W43072   4.661   9.293  14.703  0.0308 -0.0269  0.3212
26939W        W43073  10.767  17.199   3.772 -0.2832 -0.0620 -0.0296
26940W        W43074   3.432   2.874  15.661 -0.0852  0.3698  0.1432
26941W        W43075   1.130   6.376   4.612 -0.1899 -0.1935  0.0668
26942W        W43076  18.254   7.427   4.258  0.2421 -0.2134  0.0303
26943W        W43077  12.437  11.634  11.504  0.2775  0.2786 -0.1575
26944W        W43078  14.531   0.530  12.746 -0.0881  0.1826  0.2576
26945W        W43079   4.581   0.031   3.316 -0.0538 -0.2102  0.3098
26946W        W43080   3.537   6.424   5.021 -0.0208 -0.1138  0.1522
26947W        W43081   8.795  14.672  14.299  0.0377  0.0335 -0.0325
26948W        W43082   0.360   6.524  13.058  0.0034 -0.2372  0.0001
26949W        W43083  18.448   8.379   5.045 -0.2280 -0.2371  0.0305
26950W        W43084   5.676   2.108   5.141 -0.0890  0.1774  0.1156
26951W        W43085  17.563   7.320  15.295  0.0006 -0.2700  0.1995
26952W        W43086  17.694  12.087  12.262 -0.2697 -0.1966 -0.5113
26953W        W43087  12.729   2.275  11.423  0.1537 -0.4105 -0.1072
26954W        W43088   9.974  17.115   0.653  0.0781 -0.0113  0.1126
26955W        W43089   2.931  15.609  11.615  0.2891  0.1180  0.1351
26956W        W43090   3.694  13.531  14.099 -0.1250  0.0625  0.3124
26957W        W43091  12.103  17.618   5.986 -0.0606 -0.1471  0.1671
26958W        W43092   1.660  18.349   3.628  0.0679 -0.0889  0.0747
26959W        W43093  11.090   7.719  12.078 -0.1539 -0.0285  0.1509
26960W        W43094   2.060  16.388  13.092 -0.2421 -0.0517 -0.1508
26961W        W43095  16.385  13.048  15.665  0.0359 -0.1553 -0.0193
26962W        W43096  15.387  18.202   1.413 -0.0495  0.1507 -0.1628
26963W        W43097  17.304   5.572   0.087  0.0332  0.0439  0.0507
26964W        W43098   6.679   6.529  14.693  0.2070  0.0065  0.1672
26965W        W43099  11.123  10.252   4.368 -0.1900 -0.1067 -0.1336
26966W        W43100   9.226   5.319   1.740  0.3130 -0.3006  0.1878
26967W        W43101  10.239  12.877  13.687 -0.0106 -0.1973 -0.0520
26968W        W43102  16.327   5.783  13.613  0.0464 -0.0162 -0.0588
26969W        W43103   2.120   9.247   4.818 -0.0209 -0.2391 -0.3840
26970W        W43104  15.397   6.867   1.715  0.2175  0.1276  0.1405
26971W        W43105  13.185   2.522  15.835 -0.0549 -0.2238 -0.1725
26972W        W43106   8.304  16.040   4.830  0.1161 -0.2380 -0.0114
26973W        W43107  16.907  13.444  12.290  0.1029 -0.0541  0.2352
26974W        W43108  11.531   5.100  15.046 -0.0531  0.2028 -0.1437
26975W        W43109  17.190  12.666   4.182 -0.4045  0.0305 -0.1713
26976W        W43110  12.228  16.079   3.390 -0.0434 -0.1668  0.1072
26977W        W43111  13.970   3.490  13.254  0.1032  0.0193 -0.0873
26978W        W43112   8.516   6.826  13.752 -0.0365  0.1800  0.3868
26979W        W43113   0.815   6.943  10.821 -0.0789 -0.1197  0.0144
26980W        W43114   3.309   0.408   3.379 -0.1896  0.1293  0.0634
26981W        W43115   7.351  17.260   2.856 -0.1700  0.0006 -0.1640
26982W        W43116   2.212  12.979  11.139  0.1965  0.1061 -0.0391
26983W        W43117   1.717   5.997  11.822  0.1105  0.1245  0.0776
26984W        W43118   8.610   4.073  15.454 -0.2473  0.4105  0.1481
26985W        W43119  13.355   3.300   2.137  0.0354 -0.1494 -0.0729
26986W        W43120  16.400  15.079  13.104 -0.2278  0.2819  0.0487
26987W        W43121  17.439   9.900   4.808  0.6037 -0.0269  0.1163
26988W        W43122  11.353   2.172  13.903 -0.2617  0.1400  0.4779
26989W        W43123   1.174   3.842  12.134  0.2284 -0.0411  0.0160
26990W        W43124  14.060   2.177   2.987  0.0955 -0.0619 -0.1502
26991W        W43125   8.706  10.263   3.251  0.0336 -0.1920 -0.0802
26992W        W43126   1.649  14.622   0.843 -0.1269  0.0743 -0.1167
26993W        W43127  18.337  16.911   2.082  0.1091  0.0191  0.0660
26994W        W43128  15.194  15.640   0.824 -0.3107  0.0919 -0.0588
26995W        W43129   7.680  10.558  14.902 -0.1539 -0.0263  0.2467
26996W        W43130   7.967   3.484  15.405  0.1808  0.1243 -0.0264
26997W        W43131   2.028  16.200  14.296 -0.1601  0.1171  0.1393
26998W        W43132  16.020  11.337   4.799  0.0162 -0.0741 -0.1498
26999W        W43133  10.795  14.988  11.493 -0.0779  0.1518 -0.3366
27000W        W43134   8.818  10.717  10.148 -0.2136 -0.1706 -0.0082
27001W        W43135   1.860   3.153   4.699  0.1937  0.1925 -0.0385
27002W        W43136  18.033  13.585   2.852 -0.1366  0.2400  0.1945
27003W        W43137  11.418  11.581  13.762 -0.0453 -0.2035  0.1067
27004W        W43138  12.858   3.014  12.394  0.2253 -0.1439 -0.0377
27005W        W43139   9.927   7.369   1.761  0.1043 -0.1373  0.0110
27006W        W43140   2.367   5.109   0.084 -0.0794  0.1444  0.0579
27007W        W43141  10.705  11.952  12.478 -0.0354 -0.1200 -0.1703
27008W        W43142  14.838  13.793   2.456 -0.0034 -0.1917  0.0952
27009W        W43143   0.544   1.129  14.892  0.0262  0.0646  0.1562
27010W        W43144   8.326   6.599  10.600 -0.0911  0.0831  0.1960
27011W        W43145   2.788   4.960   5.857  0.1284  0.0747 -0.2144
27012W        W43146  14.260   9.998   2.472  0.1351 -0.2523  0.2341
27013W        W43147   3.459   5.131  12.143 -0.3843 -0.0752 -0.0218
27014W        W43148  17.468  15.373   1.703  0.0035 -0.1280  0.0319
27015W        W43149  14.852   1.467  14.561 -0.0538 -0.0996  0.1336
27016W        W43150   1.790  16.572  11.852 -0.0123 -0.0162 -0.0621
27017W        W43151  16.081  15.328   1.998 -0.0694 -0.1138  0.3781
27018W        W43152   4.379  14.653   3.079  0.2158 -0.3042  0.1871
27019W        W43153  13.806   6.911  15.006 -0.0075 -0.1147  0.1479
27020W        W43154   6.788  13.237  11.248 -0.1094 -0.1859  0.1641
27021W        W43155  17.579  16.405  13.854  0.1845 -0.1694 -0.1152
27022W        W43156   4.676   9.180  12.560  0.0300 -0.0288 -0.1499
27023W        W43157  15.671   0.836  12.593  0.1329 -0.0525 -0.0952
27024W        W43158  12.354   2.675   1.236  0.1667  0.2142  0.1174
27025W        W43159   9.177   9.160   5.167 -0.1583  0.0056  0.1877
27026W        W43160   9.439   1.964  15.352 -0.3815 -0.2358 -0.0359
27027W        W43161   2.848  15.733  13.460 -0.0993 -0.0646  0.0753
27028W        W43162  13.551  11.505  11.228 -0.3580  0.0565  0.0096
27029W        W43163   0.152  14.178  10.662 -0.0598 -0.2402 -0.1567
27030W        W43164  12.816  16.241  15.530 -0.0222 -0.0807 -0.0572
27031W        W43165   5.172  15.574   4.964 -0.5328  0.0645  0.1290
27032W        W43166  13.997   0.650  14.009  0.1632  0.1878  0.1189
27033W        W43167   1.505  18.183   2.016  0.1874 -0.3106 -0.0333
27034W        W43168   3.570   7.772  14.119 -0.3344  0.0451  0.2176
27035W        W43169  17.205  17.952  12.975 -0.1433 -0.2947 -0.0403
27036W        W43170   4.941   2.895   4.129  0.0341  0.0655  0.1450
27037W        W43171  16.095   3.347  11.247  0.0647  0.2323  0.1198
27038W        W43172   2.243  14.855  15.906 -0.0163  0.1904  0.0157
27039W        W43173   8.561  15.114  14.704  0.0257  0.0044  0.0568
27040W        W43174  15.714   6.234   3.698  0.1616  0.2451 -0.0069
27041W        W43175  12.430  10.859  12.014  0.2446  0.2387 -0.1761
27042W        W43176  17.995  14.146   0.578 -0.0276 -0.1862  0.0703
27043W        W43177  16.389  14.045   4.912 -0.0673  0.0809 -0.0653
27044W        W43178   6.884   5.252  10.939  0.1860  0.2115 -0.0891
27045W        W43179   2.312   4.621  14.288  0.1713 -0.0206  0.3485
27046W        W43180  15.639  17.730   3.196  0.0826  0.0651  0.1954
27047W        W43181  15.095   4.315   5.120  0.0797  0.2236  0.0754
27048W        W43182   1.763   0.575  15.079 -0.2509  0.3298  0.1105
27049W        W43183   8.645   1.237  12.720  0.2258 -0.1551 -0.1329
27050W        W43184  11.850  11.328   0.029  0.2264 -0.0185 -0.0033
27051W        W43185   7.083  12.270   1.519 -0.1221 -0.3195  0.0706
27052W        W43186   4.441   9.372   3.019 -0.0654 -0.0713  0.0055
27053W        W43187   8.963   5.556  10.521 -0.0787  0.2426 -0.1034
27054W        W43188  17.179   4.194   0.577 -0.1792  0.0480  0.1788
27055W        W43189  15.763   5.581  12.891  0.1250 -0.0291 -0.0462
27056W        W43190   3.289   4.839  15.537 -0.1387 -0.3464  0.2694
27057W        W43191   6.567  10.514  11.695 -0.0452 -0.3580  0.1082
27058W        W43192   6.523   4.139   3.264  0.2136 -0.0783 -0.0581
27059W        W43193   4.943   1.566   1.571 -0.0240 -0.0136  0.1649
27060W        W43194  14.866  13.976  15.254  0.1905 -0.0710 -0.2225
27061W        W43195  17.264   4.836   0.074  0.2629  0.2140  0.1095
27062W        W43196   3.441  13.034  11.040  0.1505 -0.0141 -0.0668
27063W        W43197  18.109   2.164   0.478  0.2548 -0.3387 -0.0557
27064W        W43198  17.953  17.970   0.526 -0.1689  0.2256  0.0645
27065W        W43199   3.309   4.356   6.150 -0.0124 -0.1088 -0.0978
27066W        W43200   6.823  10.373   4.131  0.0072 -0.1619  0.0689
27067W        W43201  15.640   8.111   3.708  0.1117 -0.2028  0.0842
27068W        W43202   2.943   4.999   0.457 -0.1010 -0.1376  0.0338
27069W        W43203  17.322  14.491  15.420  0.0587 -0.0716  0.1536
27070W        W43204   6.309   1.216   6.137 -0.1550 -0.1500 -0.0294
27071W        W43205   7.120   8.796  11.680  0.3481 -0.1878 -0.0475
27072W        W43206   0.086  11.075  12.643 -0.1454 -0.2285  0.2441
27073W        W43207  16.157  17.037   3.105  0.0781  0.1411  0.3678
27074W        W43208   6.834  11.758   1.674 -0.0726  0.0683 -0.0838
27075W        W43209  10.461  11.097   2.071  0.0969 -0.0546 -0.1243
27076W        W43210  14.159   9.326  14.717  0.0537  0.0352  0.1267
27077W        W43211  13.433   0.378   2.200  0.2497  0.1024 -0.0818
27078W        W43212   7.974  12.264  10.676 -0.1369 -0.0187 -0.2503
27079W        W43213  16.665   0.036   2.366 -0.0721 -0.0412 -0.2582
27080W        W43214   3.073  10.113  15.482 -0.1867 -0.0567  0.1621
27081W        W43215  14.493   9.668   0.700  0.0227 -0.1684  0.4342
27082W        W43216   8.450   8.395  11.897 -0.0307  0.2821 -0.1302
27083W        W43217  12.319   0.480   2.466  0.1072  0.2336 -0.1840
27084W        W43218  15.574  16.107   2.598 -0.2307 -0.2003 -0.4305
27085W        W43219  11.978   1.109   1.321 -0.1535 -0.2575 -0.1140
27086W        W43220  15.712  16.917  13.424  0.3502  0.2751  0.0478
27087W        W43221   6.512   8.380   0.514  0.0190 -0.2658 -0.2239
27088W        W43222   8.114   9.280  11.040  0.0474  0.2335 -0.2338
27089W        W43223   4.640   0.010  14.641 -0.1025  0.4377 -0.1143
27090W        W43224  12.689   5.469  12.530  0.2540 -0.0292 -0.0932
27091W        W43225  12.395  14.500  13.662  0.2651 -0.1569 -0.0410
27092W        W43226   8.691   4.424  13.860  0.1021 -0.1738 -0.1321
27093W        W43227  15.463   3.358  14.997 -0.2516 -0.2820 -0.0143
27094W        W43228   5.874   5.166  11.066  0.1195  0.1748 -0.0790
27095W        W43229   5.596  11.393  11.705  0.1244  0.0106  0.2696
27096W        W43230  15.389   8.636   3.117  0.4570  0.3389 -0.1100
27097W        W43231   5.293   8.028  13.971 -0.0023 -0.5129  0.1406
27098W        W43232   1.277   7.047   3.297 -0.0438  0.1002 -0.0108
27099W        W43233   7.983  17.503  11.183 -0.0296  0.0249  0.0064
27100W        W43234   6.992  17.835  14.435 -0.0438 -0.0990  0.0508
27101W        W43235  12.174   8.361  13.006  0.0934  0.3620  0.0406
27102W        W43236  11.345   7.278   1.699 -0.0119 -0.1597 -0.1027
27103W        W43237   3.467  10.481  11.455  0.0593 -0.0451  0.3274
27104W        W43238  11.745   5.229  15.498 -0.1252 -0.0741 -0.2514
27105W        W43239   2.717  11.455  13.639 -0.1997  0.1709  0.2516
27106W        W43240   2.699   4.821  14.022  0.1010  0.0726 -0.3408
27107W        W43241   1.650   9.612  10.397  0.1284 -0.1976 -0.1077
27108W        W43242  18.396  13.322  13.874 -0.2128  0.1429 -0.1593
27109W        W43243   8.268  15.574   2.928  0.1481 -0.0662  0.1623
27110W        W43244  17.289   1.046  13.171 -0.0398  0.0325  0.1125
27111W        W43245  10.424  14.150  13.402 -0.2147  0.1411  0.4546
27112W        W43246   8.101  11.276   4.347 -0.0363  0.3197  0.0597
27113W        W43247   7.949   2.303   1.275  0.2256 -0.4713 -0.0866
27114W        W43248   4.345   6.651  14.021 -0.0886 -0.2218 -0.1202
27115W        W43249   2.607   5.917   0.370  0.1240  0.0609  0.1305
27116W        W43250   5.133  14.634   2.895  0.2715 -0.0767 -0.2379
27117W        W43251  12.768   2.633  12.658  0.0033 -0.0991  0.3573
27118W        W43252  13.356   8.699   4.424 -0.0229  0.1393  0.1700
27119W        W43253   2.977  10.397  11.288  0.0793 -0.1162  0.2495
27120W        W43254   9.343   8.801   4.815  0.0515  0.0323  0.1566
27121W        W43255   4.041  14.970   1.508  0.0788 -0.2751  0.4161
27122W        W43256   1.819  18.418   1.517 -0.1700 -0.0229  0.1869
27123W        W43257   7.092   0.420  15.469  0.0531 -0.0382  0.0367
27124W        W43258   3.334   5.675   5.438 -0.1201  0.1874  0.2655
27125W        W43259   1.146   8.093   2.731 -0.3270  0.2493 -0.1535
27126W        W43260   7.400  13.603   9.804 -0.0802 -0.0080  0.1488
27127W        W43261   6.535   7.875   4.248  0.0206 -0.2678  0.0789
27128W        W43262   6.217  15.062  13.934  0.2242 -0.2399  0.2063
27129W        W43263   4.119  12.539   3.874  0.0182  0.2711 -0.0880
27130W        W43264   9.755  10.808  10.319  0.1202  0.0708  0.2981
27131W        W43265   7.863   9.904  12.219 -0.0623 -0.1020  0.0305
27132W        W43266  11.775   9.317  14.247  0.0353  0.1749  0.1835
27133W        W43267   4.294  10.674   2.275  0.1680 -0.2133  0.0178
27134W        W43268  17.198  15.941  12.422 -0.2292  0.2539  0.0676
27135W        W43269  10.806  11.052   4.083 -0.0292 -0.1457  0.0074
27136W        W43270   5.492  16.760  11.355  0.0254 -0.3182 -0.3099
27137W        W43271   0.248   0.139  15.618  0.0468 -0.0002  0.0998
27138W        W43272  16.291   8.999   6.090  0.1033 -0.1169 -0.1384
27139W        W43273   0.037   7.865   1.471 -0.2812 -0.4178 -0.1740
27140W        W43274   2.519  10.020  14.857 -0.0204 -0.3209  0.2884
27141W        W43275  13.145  14.750   2.893 -0.5692  0.0691  0.1458
27142W        W43276   6.768  17.175   4.360 -0.0768 -0.0889  0.1639
27143W        W43277   7.677  17.731   3.636 -0.4104 -0.1124 -0.0259
27144W        W43278   2.793   5.027   5.119 -0.0796  0.1014 -0.1006
27145W        W43279   7.399   9.452   0.940  0.2782 -0.3279  0.0916
27146W        W43280   1.488   5.365   3.984  0.0190 -0.2271  0.0543
27147W        W43281   2.539   6.956  11.561 -0.0838  0.0647  0.0336
27148W        W43282   4.847   2.466  11.831 -0.2297  0.0407  0.0143
27149W        W43283  13.929   7.614   3.513  0.1043  0.1337 -0.0321
27150W        W43284  12.551   3.207  11.987  0.1088  0.1224  0.0861
27151W        W43285   5.903   7.916  13.107 -0.0458  0.3661 -0.2432
27152W        W43286  16.906   0.592   4.104 -0.0704 -0.2562 -0.3468
27153W        W43287  14.931  17.606   0.568 -0.2508 -0.0144  0.3923
27154W        W43288   0.167  10.192   1.148  0.1404  0.0052  0.0003
27155W        W43289   4.391  12.040  14.165 -0.1384  0.1751 -0.1245
27156W        W43290  16.661  17.671  12.210 -0.1235  0.0130 -0.0864
27157W        W43291   6.815  16.853  12.003 -0.1389  0.1309 -0.0968
27158W        W43292   0.822   2.870  14.252  0.1679 -0.0280 -0.1213
27159W        W43293   5.855   4.640  14.579 -0.3374  0.1885  0.1501
27160W        W43294  16.185  15.295  10.808 -0.1209  0.0292 -0.1319
27161W        W43295  17.103  10.765  10.638  0.2481 -0.0571  0.1779
27162W        W43296  10.793   6.929   2.543  0.2129  0.3148  0.1094
27163W        W43297  10.487  17.921  14.740  0.0109 -0.2295 -0.3000
27164W        W43298   9.789  15.373   0.951  0.0026  0.2948  0.0607
27165W        W43299   2.939   2.662  14.941  0.0331  0.0158  0.0517
27166W        W43300  15.131   5.086   1.489 -0.0099  0.0935  0.1931
27167W        W43301   4.556  12.552   2.125  0.0563 -0.0142  0.2171
27168W        W43302  12.616   3.452   5.406  0.0465 -0.1704  0.0449
27169W        W43303   6.631   2.564   5.178 -0.0339 -0.0124  0.4419
27170W        W43304   6.400  13.486   0.381  0.0023  0.0184  0.4086
27171W        W43305  14.501   9.039   1.779 -0.0333 -0.4971  0.2100
27172W        W43306  17.689   2.545  14.236 -0.1337  0.1283  0.2301
27173W        W43307  18.008  15.313  14.801 -0.0983 -0.1335  0.2418
27174W        W43308   7.943  12.944   5.434  0.1768 -0.2698  0.2466
27175W        W43309  16.009   3.674   4.196  0.1319 -0.0117 -0.2687
27176W        W43310  18.079  13.460   2.382  0.0004  0.1087  0.2044
27177W        W43311   0.129   1.271  15.475 -0.2709 -0.0491  0.2979
27178W        W43312  15.722  17.047  14.114 -0.2620 -0.1435  0.2620
27179W        W43313   7.280   0.248   3.640 -0.1575 -0.1747 -0.2360
27180W        W43314  15.638   3.055  11.131  0.0544  0.0425  0.0573
27181W        W43315  14.237   3.109   1.645  0.0991  0.0154  0.1341
27182W        W43316  11.766   0.857  11.013  0.0759  0.2246  0.3009
27183W        W43317   2.553   6.355   3.906  0.0188 -0.1101  0.0308
27184W        W43318  12.303   4.690  11.541 -0.0193  0.0157  0.2013
27185W        W43319   1.858   1.380  12.001 -0.0402  0.0537 -0.0493
27186W        W43320  18.245  15.338   4.154 -0.0361 -0.0549 -0.2267
27187W        W43321   0.277  13.286  14.201 -0.0905 -0.2037 -0.3410
27188W        W43322   5.628   9.182  10.974 -0.0131  0.0485  0.1444
27189W        W43323   0.200  12.172  13.221 -0.0544  0.0940  0.0058
27190W        W43324   0.723   7.066   6.000 -0.1719  0.0106 -0.1696
27191W        W43325   4.074   8.612  15.172  0.2248 -0.0517  0.2676
27192W        W43326   3.796   5.028  15.769  0.0938  0.1493  0.1409
27193W        W43327   3.679  16.584   3.341  0.1603 -0.0160  0.3635
27194W        W43328  17.281   6.902   2.538  0.0872  0.3019  0.1309
27195W        W43329   8.934   4.793   1.058 -0.1874  0.0099 -0.0448
27196W        W43330   9.332  14.666   2.908  0.1225  0.0570 -0.0470
27197W        W43331  14.690   7.783   5.160  0.2053 -0.0856 -0.0770
27198W        W43332   9.943   1.430   5.074  0.0952 -0.3728 -0.1187
27199W        W43333  12.153  18.153   3.784  0.0140 -0.0682  0.0047
27200W        W43334   9.283  16.153  13.200  0.1203 -0.0839  0.1719
27201W        W43335   9.430  14.637  11.212 -0.1493 -0.1234 -0.1268
27202W        W43336  10.557   0.903   3.287 -0.0435 -0.2703  0.0789
27203W        W43337   4.827  15.051  14.212  0.1004 -0.0321  0.1236
27204W        W43338   2.381  17.309  11.954  0.3594 -0.3297  0.0445
27205W        W43339  14.596  16.142   1.570 -0.3584  0.0485  0.1778
27206W        W43340   5.251  15.690  12.906  0.0572  0.0476  0.2061
27207W        W43341  11.448   0.964   1.401 -0.1143 -0.0841 -0.1592
27208W        W43342  14.512  16.242   5.037 -0.1627  0.1575  0.0211
27209W        W43343  10.737   4.367   2.036  0.4328  0.3062  0.1153
27210W        W43344  11.037  17.272  15.407  0.1023 -0.0517  0.0088
27211W        W43345  17.872   9.546  14.181 -0.0325  0.1462  0.0803
27212W        W43346  13.383   5.526  15.065  0.0142  0.1396 -0.0972
27213W        W43347   2.683  15.365   3.244 -0.0096 -0.1945  0.0151
27214W        W43348  10.838  10.997  13.586  0.0339  0.1453 -0.1691
27215W        W43349   8.310   0.313   1.507 -0.0626  0.4501  0.2918
27216W        W43350  12.650  10.459   5.810  0.3499 -0.0514 -0.3723
27217W        W43351   5.763   7.137   3.893  0.2165  0.1855 -0.1335
27218W        W43352  16.613   6.585   3.977  0.1299  0.2001  0.4135
27219W        W43353  17.260  16.044   2.609 -0.0256  0.0673  0.2012
27220W        W43354   2.598   4.035   5.662  0.2988 -0.0178 -0.0363
27221W        W43355   3.751   0.419   3.137  0.0540 -0.2655  0.1069
27222W        W43356   7.862   2.783   4.411 -0.1090 -0.1128  0.1856
27223W        W43357   8.566   8.660  11.502  0.2690  0.0897 -0.0455
27224W        W43358   5.643   7.337   2.631 -0.3560  0.2848 -0.3768
27225W        W43359  18.296  13.177   3.729 -0.0188  0.2725 -0.0731
27226W        W43360   0.426   1.969  10.831  0.1155  0.0183 -0.2469
27227W        W43361   8.549  16.413  15.200 -0.1274  0.1541  0.3675
27228W        W43362   6.678  13.923   3.161 -0.0388 -0.0255  0.2189
27229W        W43363   6.317  11.668  13.138  0.1906  0.2671 -0.0119
27230W        W43364  16.459  15.751   3.311 -0.1216 -0.1738  0.1573
27231W        W43365  17.240  15.479   4.995 -0.0944  0.3496 -0.0924
27232W        W43366   9.072   8.260   1.141 -0.1245  0.0558  0.1412
27233W        W43367   3.362  18.151  12.032  0.0587  0.1180  0.0722
27234W        W43368   9.496  13.366   1.054 -0.3549 -0.2433 -0.0386
27235W        W43369   1.702  11.051  15.616 -0.0185 -0.3750  0.2622
27236W        W43370   7.059  15.275   1.648 -0.1765  0.1844  0.0931
27237W        W43371  17.032  13.720   0.574 -0.0105 -0.0917  0.1183
27238W        W43372   2.106   8.188  10.383 -0.0157 -0.0530 -0.3232
27239W        W43373  14.610   8.084   0.885 -0.5974  0.1966  0.0964
27240W        W43374  16.376   1.403   0.511 -0.0226 -0.3670  0.0837
27241W        W43375   0.622   0.690  14.363  0.0505  0.2229 -0.1024
27242W        W43376   1.089   5.689   5.413 -0.1754 -0.1811 -0.0714
27243W        W43377  13.824   3.345   1.361  0.0444 -0.1057 -0.4047
27244W        W43378  16.912   5.834   1.835 -0.0778  0.1120 -0.0426
27245W        W43379  15.857   1.996  15.123  0.0618 -0.4929  0.3339
27246W        W43380   1.123   3.601   4.424  0.1097 -0.2091 -0.1528
27247W        W43381   5.539  15.211  15.878  0.3060  0.1463  0.4712
27248W        W43382  12.184   6.129  15.111 -0.4048 -0.0541 -0.0161
27249W        W43383  10.196  12.288   0.945  0.1408  0.3067  0.3028
27250W        W43384   5.241  18.044   2.889 -0.0514 -0.1333  0.1367
27251W        W43385  10.248   4.200  13.197 -0.1032  0.0343  0.1435
27252W        W43386   6.493   2.469  15.906  0.1777  0.2512 -0.1309
27253W        W43387   3.740   1.897   1.822  0.2373 -0.1655  0.1077
27254W        W43388  14.470  11.792   3.992 -0.4532 -0.2574  0.0980
27255W        W43389   8.649   1.216   1.079 -0.0210 -0.1350 -0.2441
27256W        W43390   3.527   8.155   2.347 -0.0079 -0.2478  0.2884
27257W        W43391   8.803  13.061  15.331  0.0266  0.0859 -0.0022
27258W        W43392  16.825  10.926   0.197  0.1176 -0.0150  0.2620
27259W        W43393   1.486   5.596  13.994 -0.0815  0.1034 -0.2275
27260W        W43394  11.948  17.944   0.727  0.2847 -0.0968  0.0667
27261W        W43395  14.004   2.053  11.672 -0.1413  0.3462  0.2628
27262W        W43396   9.888   8.679   4.289  0.0253 -0.3103 -0.1844
27263W        W43397   5.262  13.444   3.259  0.0628  0.1674  0.2704
27264W        W43398  16.224  16.922  14.979 -0.0552 -0.1320  0.3143
27265W        W43399   4.986   4.086  11.552 -0.1807  0.1473 -0.1605
27266W        W43400   7.636  15.165  15.273 -0.0015 -0.1670  0.0414
27267W        W43401  16.599   2.774   4.745 -0.0934  0.0880 -0.1912
27268W        W43402  11.464  14.979  12.198  0.1937 -0.0713 -0.1635
27269W        W43403   1.887   7.064   2.702 -0.4056  0.1042  0.1247
27270W        W43404  17.414  16.112  12.877 -0.0994 -0.4275 -0.1350
27271W        W43405   4.920   8.974   2.865  0.0144 -0.1667  0.0157
27272W        W43406   0.430   2.391  12.111 -0.3119  0.2726 -0.2282
27273W        W43407   8.275   9.244  13.996 -0.1309 -0.0389 -0.0406
27274W        W43408   0.429   5.185   0.221  0.2056 -0.1630  0.0193
27275W        W43409  13.754  15.105  15.758 -0.0943  0.2201 -0.1231
27276W        W43410  14.980   9.222  15.874 -0.3437 -0.2335  0.1118
27277W        W43411  16.105  17.886  14.738  0.0649  0.0946 -0.2287
27278W        W43412   9.367   3.196  12.722  0.2346 -0.0121 -0.0294
27279W        W43413   6.079  18.118  14.710  0.0333 -0.2696 -0.2098
27280W        W43414   2.377   8.948  11.421 -0.3359 -0.0051 -0.0781
27281W        W43415  13.684  17.574  11.197  0.0273 -0.1855 -0.0178
27282W        W43416  13.417  10.424  11.970 -0.0447 -0.0566  0.3124
27283W        W43417   0.733   3.951   4.645 -0.2850 -0.3083  0.1736
27284W        W43418   8.499   5.672   2.280 -0.2959  0.1713 -0.0877
27285W        W43419   6.880  15.149   5.981  0.0565  0.2423 -0.3000
27286W        W43420  12.837  13.129   1.523 -0.0629  0.0697 -0.1875
27287W        W43421  11.789   2.640  10.408  0.0693  0.1585 -0.0079
27288W        W43422   7.357  10.514   4.501  0.0236 -0.2275 -0.3230
27289W        W43423   3.429   3.608   0.213 -0.1115  0.0299  0.1806
27290W        W43424   3.305   6.567   9.547  0.0823 -0.0014 -0.0925
27291W        W43425   5.751   0.629   3.034  0.1527  0.0191  0.0615
27292W        W43426   5.294  10.541  12.018  0.1386  0.0131 -0.0166
27293W        W43427  15.048   7.468   4.319  0.0895  0.0095 -0.1958
27294W        W43428   1.692   9.562  15.041  0.1257  0.2003  0.0394
27295W        W43429  14.503   7.332   4.053  0.3707  0.2455 -0.4842
27296W        W43430   1.371  14.896   0.301 -0.2811  0.0939 -0.0388
27297W        W43431  13.260   2.759   2.024  0.1806  0.2438  0.3711
27298W        W43432   4.675  11.659  11.033  0.0690  0.3206 -0.1030
27299W        W43433  12.539  13.759   0.514 -0.1310  0.1743  0.1075
27300W        W43434  16.316   2.398   3.847  0.0144 -0.3200  0.0086
27301W        W43435  16.348   6.708  15.154  0.0840  0.0992 -0.2052
27302W        W43436  13.531   8.046   1.083 -0.0997 -0.1491 -0.0150
27303W        W43437   2.873  11.622  15.651  0.0147 -0.1528 -0.1207
27304W        W43438   8.646  11.825   0.187 -0.0063  0.1847  0.1884
27305W        W43439  17.632  10.533  14.459 -0.0344 -0.2514 -0.0453
27306W        W43440  12.144   6.094   2.509 -0.4211 -0.0284  0.3704
27307W        W43441   5.065   9.871  15.324 -0.2190 -0.0932  0.0861
27308W        W43442   5.615   2.146   3.269  0.0606  0.1312  0.1666
27309W        W43443  17.500   3.418   1.627  0.1023 -0.1451  0.1747
27310W        W43444   4.037  10.422  12.653  0.3542  0.0212  0.1899
27311W        W43445  13.566   9.049  12.902  0.4341 -0.0466 -0.2169
27312W        W43446   6.896  13.141   4.864  0.2047 -0.0915 -0.1847
27313W        W43447   8.363   5.416   1.390 -0.0570 -0.2701  0.1299
27314W        W43448  11.795  12.867   3.192  0.1266 -0.1452  0.0014
27315W        W43449  16.337   3.682   1.052  0.0860 -0.2295 -0.1468
27316W        W43450   9.039  15.530   2.627  0.2945  0.1383 -0.2297
27317W        W43451  11.575   4.939  10.630  0.0818 -0.0972  0.0923
27318W        W43452   7.346  11.708   1.662 -0.0198 -0.2963  0.1544
27319W        W43453  13.108   4.612  15.197 -0.0906  0.0159 -0.0619
27320W        W43454   3.163  10.814  11.417 -0.0573 -0.3708 -0.0647
27321W        W43455   8.721   9.969  10.571 -0.0659  0.0550 -0.0006
27322W        W43456  15.129   4.496  14.187  0.1112  0.0786  0.0363
27323W        W43457   2.458  17.685   2.522 -0.2316 -0.0669  0.3526
27324W        W43458   2.671  15.207   0.034  0.0347 -0.1559  0.0698
27325W        W43459   7.186   0.751  12.150  0.1912  0.1727 -0.0460
27326W        W43460  12.162   4.171   2.498 -0.2809 -0.1054  0.1205
27327W        W43461   0.061  10.589  12.909 -0.0933 -0.0886  0.0958
27328W        W43462  14.467  13.476   2.321  0.0853 -0.2700 -0.0375
27329W        W43463   7.337  16.682  15.112  0.2088  0.0232  0.1249
27330W        W43464   7.261   0.588  13.101 -0.1602 -0.1811 -0.0917
27331W        W43465   0.764  15.187  11.134  0.2235  0.3715  0.1598
27332W        W43466   8.777  16.811  12.813  0.1119  0.0618  0.0634
27333W        W43467  12.464   1.106  15.450 -0.0699  0.0054 -0.0470
27334W        W43468  17.156  13.200  14.722 -0.1787  0.1717  0.0116
27335W        W43469   5.333   2.300  13.018  0.0648 -0.3620  0.1760
27336W        W43470   6.569  18.117   2.615 -0.0650  0.1235  0.1087
27337W        W43471  11.624   7.327   2.184  0.0475 -0.2667 -0.1879
27338W        W43472  11.967   2.753  12.921  0.1211 -0.1801 -0.0642
27339W        W43473   1.714   9.575   3.993 -0.4277  0.2157  0.1751
27340W        W43474   5.304   7.769   1.565 -0.2866  0.1444  0.1102
27341W        W43475   0.669  14.398  14.987 -0.0409 -0.0664 -0.1664
27342W        W43476   6.355   0.404  14.986 -0.1995  0.0398 -0.3185
27343W        W43477  10.914   6.385  13.287 -0.1834  0.1305 -0.0237
27344W        W43478   3.942  16.614   1.471  0.2074 -0.1332  0.0670
27345W        W43479   8.813   9.624  15.688 -0.0791 -0.0478  0.2274
27346W        W43480   8.366   1.986   0.595 -0.3562 -0.0864  0.3612
27347W        W43481   2.965  14.496   0.435  0.1412  0.0044  0.0053
27348W        W43482   3.585  10.720  12.715  0.3041  0.0225 -0.0021
27349W        W43483   7.593  13.624   1.350 -0.3033 -0.1800  0.1049
27350W        W43484   6.115  17.282  11.439  0.0280 -0.3841  0.1605
27351W        W43485  12.707  14.373   2.192 -0.0818 -0.1632  0.3187
27352W        W43486  13.687   7.677   4.313 -0.2016  0.0121 -0.2247
27353W        W43487  16.703  10.786   5.272  0.1617 -0.1527  0.1574
27354W        W43488   9.828   3.442   1.642 -0.2681  0.3463  0.1660
27355W        W43489   4.698   3.613   4.034 -0.0861 -0.1378 -0.2357
27356W        W43490   4.256  11.848   1.511 -0.3196 -0.0407 -0.1847
27357W        W43491  17.738   2.109   2.626  0.3012 -0.1130 -0.0241
27358W        W43492   9.040   8.520  11.442 -0.0794 -0.0024 -0.2468
27359W        W43493   7.111  11.638   3.136  0.0600  0.3257 -0.1124
27360W        W43494   1.621  11.112   1.100  0.0550  0.0530 -0.1252
27361W        W43495   0.315  11.388  10.949  0.1028  0.0242 -0.0082
27362W        W43496   9.334   0.648  11.054  0.1208 -0.0056 -0.1403
27363W        W43497   2.068  12.346   3.736  0.1366  0.1014 -0.2745
27364W        W43498  13.965   9.173   1.704  0.0790  0.0310 -0.0672
27365W        W43499   2.310  13.915   3.741  0.0687 -0.0078 -0.0888
27366W        W43500  11.588  17.050   4.144 -0.1529 -0.0283 -0.0653
27367W        W43501   3.732  10.350  10.918 -0.0080  0.0764 -0.0279
27368W        W43502   4.883   6.543  15.483 -0.0611  0.0948 -0.1170
27369W        W43503  13.027  11.864  13.334 -0.3060 -0.2664 -0.0703
27370W        W43504   0.491   5.409   4.356 -0.1062 -0.4076 -0.0384
27371W        W43505  10.388   3.431   0.890 -0.2909 -0.3233 -0.0560
27372W        W43506   6.560  18.439  14.907  0.1228  0.1043  0.5572
27373W        W43507   0.888  17.392   4.575 -0.0705  0.0739  0.1572
27374W        W43508   4.880  14.399  15.566 -0.2359  0.2634 -0.0386
27375W        W43509  12.901  10.493  12.511  0.0324 -0.2666 -0.0130
27376W        W43510   2.828  14.422  12.862 -0.2756  0.3848 -0.5107
27377W        W43511  15.682  10.365   4.570  0.2544  0.0119 -0.1630
27378W        W43512  17.463   9.415  14.614 -0.0667 -0.1364 -0.3509
27379W        W43513  17.076  16.333  14.917  0.1028  0.1459  0.0509
27380W        W43514  14.935  15.913  11.942  0.0988  0.1568  0.0995
27381W        W43515   7.067   7.192  11.980 -0.2730  0.3098  0.2750
27382W        W43516   1.825   9.454  12.803 -0.3472  0.0670 -0.2391
27383W        W43517  12.140   7.558  15.492  0.2774  0.0929  0.0985
27384W        W43518   8.907   8.733  11.867  0.1544 -0.1150 -0.0228
27385W        W43519  11.376  10.464   3.371  0.0295 -0.0974 -0.1186
27386W        W43520   0.493   7.494  13.952  0.0631  0.1012 -0.1228
27387W        W43521  13.790   5.927  15.099  0.1490 -0.4101  0.0276
27388W        W43522  11.236   8.364   4.752 -0.1105  0.2974 -0.2398
27389W        W43523   4.229   8.375  14.708  0.0223 -0.1893  0.0452
27390W        W43524  12.077   2.814  11.871 -0.0847 -0.0493 -0.0943
27391W        W43525  11.892   4.476   3.991 -0.0020  0.0042 -0.1736
27392W        W43526  10.086  14.758   5.123  0.1122 -0.0508  0.1471
27393W        W43527   7.715   7.150  14.904 -0.0631 -0.1680 -0.0495
27394W        W43528   9.490   0.487   3.617  0.4273  0.0495 -0.0462
27395W        W43529   3.749   5.098  13.272 -0.1992 -0.0756 -0.2766
27396W        W43530  17.975   1.581   3.418 -0.1599 -0.0868 -0.3171
27397W        W43531   6.984   7.643  12.882 -0.1848  0.2229 -0.0512
27398W        W43532   3.627  16.488   5.389  0.1598 -0.1101 -0.1769
27399W        W43533   2.343  16.397  13.840  0.1961  0.1917 -0.1056
27400W        W43534  13.467  14.984  15.325 -0.0343  0.0059 -0.2956
27401W        W43535  12.686   8.382  14.900  0.0787 -0.0093  0.0643
27402W        W43536  12.069   7.993   5.409 -0.2534 -0.1795  0.2232
27403W        W43537  17.454   3.534  10.236  0.1061 -0.0331 -0.1700
27404W        W43538  13.277  13.269   4.752 -0.0615  0.2728 -0.0461
27405W        W43539  12.534  12.102  12.357  0.1861  0.2523 -0.0796
27406W        W43540   2.062   4.490   1.727  0.0347 -0.0137  0.1533
27407W        W43541   6.969   9.322  15.348 -0.5136 -0.1383  0.0497
27408W        W43542  12.193  17.056  15.167  0.0408 -0.3490 -0.3456
27409W        W43543   8.857  13.581   3.026  0.2634 -0.0776 -0.0670
27410W        W43544   2.060  14.841  12.762  0.1613 -0.2590  0.0850
27411W        W43545  11.744   1.316  13.424 -0.1786 -0.0790  0.0822
27412W        W43546   1.083   8.875   0.947 -0.0950 -0.1129  0.0670
27413W        W43547   1.650  11.137  11.102 -0.0636  0.1879 -0.0123
27414W        W43548   7.939   3.163  13.620 -0.1078  0.0945  0.2561
27415W        W43549  12.554  16.167  14.936  0.0232  0.1763 -0.1584
27416W        W43550  11.183   1.924   0.258 -0.0664 -0.0268 -0.0790
27417W        W43551  16.823  12.999   3.730  0.0965 -0.2538  0.0096
27418W        W43552  14.168  13.362   3.827 -0.0476  0.2327  0.0894
27419W        W43553   1.384   2.250  12.296  0.1473 -0.0771 -0.0714
27420W        W43554  15.010  11.259   3.149  0.0102 -0.1185  0.1386
27421W        W43555  15.837  16.149   2.154  0.1189 -0.0999  0.0155
27422W        W43556   9.073   1.023   5.273  0.1048 -0.1183  0.1720
27423W        W43557   2.139   2.599  13.270  0.0451 -0.2148 -0.0049
27424W        W43558   9.110  18.005  15.479  0.2491  0.1479  0.0739
27425W        W43559   2.917  11.051   0.629  0.1654  0.0178  0.1903
27426W        W43560   1.568  13.318  13.529  0.2054 -0.0056 -0.0221
27427W        W43561   1.982  15.159   5.141 -0.1690 -0.1394 -0.0685
27428W        W43562  15.958  14.278   0.550 -0.3417 -0.1105  0.0260
27429W        W43563  10.440  10.178  14.820 -0.1845  0.0928 -0.0698
27430W        W43564  14.507  16.168   4.331  0.3034  0.2727  0.1787
27431W        W43565   6.932  11.971   4.868 -0.0326  0.1973 -0.2258
27432W        W43566   0.455  16.361  15.675  0.4168 -0.0044  0.0331
27433W        W43567   7.726   2.293  15.906 -0.4159 -0.0000  0.1997
27434W        W43568  14.044   5.475  11.302  0.1420  0.0948 -0.2446
27435W        W43569  13.583  18.171   1.144 -0.0777  0.2760  0.1913
27436W        W43570  16.101  15.439   3.042  0.1747 -0.1018  0.2152
27437W        W43571   9.344  15.004   4.454  0.1518  0.1026  0.0613
27438W        W43572  13.514  13.722   2.243 -0.2916  0.1616  0.1240
27439W        W43573   5.895  18.372   4.128 -0.1297 -0.0284 -0.1696
27440W        W43574   8.441   2.520  14.982  0.2191  0.0581  0.3737
27441W        W43575   1.600   1.649   3.997  0.2217  0.1181 -0.0990
27442W        W43576  10.494  16.624  15.789  0.4148 -0.2095 -0.2985
27443W        W43577   0.392   1.810  12.539  0.1959 -0.1109  0.0916
27444W        W43578   5.056  10.316  14.977  0.0507  0.0309 -0.1808
27445W        W43579  15.869  17.650   0.555  0.0305 -0.1213  0.0500
27446W        W43580   6.646   8.482   3.193  0.1114 -0.1075 -0.0165
27447W        W43581   3.167   0.104   1.989 -0.1971 -0.0452 -0.0618
27448W        W43582   8.040  12.816  13.155  0.0260  0.0160  0.3892
27449W        W43583   3.514   5.632  14.536  0.4229 -0.0027 -0.2706
27450W        W43584  11.542  15.200  11.205 -0.0927 -0.1857  0.2375
27451W        W43585   2.544   0.930  12.348  0.0723  0.4162  0.0039
27452W        W43586   4.916   1.362   0.534  0.2131  0.2626  0.3429
27453W        W43587   0.148   7.423   3.518 -0.1920  0.1428 -0.3407
27454W        W43588  12.277   9.564  15.635  0.0129 -0.1507 -0.2438
27455W        W43589   1.196  15.937  14.081  0.0171  0.1537 -0.2346
27456W        W43590  15.547   2.389  14.513  0.1447 -0.0244 -0.3061
27457W        W43591   8.571  13.710   0.505 -0.1550 -0.1714  0.1210
27458W        W43592  12.118  11.260  10.130 -0.2649  0.1278  0.0164
27459W        W43593   1.638  14.400  11.033 -0.0703  0.1004  0.0211
27460W        W43594   5.614   9.902   0.764  0.0789  0.4537  0.1825
27461W        W43595  16.541  14.878   4.275  0.0443  0.1919 -0.5144
27462W        W43596   9.081  15.311  13.120  0.0101  0.2109  0.0642
27463W        W43597   0.991   1.246   1.306  0.1302  0.1052  0.0213
27464W        W43598  16.748  16.275  11.688 -0.0329  0.0735  0.1583
27465W        W43599   7.724   4.053   3.826 -0.2604  0.2781 -0.1240
27466W        W43600   5.473  11.905  10.218  0.0040 -0.1021 -0.2754
27467W        W43601  15.517  13.710  11.938 -0.2306  0.0067 -0.0699
27468W        W43602   8.024  14.951   1.622  0.1904  0.0688 -0.0137
27469W        W43603  11.009   4.929   3.859 -0.0051 -0.0845 -0.1893
27470W        W43604  14.837  13.474   1.959  0.1425  0.0355 -0.3748
27471W        W43605   8.713   9.501   0.763 -0.0975  0.1675 -0.4425
27472W        W43606   9.445   4.004   1.951  0.1868 -0.0916 -0.3959
27473W        W43607   3.605  16.505   0.294 -0.0618 -0.3503 -0.0362
27474W        W43608   2.565  17.266  12.871  0.2427 -0.1474  0.3465
27475W        W43609   5.305   3.777  10.661  0.1345 -0.2276  0.0226
27476W        W43610   8.735  13.806  14.689  0.0087  0.1203 -0.4301
27477W        W43611  10.922   9.637  14.032  0.0397  0.1074  0.1349
27478W        W43612   7.031  13.212  15.752 -0.1314  0.0403 -0.3159
27479W        W43613   3.552  15.116   4.438  0.2737  0.1260  0.0201
27480W        W43614  18.148   5.670  14.707  0.0945 -0.4509  0.3386
27481W        W43615   4.609  17.682   2.289  0.3175  0.1616  0.3155
27482W        W43616   8.248   7.300  13.774 -0.0431  0.1741  0.2800
27483W        W43617  16.553   4.128   3.043  0.0149 -0.0940  0.2365
27484W        W43618   0.676  14.449  13.214  0.2719 -0.2475  0.0933
27485W        W43619   2.676   0.150  11.749  0.2480  0.2248 -0.1412
27486W        W43620   6.168   1.290   5.632 -0.1475  0.1150 -0.0274
27487W        W43621   2.702   1.674   1.018  0.3976 -0.1226 -0.1017
27488W        W43622   8.292  15.648  11.356  0.0042 -0.4855 -0.2026
27489W        W43623   2.462  12.459   2.396  0.1927 -0.0239 -0.0859
27490W        W43624   5.550  13.838   0.485  0.2620  0.3339  0.2067
27491W        W43625   7.858  12.685  14.604 -0.0171 -0.0081 -0.0475
27492W        W43626   7.915  11.755  15.852 -0.2091 -0.0210  0.2288
27493W        W43627   2.708  10.246   4.952 -0.0034  0.2143  0.1168
27494W        W43628   4.904   2.555   1.320  0.0593  0.1648  0.1746
27495W        W43629  18.332   6.608  10.999 -0.2263  0.0817  0.2236
27496W        W43630  17.422   6.699   0.365 -0.1421 -0.0143 -0.0418
27497W        W43631   6.975   0.092   2.828  0.2285  0.1123  0.3927
27498W        W43632  13.617  14.560   3.974 -0.1523 -0.3891 -0.3223
27499W        W43633   7.436   2.504   2.166  0.0508 -0.1363  0.0827
27500W        W43634   1.826  13.312  11.285  0.0330 -0.1926 -0.1336
27501W        W43635   4.517  18.201   4.574  0.0061  0.0514 -0.0904
27502W        W43636   5.513   0.874  14.191 -0.3018 -0.0665  0.1310
27503W        W43637  14.709  15.714  12.352  0.1212  0.1412 -0.4414
27504W        W43638  12.341  18.011   5.126 -0.3423  0.0521  0.0874
27505W        W43639  17.683   6.397   0.028  0.1237 -0.1448 -0.1931
27506W        W43640  10.578   2.842   1.821 -0.3622  0.1515  0.2495
27507W        W43641   7.693   4.476  11.045  0.3255 -0.0171  0.0360
27508W        W43642   1.166   9.644  13.264 -0.0425 -0.1787 -0.2133
27509W        W43643  11.230  13.590  13.256 -0.1370  0.1934  0.0093
27510W        W43644  13.060   2.657  13.837  0.1247  0.0477 -0.2406
27511W        W43645  17.801  12.642  11.470 -0.3236  0.0393  0.1194
27512W        W43646   1.207  18.140   3.795  0.1556  0.0682  0.2440
27513W        W43647   3.558  17.154  14.018  0.2929 -0.1109 -0.0732
27514W        W43648   0.972  10.561   0.870  0.0861  0.2040  0.2593
27515W        W43649  10.544   1.324   4.905 -0.0311  0.1362  0.2532
27516W        W43650   9.628   3.880   3.179 -0.2056  0.3905 -0.0761
27517W        W43651  11.081   2.660  13.623 -0.3741  0.1105 -0.0413
27518W        W43652   4.855   9.591   2.851  0.2426  0.1806 -0.0350
27519W        W43653   5.965  11.354   1.799 -0.0922 -0.2724 -0.0135
27520W        W43654   2.966   1.345  15.704  0.1895 -0.0133 -0.4122
27521W        W43655   7.614   6.921   3.506  0.0626 -0.2415  0.0412
27522W        W43656  12.486   9.063   1.051  0.0076  0.1108 -0.0050
27523W        W43657   8.780   1.457   0.480  0.4249  0.0261  0.3900
27524W        W43658   7.587  12.571  12.818 -0.0033  0.0178 -0.1047
27525W        W43659   0.657  14.736   2.171  0.0525  0.1194 -0.1508
27526W        W43660   1.127  17.119  15.701 -0.2199  0.1565 -0.0250
27527W        W43661  13.717   1.386   5.023 -0.0740  0.0378 -0.0444
27528W        W43662   5.583   7.293   3.161 -0.1536 -0.0123  0.0502
27529W        W43663   1.780   1.699  14.416  0.2479 -0.3082 -0.2599
27530W        W43664   1.129   3.070   4.462  0.0185  0.2859  0.1724
27531W        W43665   5.681   4.819  11.412 -0.0376  0.0141 -0.2329
27532W        W43666  13.150   6.423  15.479  0.0273  0.0587  0.0676
27533W        W43667   1.729  15.401  14.451  0.2583 -0.0516  0.1383
27534W        W43668   2.567   4.591  13.461 -0.0344 -0.1418  0.1257
27535W        W43669  12.327   7.788  13.519 -0.2107 -0.0152  0.0766
27536W        W43670  17.608   0.774  15.280  0.0921 -0.1565  0.0453
27537W        W43671   4.772  11.291   1.009 -0.3296 -0.2421 -0.0547
27538W        W43672   8.918   7.683   3.790  0.0614  0.1198  0.0343
27539W        W43673   3.621  12.240   2.379  0.3102 -0.0242 -0.0285
27540W        W43674   5.065  11.737   4.554  0.2116 -0.1546  0.2195
27541W        W43675   6.224   8.054   2.375 -0.3047  0.1606 -0.1594
27542W        W43676   1.060   1.508   0.252 -0.1743 -0.2096  0.0284
27543W        W43677  10.438  11.431   1.196 -0.1179  0.0292 -0.3603
27544W        W43678   6.825   0.046   1.373  0.0759  0.0289 -0.0743
27545W        W43679  16.885  18.037   4.318  0.0526  0.2255  0.1012
27546W        W43680   6.294   2.304  14.291 -0.1678 -0.0462 -0.0945
27547W        W43681   8.515   4.898  13.661  0.0902  0.2660 -0.0059
27548W        W43682   6.415  12.692   3.075 -0.2154  0.2597 -0.2858
27549W        W43683   3.618   8.173   0.408 -0.0714 -0.3125  0.2445
27550W        W43684   7.946  13.392  13.979  0.1908 -0.0804 -0.3872
27551W        W43685  12.543  11.229  15.409  0.0845  0.2307  0.2561
27552W        W43686  14.520   2.262   2.255 -0.1217  0.0545 -0.3230
27553W        W43687   3.044  12.370   5.256 -0.4483  0.1527 -0.1308
27554W        W43688  17.203  13.749   1.053 -0.1808  0.0380 -0.0556
27555W        W43689  16.072   5.518   1.722  0.2197  0.0896 -0.1217
27556W        W43690   0.355   1.126   1.920  0.1641  0.0942  0.0686
27557W        W43691   4.023   2.804   1.268 -0.0885 -0.0567 -0.2694
27558W        W43692   5.714   5.382  11.528 -0.1482  0.0510 -0.1408
27559W        W43693   2.334   1.889   1.319 -0.0639  0.0042  0.1169
27560W        W43694  13.949  18.111   2.486 -0.3006 -0.1312  0.2191
27561W        W43695   1.599  10.664   5.199  0.2897  0.0571 -0.1619
27562W        W43696   3.022  10.992  15.685  0.0129  0.0055  0.0028
27563W        W43697   9.496   5.253   4.375  0.0386  0.2131 -0.0230
27564W        W43698  10.191   2.247  12.439 -0.2560 -0.0661  0.0377
27565W        W43699   7.005  10.520  14.451 -0.0647  0.4268 -0.1592
27566W        W43700  17.437  16.634   3.399  0.0142 -0.0634  0.4386
27567W        W43701  17.546  11.143   1.005 -0.1431 -0.1071  0.1538
27568W        W43702  13.931  11.991  13.533 -0.0109  0.2477  0.3890
27569W        W43703  17.040   5.327  12.894 -0.3097 -0.3398  0.2932
27570W        W43704  11.871  14.734   0.297 -0.2149 -0.2123  0.0277
27571W        W43705  17.790   8.900   2.937 -0.2087  0.0266 -0.0730
27572W        W43706   9.679  13.045  14.422 -0.2209  0.0054 -0.0941
27573W        W43707   9.305  16.932  14.070 -0.0052  0.1746 -0.1752
27574W        W43708  13.974  14.570   0.692 -0.2684  0.0532 -0.1103
27575W        W43709  16.326  14.505   4.611 -0.1452 -0.2714 -0.0391
27576W        W43710   4.544  16.472   0.361  0.0799 -0.0594  0.0357
27577W        W43711  17.298   2.839  14.471  0.0201  0.2026  0.0543
27578W        W43712  15.712   2.861  12.503 -0.1727 -0.1236  0.0624
27579W        W43713  14.917   7.279   0.434  0.2221  0.0611 -0.3292
27580W        W43714  17.497  14.232   4.352  0.1004 -0.1961 -0.1604
27581W        W43715   1.059  12.728   2.298  0.0185  0.0605  0.1397
27582W        W43716   9.263   4.074   0.251 -0.0289  0.2487  0.1046
27583W        W43717  13.940  16.322   3.882  0.1353 -0.0881  0.2705
27584W        W43718   1.462  10.655  13.032  0.0385 -0.1260 -0.0300
27585W        W43719   9.443  11.088   5.153 -0.2376 -0.0490  0.0606
27586W        W43720  10.311  15.871   1.698 -0.2095 -0.1011 -0.2526
27587W        W43721   6.957   0.513   1.217 -0.1737  0.1911  0.2159
27588W        W43722  11.940  15.420  13.603 -0.3217  0.0996  0.0101
27589W        W43723   6.298  10.935   5.570 -0.0300  0.4448 -0.1197
27590W        W43724  14.540   1.872  12.198 -0.0125 -0.1209 -0.1132
27591W        W43725  12.193  16.532   3.075 -0.1184  0.3424 -0.0433
27592W        W43726  10.671   9.502  14.549  0.2970 -0.0910  0.1248
27593W        W43727  12.272  10.043  12.433  0.4331  0.1810 -0.0528
27594W        W43728  16.537  12.156   1.857  0.0505 -0.2412 -0.1593
27595W        W43729  15.296   0.176  13.437 -0.0545  0.1520 -0.1644
27596W        W43730   6.072  18.319   2.822  0.0157 -0.0799 -0.0247
27597W        W43731  17.085  12.312  14.268 -0.0961  0.0797 -0.1466
27598W        W43732  12.896   9.319   1.749  0.1480 -0.3779 -0.2143
27599W        W43733  14.229   6.533   1.499  0.0765  0.3439  0.0796
27600W        W43734   6.765  14.516  15.430  0.2094  0.3720 -0.0089
27601W        W43735   7.308   9.950   1.139 -0.2604 -0.0351  0.0562
27602W        W43736   8.358   6.251   0.165 -0.2678 -0.1108 -0.5050
27603W        W43737   7.754  17.101   0.370  0.1736 -0.0639  0.0977
27604W        W43738  14.226   6.735  15.189  0.1158 -0.2427  0.1429
27605W        W43739   1.527  16.140   0.857  0.1804 -0.0505 -0.2080
27606W        W43740   3.493  14.452   4.952  0.1725 -0.1080  0.1539
27607W        W43741  14.083  17.534  14.111 -0.1112  0.0203 -0.1484
27608W        W43742  17.924  13.071  11.704 -0.3244  0.0149 -0.1474
27609W        W43743  13.001   2.401   1.350  0.0181  0.1142  0.1645
27610W        W43744  12.248   0.027   4.998 -0.1661  0.0147  0.0628
27611W        W43745  17.709  14.631  15.677 -0.0335  0.0422  0.1500
27612W        W43746   3.722  17.946   5.846  0.1246  0.1253 -0.2321
27613W        W43747  17.777   2.717  14.648  0.1736  0.0299 -0.0095
27614W        W43748  12.205   0.146   4.080  0.3812 -0.1537  0.0681
27615W        W43749   3.315  12.178  11.825  0.3279 -0.2257  0.0728
27616W        W43750   2.755   1.653  15.340 -0.0718  0.2082 -0.0782
27617W        W43751   9.989   5.666   1.035  0.1901  0.2856 -0.0581
27618W        W43752  11.959   7.342  12.358  0.1387 -0.1185 -0.0079
27619W        W43753   8.150   9.652  13.068  0.0771 -0.2057 -0.1411
27620W        W43754  15.899  15.057   0.442  0.1777 -0.1185  0.0592
27621W        W43755   3.869  11.895  10.815  0.1673 -0.2903  0.2370
27622W        W43756  15.042  16.671   2.781 -0.0510 -0.2862  0.1005
27623W        W43757  13.910  17.564  11.645  0.0107 -0.0708  0.0002
27624W        W43758  11.379   7.777  11.641  0.1402 -0.4242  0.0266
27625W        W43759   3.048   0.383  14.575  0.0890  0.1747  0.0983
27626W        W43760  16.714  14.991  11.538 -0.2888  0.1047 -0.0963
27627W        W43761   2.964  15.982   3.369 -0.1788 -0.0796 -0.2435
27628W        W43762   0.538   7.337   4.687 -0.2394 -0.0066 -0.4018
27629W        W43763   5.165   8.004   3.734 -0.1891  0.1235  0.0150
27630W        W43764  13.917   4.127   3.002  0.1033 -0.1067  0.2154
27631W        W43765  14.991   4.205   1.244 -0.1674 -0.2313 -0.1372
27632W        W43766   3.986  18.168   1.981 -0.0081  0.2144  0.3726
27633W        W43767  10.414   4.179   2.764 -0.0989 -0.0819  0.0729
27634W        W43768   0.332  17.903  11.942  0.3338  0.2153  0.0701
27635W        W43769  11.232   9.818   4.528 -0.1595  0.1462  0.3150
27636W        W43770  14.270  10.162  14.256 -0.1065  0.1319 -0.0112
27637W        W43771   1.518   7.320  14.558 -0.1904  0.1752 -0.0786
27638W        W43772   5.801  17.564  13.062  0.0477  0.0071  0.0817
27639W        W43773  12.948  14.785  12.836  0.1780 -0.0613  0.2015
27640W        W43774  15.128  13.837  14.082 -0.0863  0.1844  0.2551
27641W        W43775  17.112   2.121   0.732  0.1594  0.1839 -0.0431
27642W        W43776   1.415  10.011  11.472 -0.3571 -0.0347  0.1243
27643W        W43777   6.530   1.259  13.250  0.0425 -0.0042 -0.0845
27644W        W43778   8.857  10.356  14.051 -0.1438  0.0360  0.1667
27645W        W43779  14.103  15.824  13.683  0.1458  0.0141 -0.0969
27646W        W43780  17.121   8.985  13.992  0.0655  0.0125  0.0241
27647W        W43781  11.672   3.513   2.130  0.1017  0.3121 -0.4425
27648W        W43782   1.645   8.294   4.091  0.3342  0.0189  0.4009
27649W        W43783   6.165   4.421  13.085 -0.0947 -0.1563 -0.2460
27650W        W43784  13.621  14.854  11.297 -0.0955 -0.1482  0.3173
27651W        W43785  16.336   8.919  15.636  0.4404 -0.2906  0.0476
27652W        W43786  12.586  10.009   1.972 -0.0609 -0.0038  0.0286
27653W        W43787  17.031  12.394   3.719 -0.0847  0.0791  0.1245
27654W        W43788  16.213  10.285   0.713  0.2108  0.0192  0.1762
27655W        W43789   6.963   1.601   2.855  0.0550  0.1225  0.1173
27656W        W43790  10.451  13.722  13.736 -0.0101 -0.1401  0.0261
27657W        W43791  11.106  12.801  14.557  0.0132  0.2374  0.0147
27658W        W43792   7.897  15.356   1.222 -0.1778 -0.2953 -0.2261
27659W        W43793  14.783   5.016  15.567 -0.1229  0.2071 -0.0250
27660W        W43794   5.360  13.034   4.312 -0.0903  0.0612  0.0733
27661W        W43795   6.042  16.215   1.962  0.0622  0.1079 -0.1971
27662W        W43796   0.164   1.572   1.696 -0.1970 -0.0711  0.2260
27663W        W43797   5.044   9.098  15.868  0.4527  0.4566  0.0972
27664W        W43798   8.869   9.203   2.119 -0.2038 -0.0033 -0.0236
27665W        W43799   2.628  10.406  12.722 -0.1042 -0.1295  0.2086
27666W        W43800   8.254  13.159   2.546  0.0530  0.0411 -0.2311
27667W        W43801  15.973   3.260  12.311  0.5778  0.3187  0.1350
27668W        W43802  10.688  14.753   0.592  0.2830 -0.0243  0.0478
27669W        W43803   0.816   1.120   2.265 -0.4339 -0.1245 -0.2704
27670W        W43804   9.191   2.797  11.643  0.3314  0.2356 -0.0807
27671W        W43805   2.480   0.735  15.157 -0.1213 -0.1344 -0.1722
27672W        W43806  18.424   4.866   1.574 -0.3436 -0.0833 -0.0390
27673W        W43807  14.217   8.554  14.235  0.0613 -0.0971 -0.3961
27674W        W43808  14.840  11.250  11.647  0.0639 -0.0261 -0.1129
27675W        W43809   6.775  14.866   2.089  0.2283 -0.2459  0.1058
27676W        W43810  15.623  10.854  11.336  0.0174 -0.0219  0.3985
27677W        W43811  12.709   7.216   2.803  0.0918  0.0866  0.1739
27678W        W43812  17.303   1.718   0.450 -0.0685 -0.1982  0.0642
27679W        W43813   9.351   9.522  12.132  0.0954 -0.2449 -0.1431
27680W        W43814  13.232   9.269   5.363  0.0789 -0.2582  0.1116
27681W        W43815  12.029  13.264   0.502  0.0780  0.0824  0.2181
27682W        W43816   7.320   1.438   1.099  0.1023 -0.1260 -0.2067
27683W        W43817  17.993   7.121   4.542 -0.0217 -0.0449 -0.2738
27684W        W43818   4.659   2.124  15.339  0.0125  0.1163 -0.1920
27685W        W43819  16.402   3.441  14.848 -0.1222 -0.0875 -0.1758
27686W        W43820   7.511  15.365  13.238 -0.2924 -0.0629  0.0067
27687W        W43821   2.290   8.707  13.099 -0.4732 -0.1113  0.2595
27688W        W43822   2.707  16.559   4.331  0.1394 -0.1817  0.0415
27689W        W43823  10.871  13.973   4.184 -0.1503  0.2285  0.2799
27690W        W43824  16.077   9.777   0.178 -0.2363  0.2748 -0.0666
27691W        W43825  13.625   3.723   1.097  0.0451 -0.2495 -0.1472
27692W        W43826  10.661  10.208   1.985  0.2582  0.0200  0.0109
27693W        W43827  18.347  13.129  15.053  0.0417  0.0198  0.0769
27694W        W43828  12.159  14.306  15.105  0.1981 -0.2829 -0.0417
27695W        W43829   7.634   7.806  12.729 -0.0664  0.0206  0.2983
27696W        W43830   5.028   1.384   3.821  0.0832 -0.2837 -0.2858
27697W        W43831  12.266   2.986   4.394  0.1640 -0.3085  0.3880
27698W        W43832  11.186  11.479   5.332  0.1040 -0.1528  0.2324
27699W        W43833   8.036   4.838  13.769  0.0666  0.0926 -0.0412
27700W        W43834  10.897   8.603   2.600 -0.0017  0.1920 -0.1122
27701W        W43835   4.607  10.012   5.255 -0.3467  0.0665 -0.4061
27702W        W43836   5.240   4.894  10.445 -0.2453 -0.1156 -0.2298
27703W        W43837  12.024  11.256   3.520 -0.0834  0.0575 -0.2325
27704W        W43838   3.087   3.945  13.548 -0.1074  0.0212  0.1969
27705W        W43839  17.317   8.482   5.045 -0.3583  0.1843 -0.1623
27706W        W43840  10.368   6.710   0.102  0.3451 -0.1422  0.0471
27707W        W43841   0.707   7.714   5.052 -0.1881  0.4572  0.0090
27708W        W43842   3.159   4.856  14.043 -0.0352  0.0586 -0.1950
27709W        W43843   3.456  17.915  15.811  0.0230  0.2672  0.0887
27710W        W43844   1.414   6.514   9.648 -0.2679  0.2655  0.0886
27711W        W43845  15.747   1.935  14.620  0.1729 -0.1451 -0.1527
27712W        W43846  16.497   2.536  10.927  0.1148 -0.0704 -0.2065
27713W        W43847  18.290   4.562  12.539  0.0754 -0.0797 -0.0713
27714W        W43848  11.359   1.888  12.015 -0.0192  0.0288  0.1979
27715W        W43849   5.130  17.266   2.452  0.0725 -0.0307 -0.0672
27716W        W43850   9.769  11.279  10.611 -0.1708  0.1773 -0.0238
27717W        W43851  17.399  16.900   3.844  0.2134 -0.2413  0.3080
27718W        W43852   7.661  17.532   5.108 -0.0061  0.0430  0.1487
27719W        W43853   7.160  13.370   4.168  0.4392 -0.1482  0.2263
27720W        W43854  14.304  11.673   0.670  0.2224 -0.0185 -0.2785
27721W        W43855  11.455  11.816   1.142 -0.0609 -0.1109 -0.1615
27722W        W43856   3.000   6.799  11.622  0.0138  0.1224 -0.0107
27723W        W43857   7.928   7.322   2.649 -0.2418  0.0342 -0.3248
27724W        W43858   0.757   7.963  15.327 -0.2830  0.2629  0.0958
27725W        W43859   2.767   3.043   3.834  0.0563  0.1931  0.2098
27726W        W43860   2.469   2.972   9.919  0.1810 -0.1761  0.1449
27727W        W43861  11.766   8.203  12.541 -0.2359  0.2427  0.1552
27728W        W43862   4.760   3.701  13.466  0.0844 -0.0330 -0.0788
27729W        W43863   3.481   4.882  14.789  0.4554 -0.1852 -0.0650
27730W        W43864   6.929   8.304  10.900  0.1032  0.0229  0.1327
27731W        W43865  15.428   1.731   2.210 -0.2051  0.0931 -0.1017
27732W        W43866   8.757   8.659  14.960 -0.0446 -0.1414 -0.2935
27733W        W43867   9.090  18.352   1.775 -0.1264 -0.2198 -0.2025
27734W        W43868   5.429   1.117   4.521 -0.0395 -0.1437  0.2712
27735W        W43869   9.169   1.377  11.898  0.0869 -0.1774  0.1049
27736W        W43870  13.848   7.571  11.826  0.0276  0.1030  0.0344
27737W        W43871   7.335   5.212   3.884  0.1902 -0.0126  0.2507
27738W        W43872  12.610   5.772  14.630  0.4081  0.1851  0.0380
27739W        W43873   5.160   1.627  12.338 -0.1514 -0.1893 -0.3559
27740W        W43874  10.107  12.376   5.162 -0.4241 -0.0595  0.0694
27741W        W43875   2.977   9.076   0.009 -0.0457  0.2012  0.2293
27742W        W43876   4.726   9.686  15.805 -0.3746 -0.0318  0.1009
27743W        W43877   9.573   1.510   2.597 -0.1674  0.0066 -0.2239
27744W        W43878   6.920   9.986   0.288  0.1919  0.1378 -0.0447
27745W        W43879   6.081   9.498   2.346  0.1025  0.0546  0.0157
27746W        W43880  11.517  15.346   2.372  0.1219  0.0869 -0.0037
27747W        W43881   2.372   9.667  12.012 -0.3596 -0.0240  0.2749
27748W        W43882   4.683   6.225  10.059  0.2076 -0.1634  0.1264
27749W        W43883   4.766  17.425   5.050 -0.1181 -0.0143 -0.1103
27750W        W43884   0.463   3.646  15.671 -0.0364  0.2002 -0.0538
27751W        W43885  11.505   8.849  15.797  0.1226  0.2971 -0.3080
27752W        W43886   6.021   5.875   3.338  0.0953  0.0920  0.1725
27753W        W43887  17.258  11.114   5.196 -0.2358  0.1121 -0.3158
27754W        W43888  13.950  14.735   1.212 -0.1223 -0.1193  0.2952
27755W        W43889  16.904  17.578   0.121  0.0090  0.3960  0.3917
27756W        W43890   6.140  12.139   4.246  0.0566 -0.0354  0.1696
27757W        W43891   4.587   6.179   1.786  0.1790 -0.1901  0.0469
27758W        W43892   9.850   9.788  14.245  0.0925  0.2515 -0.3997
27759W        W43893  12.227   4.495  15.232  0.0910  0.4317  0.1401
27760W        W43894   6.834   7.675  12.252 -0.2995  0.0707  0.2194
27761W        W43895  18.236   6.617   1.105 -0.1396  0.1807  0.4484
27762W        W43896   8.952  10.849   4.994 -0.1488  0.0294 -0.0218
27763W        W43897   8.372  13.383   1.909  0.1018  0.1034  0.1773
27764W        W43898   8.797   6.851   3.494  0.2316 -0.3068 -0.1471
27765W        W43899   4.795  14.730  11.664 -0.1161 -0.3040 -0.1063
27766W        W43900   2.904  17.830   2.321 -0.0819  0.1145  0.2885
27767W        W43901   9.021   9.212   4.698 -0.0569  0.4442 -0.2528
27768W        W43902   4.262   8.383  13.930 -0.1759  0.0513  0.0709
27769W        W43903  14.289   7.679  15.375  0.1680  0.0945  0.0961
27770W        W43904   3.018  12.868   1.112 -0.0101  0.0267 -0.0365
27771W        W43905  12.982  15.311   2.590  0.1641 -0.0670  0.0510
27772W        W43906   9.695  10.671   2.658 -0.1823  0.2592 -0.2055
27773W        W43907  14.220   0.117   5.343  0.1447 -0.1360  0.1449
27774W        W43908   9.204   7.089   4.721 -0.0441  0.0425  0.3885
27775W        W43909   7.711  17.348   3.317  0.0075 -0.4064 -0.0162
27776W        W43910   7.483  13.193   4.947 -0.1271  0.0846 -0.0607
27777W        W43911  10.000  16.636   2.937 -0.0070  0.2220 -0.4064
27778W        W43912   3.273  16.289   0.590  0.5574  0.1513 -0.1056
27779W        W43913  12.686  15.096   4.712  0.0216 -0.0562  0.2941
27780W        W43914  11.899  17.351   4.436  0.0629  0.4346 -0.1273
27781W        W43915  17.157   6.118   0.982 -0.0890 -0.0224  0.2663
27782W        W43916   6.042   5.784   0.309  0.0544 -0.0767 -0.0499
27783W        W43917   1.636   3.702  11.994 -0.0896  0.3930 -0.1169
27784W        W43918  10.997  16.630   5.336 -0.1345  0.1233  0.0537
27785W        W43919  17.379   2.380  11.208 -0.0199 -0.2393 -0.1086
27786W        W43920   7.205   8.407  11.974  0.1858  0.0648 -0.2358
27787W        W43921   6.949   4.154  13.863  0.1060 -0.1522  0.2399
27788W        W43922  10.909   5.779  14.220  0.2497  0.0143 -0.2043
27789W        W43923   7.681   5.147  13.544 -0.0080 -0.0115  0.0716
27790W        W43924   8.932  10.659  15.784 -0.3133  0.0464 -0.0521
27791W        W43925   0.204  16.894   4.241  0.2211  0.0729 -0.0493
27792W        W43926  10.707  17.539  11.576 -0.0361 -0.1789  0.1120
27793W        W43927  12.991   7.967  12.021  0.1091 -0.2441  0.0495
27794W        W43928   8.820  15.755   0.515  0.0820 -0.0640  0.1165
27795W        W43929   0.151  13.763   2.551  0.2779  0.2276 -0.1229
27796W        W43930   3.603   2.036   4.059 -0.0666 -0.2561  0.1721
27797W        W43931  12.272  18.077  12.842  0.2533  0.0652 -0.0991
27798W        W43932   7.325   0.235   1.575 -0.1615 -0.1002  0.1619
27799W        W43933   0.959   3.366   0.542 -0.2621 -0.3019  0.0508
27800W        W43934   4.686   8.822   0.603 -0.0171  0.0558 -0.4224
27801W        W43935   1.959  13.990   1.972 -0.2518 -0.2500  0.0417
27802W        W43936   1.153   1.040  13.488 -0.1234 -0.3343 -0.1894
27803W        W43937  14.297   7.925  13.777  0.2899  0.1096  0.0739
27804W        W43938   9.748   8.323   2.895  0.0505 -0.0406 -0.0196
27805W        W43939   3.274  15.288  11.869 -0.0872 -0.2012  0.0924
27806W        W43940   7.636   6.965  11.904  0.1920 -0.1049 -0.3637
27807W        W43941  17.875   3.183  12.276 -0.0121  0.2212  0.0491
27808W        W43942  14.051   5.896  11.586  0.0606 -0.1370  0.1395
27809W        W43943  18.296  13.759  10.615 -0.5609  0.2149  0.2987
27810W        W43944   3.025   7.515   3.615  0.1904  0.0074 -0.0427
27811W        W43945   6.879  16.668   2.324  0.0546  0.1173 -0.0783
27812W        W43946  16.960   6.937   0.490 -0.0594 -0.0215  0.1984
27813W        W43947   1.940   9.599  11.251 -0.2010  0.1781  0.0126
27814W        W43948  10.195  11.529  15.751 -0.0891 -0.1283  0.1451
27815W        W43949  11.570   0.296  13.427  0.1895  0.2213 -0.0863
27816W        W43950   4.053   4.240  14.402 -0.0194 -0.1995 -0.1492
27817W        W43951  10.567   2.635  14.247  0.0275  0.0277  0.2030
27818W        W43952   7.945   0.723  14.190  0.3425  0.0482  0.0585
27819W        W43953  15.756   8.228  10.455 -0.1729  0.0466  0.1635
27820W        W43954   7.468  14.857  14.940 -0.1344  0.2762 -0.1236
27821W        W43955   7.187   1.253  14.193 -0.2538  0.1833  0.0043
27822W        W43956   9.548   1.511  11.559  0.0014  0.0323  0.0188
27823W        W43957   7.380   7.971   5.474 -0.1273  0.1838  0.1132
27824W        W43958  11.784  15.766  11.801 -0.1650 -0.2620 -0.0170
27825W        W43959  17.558   5.371   3.983 -0.0110 -0.3433 -0.3114
27826W        W43960   5.953  16.989  13.921  0.1742 -0.0872 -0.1688
27827W        W43961   0.757   1.442   3.117  0.2715 -0.1586 -0.3604
27828W        W43962  10.751   1.220  13.212 -0.2120 -0.1533  0.0720
27829W        W43963   0.689   2.349   0.143 -0.1198  0.2564 -0.0159
27830W        W43964   3.068   3.258  13.769  0.1367 -0.3096 -0.0655
27831W        W43965   3.622   7.183  14.087 -0.0352  0.1548 -0.0312
27832W        W43966  14.472   6.821   4.205 -0.0369  0.2119  0.0285
27833W        W43967  15.787   3.006   5.062 -0.0676 -0.2502  0.1286
27834W        W43968  11.252   6.027   5.136 -0.2804  0.1215  0.0353
27835W        W43969  17.924  18.256  11.775  0.3151  0.0476  0.1812
27836W        W43970   3.476   8.064   5.562 -0.1203  0.2000 -0.0098
27837W        W43971   6.110  15.289   4.810 -0.2485  0.0319 -0.3154
27838W        W43972  14.920  17.407  13.468 -0.1909  0.1614  0.1851
27839W        W43973   5.099  13.779  13.033 -0.1202 -0.0279  0.0868
27840W        W43974  11.674  16.942   1.858  0.4363  0.0614  0.0477
27841W        W43975   9.888   2.196   3.745 -0.1993  0.0625 -0.4116
27842W        W43976   5.445  17.743   3.406  0.0106  0.3394  0.0259
27843W        W43977   5.258   5.751  14.415 -0.0568  0.1484  0.1241
27844W        W43978   3.322   1.041   1.003 -0.0105  0.3323 -0.0842
27845W        W43979  13.927  17.626  13.633  0.3271  0.2268  0.1481
27846W        W43980  10.002  11.347   0.356 -0.0669 -0.3117 -0.0917
27847W        W43981  10.956   9.127  14.281 -0.1034 -0.2158 -0.0892
27848W        W43982   8.221   6.619   2.030  0.1514 -0.0788  0.0359
27849W        W43983   8.468  13.393  14.083  0.0899  0.1151 -0.2961
27850W        W43984   8.856  12.359   1.604 -0.2378  0.1511  0.1334
27851W        W43985   9.923  14.377   0.054 -0.0074  0.0532 -0.0520
27852W        W43986  12.890   4.674   1.567 -0.0710  0.0901 -0.0620
27853W        W43987  16.434  17.213   4.387  0.0018  0.1788 -0.0504
27854W        W43988   2.029   8.733  15.204  0.1243 -0.2241  0.1524
27855W        W43989  15.023  14.490  11.511 -0.0331 -0.0978  0.1544
27856W        W43990  10.154   9.971  13.501  0.0991 -0.1055 -0.3283
27857W        W43991  17.237   8.872  13.460 -0.0886  0.2292 -0.1626
27858W        W43992   6.371  13.145   3.733  0.0002  0.0039 -0.0514
27859W        W43993  11.115  16.260  11.119  0.1760  0.3884 -0.1135
27860W        W43994  14.495  13.553   0.491  0.1557  0.3566 -0.3189
27861W        W43995   7.139   2.345  12.261  0.2268 -0.0760 -0.0137
27862W        W43996   9.133  17.933   5.116 -0.1008  0.4088  0.2058
27863W        W43997  17.711  17.705   3.803  0.2607 -0.0162 -0.0328
27864W        W43998  15.764  17.755  13.230 -0.2616  0.2487  0.0581
27865W        W43999  15.350  13.937   2.534  0.0044  0.0526 -0.3563
27866W        W44000   9.897   5.269  12.763  0.0193 -0.3994  0.2542
27867W        W44001   1.137  11.344   9.862  0.0387 -0.3120 -0.1228
27868W        W44002   2.653  17.939   4.173  0.0146  0.3819 -0.0978
27869W        W44003   0.403   5.843  13.689 -0.2143  0.2022 -0.4537
27870W        W44004  13.842  13.956   1.537 -0.1056  0.1662  0.0662
27871W        W44005   6.443  16.948   0.255 -0.1484 -0.1356  0.3042
27872W        W44006   0.192  16.915  11.560  0.0742  0.1060  0.0070
27873W        W44007   3.710  16.193  13.930  0.0763 -0.0099  0.1133
27874W        W44008  14.738   0.862   3.611 -0.2632  0.1298 -0.0200
27875W        W44009   9.041   4.636   0.553 -0.0908 -0.0965  0.0777
27876W        W44010   4.137   3.538   0.640 -0.0521  0.0397  0.0705
27877W        W44011   4.761   2.623   5.022 -0.0991  0.2842 -0.4292
27878W        W44012  14.223   5.725  15.028 -0.1260 -0.2613  0.1945
27879W        W44013  11.733   2.758  12.201 -0.0198 -0.1622 -0.1541
27880W        W44014   2.903   1.284  12.502 -0.1615  0.1404 -0.2687
27881W        W44015  16.789   9.114  15.165 -0.4088  0.0340 -0.1612
27882W        W44016  17.227   8.459  15.412 -0.2388  0.0312 -0.0153
27883W        W44017  16.153   5.291  13.010 -0.1512 -0.1607 -0.0155
27884W        W44018   4.936  13.747   1.902 -0.1306 -0.2105  0.1735
27885W        W44019  13.071   9.794  11.564 -0.0674 -0.2287  0.1175
27886W        W44020   1.002  16.333  13.681 -0.0520  0.1933 -0.1958
27887W        W44021  12.971  13.037   0.051 -0.0109 -0.2361  0.0112
27888W        W44022  11.680   8.630   0.669 -0.1622  0.2419 -0.2030
27889W        W44023   4.926   5.984  12.950  0.1539  0.0775  0.0144
27890W        W44024  17.522  14.496  10.930  0.0182 -0.4277  0.0639
27891W        W44025  11.706  13.934   2.253  0.2459  0.0779 -0.2922
27892W        W44026  15.024  13.742   4.081 -0.0677  0.1165 -0.1024
27893W        W44027   7.472   2.117  15.051  0.1031  0.0762 -0.0895
27894W        W44028   5.724   8.158   1.651 -0.2109 -0.0936  0.3918
27895W        W44029  11.885   9.916   5.575 -0.0197  0.0275  0.2416
27896W        W44030  16.895  11.430   3.739 -0.3070  0.0221 -0.3446
27897W        W44031  11.190  17.748  14.106  0.0303 -0.0199 -0.0863
27898W        W44032   3.731   2.077  14.954  0.1530  0.1366  0.1421
27899W        W44033  13.302  16.124  13.275  0.0789  0.1893  0.0302
27900W        W44034   2.587   9.522   4.479  0.2085  0.2301  0.0815
27901W        W44035   9.538  15.498   2.615  0.1539 -0.1423  0.3172
27902W        W44036   2.377   2.613   1.933 -0.2834  0.1093  0.1491
27903W        W44037   2.583  11.813  14.730 -0.5453 -0.1230  0.5323
27904W        W44038  17.749   6.755  12.097  0.1356 -0.0841  0.2439
27905W        W44039  11.815  14.476   4.130  0.0126 -0.0495 -0.1466
27906W        W44040   2.597   8.579  11.780 -0.2972  0.0018 -0.1486
27907W        W44041   6.123  13.346   1.093  0.1226  0.0551  0.0940
27908W        W44042   5.257   9.652  11.556  0.0992 -0.1066 -0.0564
27909W        W44043  12.991   5.993   0.341  0.0729 -0.0827  0.1224
27910W        W44044   5.786   8.387   2.587  0.1885  0.0340 -0.0220
27911W        W44045  16.450   0.971  11.499 -0.1365 -0.0971  0.3831
27912W        W44046  10.277   1.027  13.077 -0.2234 -0.0055  0.1678
27913W        W44047  13.845   5.901   0.887  0.1191  0.1582 -0.1976
27914W        W44048  14.695   4.822  11.145 -0.4434  0.3131 -0.2683
27915W        W44049  10.420   6.395   4.982  0.2985 -0.0128 -0.0981
27916W        W44050   9.233   7.013   4.218  0.1364 -0.1123  0.2441
27917W        W44051  15.113  16.238   2.561 -0.0100  0.1555 -0.0247
27918W        W44052   8.234  17.871   1.376  0.2769 -0.1923 -0.2509
27919W        W44053  17.542   9.194   3.950  0.0846 -0.2098 -0.1124
27920W        W44054  15.822  15.182  15.245  0.1053  0.4477 -0.1548
27921W        W44055   1.180  15.154   2.232 -0.0737 -0.2053  0.1109
27922W        W44056  15.021  14.427   0.143  0.0575 -0.1391 -0.0410
27923W        W44057   8.772   9.503   2.533 -0.1049  0.0037  0.0625
27924W        W44058   8.150   2.746   5.005 -0.0759 -0.2808  0.0482
27925W        W44059   0.064   7.924   0.841 -0.1983 -0.1582 -0.1555
27926W        W44060   6.941  11.034  11.427 -0.1017 -0.0838 -0.1181
27927W        W44061  12.868   5.863  11.472 -0.3132  0.2335 -0.0784
27928W        W44062  18.452   2.086  12.271  0.1829  0.3224  0.2563
27929W        W44063  17.655  17.851  12.670  0.0144  0.0273  0.1005
27930W        W44064   1.937   1.299   3.076  0.0103 -0.3297  0.5246
27931W        W44065  10.211   9.865  13.009 -0.1238  0.2568 -0.0632
27932W        W44066   1.576  11.515  10.638  0.2018 -0.1576 -0.0423
27933W        W44067  13.548  16.691   4.118 -0.0008  0.0798 -0.1690
27934W        W44068   0.882  10.916  14.724 -0.0453 -0.2476 -0.0388
27935W        W44069   2.905   5.274  14.154 -0.0820  0.0080 -0.2726
27936W        W44070   7.760   0.438  14.527  0.2751  0.1587  0.0878
27937W        W44071  15.811  14.670  15.329 -0.0462  0.4255 -0.2957
27938W        W44072  15.055  16.209   4.339  0.1778  0.2919 -0.1001
27939W        W44073   4.534  18.251  15.791 -0.0008 -0.1174  0.1056
27940W        W44074  10.500  12.358   4.774 -0.3414  0.2077 -0.2589
27941W        W44075   0.478  16.100  11.771  0.4735  0.3317 -0.1581
27942W        W44076  10.945  18.162  14.891  0.0982 -0.3056  0.0452
27943W        W44077   9.334  12.010  14.835 -0.1850  0.0787  0.2500
27944W        W44078   8.425   2.888   5.398  0.1321  0.0082  0.0072
27945W        W44079  14.121  17.875  14.460  0.0844 -0.0558  0.0914
27946W        W44080  17.700   7.672  14.369 -0.0555 -0.0690  0.0059
27947W        W44081  10.022  15.039  14.906 -0.0386 -0.1499 -0.0351
27948W        W44082  14.196   6.424  12.787 -0.2262 -0.0942 -0.1944
27949W        W44083   2.340   1.408  12.157 -0.1018  0.3102 -0.2892
27950W        W44084   5.642   2.409   0.750 -0.3012 -0.3234 -0.3516
27951W        W44085   1.121  11.868   1.534  0.0058  0.0119  0.2854
27952W        W44086  17.955   6.361  14.197 -0.0331  0.0677  0.2267
27953W        W44087   4.367  11.210   4.898 -0.0642  0.2955 -0.0037
27954W        W44088  13.228  14.001   0.134 -0.0880  0.0023 -0.1795
27955W        W44089   6.816  13.010   2.869  0.1987 -0.0440 -0.1766
27956W        W44090  16.946   5.205   1.553 -0.2963  0.2638 -0.5968
27957W        W44091   5.438   5.896  11.617 -0.0526  0.1230 -0.0803
27958W        W44092   9.274  12.595  13.234  0.3384 -0.2364  0.0949
27959W        W44093  13.882  15.558   4.915  0.0401 -0.0224 -0.0794
27960W        W44094   0.791  10.371   0.356  0.0421 -0.0694 -0.1253
27961W        W44095   6.738   0.964   0.248  0.2343  0.0145  0.3665
27962W        W44096   8.108   6.813  15.139  0.1113  0.0131  0.2018
27963W        W44097  13.283   2.083  15.110 -0.1111  0.0418 -0.1089
27964W        W44098  11.987   2.824   0.581 -0.0330  0.2020  0.0327
27965W        W44099  12.508   9.732  13.282 -0.1317  0.0757  0.0909
27966W        W44100  13.641  14.117   5.898 -0.1178 -0.0458  0.1896
27967W        W44101   1.156  12.641  14.683  0.1365 -0.0699  0.0444
27968W        W44102  13.863   7.929   2.517 -0.1704  0.2890 -0.0803
27969W        W44103  12.765   3.478   0.606  0.1367 -0.3712 -0.2011
27970W        W44104  15.088   3.837   2.258  0.1282 -0.0036  0.0661
27971W        W44105  12.132   5.228  13.887 -0.1413  0.1186 -0.0233
27972W        W44106   6.737   4.421   1.346  0.0558  0.0249  0.1670
27973W        W44107  11.280  14.390  13.019 -0.2859 -0.2659  0.0324
27974W        W44108  12.623   7.497  13.804  0.1104 -0.0052 -0.2450
27975W        W44109   8.341   0.290   0.321 -0.0718  0.0457 -0.0233
27976W        W44110   2.733   3.743   4.746 -0.0094 -0.0592 -0.0113
27977W        W44111  18.161   4.193  14.770 -0.2188 -0.0224 -0.0260
27978W        W44112  10.940   7.173   2.127 -0.0801 -0.1251 -0.1931
27979W        W44113  12.386   4.629   3.170  0.0408 -0.0829 -0.1158
27980W        W44114   1.079  13.507   1.133 -0.0604  0.1600 -0.0308
27981W        W44115   9.152   8.541  14.113  0.0560 -0.2655 -0.1540
27982W        W44116   8.745   1.231   4.220 -0.4474  0.0636 -0.2410
27983W        W44117   6.306  12.160  12.893 -0.3183 -0.0642  0.1166
27984W        W44118  17.080  12.287   4.461 -0.1398  0.0736  0.3331
27985W        W44119  15.747  15.617   2.344 -0.0703  0.2680  0.0017
27986W        W44120  14.852  15.851   3.526  0.0718 -0.0117 -0.3195
27987W        W44121   2.990  15.827   5.641  0.2028  0.1118 -0.0764
27988W        W44122  17.785   7.840   1.574  0.2818 -0.1760  0.1802
27989W        W44123   1.109   2.884   2.531  0.3939 -0.2070  0.1690
27990W        W44124   1.633   4.758   2.455  0.0320  0.1613  0.0621
27991W        W44125   5.752   1.009   1.732  0.1355  0.0485  0.1153
27992W        W44126   1.067   5.783   4.911  0.2981 -0.1562 -0.1401
27993W        W44127  11.962  10.219   2.165 -0.1828 -0.3342  0.1535
27994W        W44128   2.060  13.873   1.319  0.2637  0.1775 -0.0688
27995W        W44129   8.621  17.347   0.224 -0.0572  0.2382  0.3262
27996W        W44130   1.258  12.192   0.140  0.0097  0.0516  0.0148
27997W        W44131   6.214   7.917   3.831  0.1501  0.0993 -0.3455
27998W        W44132  11.458  12.723  13.020 -0.0979  0.2065 -0.0295
27999W        W44133   0.267  13.099   3.893 -0.2968  0.0812 -0.1526
28000W        W44134   0.231  11.933  14.949 -0.1300 -0.0774  0.1929
28001W        W44135  10.345   9.421  12.556 -0.0954 -0.0395 -0.0391
28002W        W44136   8.657  17.466   0.986 -0.2281  0.1164 -0.0533
28003W        W44137   0.359   2.979  15.718  0.1573  0.0102  0.0367
28004W        W44138   7.741   4.521   1.166  0.1532  0.0390  0.1780
28005W        W44139  13.381   3.577   1.566 -0.3026 -0.0040 -0.1493
28006W        W44140   5.076   0.875  13.189  0.2655 -0.0800 -0.0921
28007W        W44141  13.974  13.972  13.988  0.2753  0.0287  0.1378
28008W        W44142  14.517   0.174   2.162 -0.1614 -0.0585 -0.1094
28009W        W44143  15.141   3.822   3.613  0.1675 -0.3266 -0.0842
28010W        W44144  17.948  13.351  15.834  0.1100 -0.1502 -0.2452
28011W        W44145   8.605  12.495  14.376 -0.1394 -0.2930  0.4101
28012W        W44146   1.272  14.335   0.677 -0.1807  0.0333  0.2720
28013W        W44147  15.224  11.243   0.483  0.0849  0.1886 -0.0829
28014W        W44148   9.082  16.239   3.686 -0.2607  0.2041 -0.0069
28015W        W44149   1.706  12.009  14.884 -0.2526  0.0462 -0.3834
28016W        W44150  15.340  16.001   2.116  0.0499 -0.1597  0.0507
28017W        W44151   0.201   9.943   0.642 -0.1754 -0.3196 -0.2209
28018W        W44152  11.924  11.440  12.706  0.3480  0.1505  0.1347
28019W        W44153   1.215  18.311  15.451 -0.0030 -0.0472 -0.2793
28020W        W44154  10.275   1.274   0.858  0.2787  0.1516  0.0197
28021W        W44155   8.951   1.952  12.057 -0.2749  0.0218 -0.0562
28022W        W44156  14.351   4.762  15.854 -0.2279  0.0356 -0.0371
28023W        W44157   9.272  13.252   1.613  0.0657  0.1677  0.1456
28024W        W44158  10.626   3.363   1.763 -0.1896 -0.0804 -0.0454
28025W        W44159   7.807  12.259   4.143 -0.1892 -0.0533  0.1871
28026W        W44160   2.732  13.268  13.763 -0.0872 -0.1421 -0.1612
28027W        W44161   7.663   7.583   3.410 -0.0164 -0.0806  0.0398
28028W        W44162  12.773   7.577  14.854  0.0231  0.1374  0.1279
28029W        W44163  11.050   8.884  12.965 -0.1562  0.0050  0.0657
28030W        W44164   8.214  15.712  11.817 -0.2042  0.1647 -0.0002
28031W        W44165   9.492  13.668  13.883  0.0098 -0.0217 -0.4467
28032W        W44166  16.684   0.974   0.700  0.3135  0.1593  0.0235
28033W        W44167  10.733  10.294  11.450  0.1221  0.3724 -0.1354
28034W        W44168   4.954  14.924   3.885  0.1760  0.2115 -0.1824
28035W        W44169   5.096   6.839  13.480 -0.1708 -0.0436  0.0814
28036W        W44170   7.654   4.079   2.093  0.0796 -0.2331  0.0441
28037W        W44171   3.277  13.371  12.383 -0.2305 -0.2400  0.0345
28038W        W44172   1.825   5.038   4.352  0.1143  0.0621 -0.2155
28039W        W44173   9.811   7.733   4.856 -0.1781 -0.2095 -0.1777
28040W        W44174  14.918  13.388   3.334 -0.0742 -0.1730  0.0222
28041W        W44175  10.458  15.953   4.171  0.1505  0.0408 -0.0281
28042W        W44176   9.514   1.884   4.535 -0.0392 -0.1950 -0.0573
28043W        W44177   0.354  10.854   5.029 -0.0009 -0.0249  0.0592
28044W        W44178   4.909  16.968   4.982  0.1727  0.3302  0.0612
28045W        W44179  16.486   4.220   3.500 -0.2630 -0.3262 -0.2701
28046W        W44180   7.229  15.395   4.915  0.1245 -0.1004  0.0857
28047W        W44181  14.057  12.198   2.924 -0.1463  0.0874 -0.0738
28048W        W44182   8.487   3.303  13.278  0.1783 -0.0047 -0.1156
28049W        W44183   9.411  10.030   5.286  0.2079  0.0397  0.2467
28050W        W44184   4.855  14.845  15.169  0.3769  0.0902 -0.2877
28051W        W44185  10.182   8.107   3.120 -0.0130 -0.1090  0.2191
28052W        W44186   7.568   9.376   2.823 -0.1690 -0.1795  0.0153
28053W        W44187  15.884   5.907  13.763  0.0020  0.1335 -0.0794
28054W        W44188  12.688  11.093   1.016 -0.1802  0.4219 -0.3298
28055W        W44189  15.198  12.570  10.012  0.1554 -0.1603 -0.0735
28056W        W44190  10.557  12.798   5.308  0.4324 -0.1132 -0.1197
28057W        W44191  10.216  15.476  11.347  0.2606  0.4769  0.1545
28058W        W44192  16.302   6.423   1.608 -0.1931  0.3025 -0.0950
28059W        W44193   1.337  18.158   0.293  0.2995 -0.1357 -0.3496
28060W        W44194   9.245   0.886  10.434  0.0787 -0.0718 -0.0443
28061W        W44195  16.765   4.608  15.801 -0.2438  0.0474  0.0765
28062W        W44196   1.282   3.865   2.292  0.0015 -0.1963 -0.3122
28063W        W44197  16.151   2.774   9.869 -0.3018 -0.2116 -0.1232
28064W        W44198  18.237   5.592  15.634 -0.1344 -0.3527  0.1003
28065W        W44199   3.764  14.095   2.592 -0.2439 -0.0585 -0.1960
28066W        W44200  17.441   3.602   0.734  0.0073  0.3351 -0.0601
28067W        W44201  11.335   4.699   0.692 -0.1676  0.3657 -0.0791
28068W        W44202   4.165   7.385  12.678  0.1494  0.0599  0.1527
28069W        W44203  15.577   6.736   4.575 -0.4226  0.0043  0.1100
28070W        W44204  10.352  18.182  14.285 -0.0463  0.2932 -0.0320
28071W        W44205   9.352   3.866   4.957  0.2332 -0.0332 -0.1543
28072W        W44206   0.949   5.754   1.482  0.1033 -0.2239 -0.1329
28073W        W44207  18.368  13.865   4.912 -0.1808 -0.1013  0.1035
28074W        W44208  13.881  15.851   1.062 -0.0896  0.1288  0.3739
28075W        W44209  17.094   1.808   4.614  0.0616 -0.0932 -0.2498
28076W        W44210  16.119   6.987  12.456  0.1306 -0.3551 -0.1159
28077W        W44211   7.448  16.112  11.903 -0.1672  0.1926 -0.1444
28078W        W44212   2.854  13.725  11.558 -0.1836 -0.0732 -0.3300
28079W        W44213   3.026   1.888  15.695  0.2190  0.1111  0.0911
28080W        W44214   2.260  11.950   3.542  0.1734  0.0179  0.2307
28081W        W44215  13.615  12.770   1.851  0.2910 -0.0863 -0.0648
28082W        W44216  13.145   8.863   3.151 -0.1635 -0.0420  0.0694
28083W        W44217   5.300   7.640  10.570 -0.1827 -0.0863  0.2737
28084W        W44218   5.451   5.185  13.624  0.1265 -0.1895 -0.2484
28085W        W44219  12.606   2.885  13.713 -0.0056  0.0053  0.0367
28086W        W44220  11.414   8.083  15.433 -0.1420 -0.0480  0.2840
28087W        W44221   6.751   7.077   5.207 -0.1184 -0.2018 -0.2981
28088W        W44222  11.646  12.306  15.627 -0.1513 -0.2501 -0.1351
28089W        W44223   6.448  12.399  15.714  0.0564 -0.4269  0.2342
28090W        W44224  12.053   4.148  14.074 -0.1500 -0.0168  0.0929
28091W        W44225  16.278   4.094   1.725 -0.0640  0.0776 -0.2071
28092W        W44226  10.678   5.851  12.985  0.0708 -0.0354  0.0579
28093W        W44227  12.470   9.952  14.148 -0.1837 -0.0848 -0.1707
28094W        W44228   2.319  13.691  12.406 -0.3318 -0.0266  0.1159
28095W        W44229   9.008   7.842   3.281  0.2890  0.0594  0.0025
28096W        W44230   5.741  11.927   4.059  0.3808  0.0118 -0.0437
28097W        W44231   3.950  16.565   4.949  0.0907  0.1224  0.1549
28098W        W44232   2.330   3.260  11.602  0.0923 -0.3327  0.2781
28099W        W44233  13.793   3.111   1.983 -0.1677 -0.1303  0.1225
28100W        W44234   6.131  17.225  14.767  0.1945  0.2644 -0.0897
28101W        W44235  15.747   7.629   3.484 -0.0261 -0.0080  0.2204
28102W        W44236  14.249  13.138   0.530  0.1535  0.1988 -0.1862
28103W        W44237   8.680  15.797   2.306 -0.0059 -0.0813 -0.1178
28104W        W44238   1.137  18.073   2.971 -0.0857  0.1035 -0.0260
28105W        W44239  16.493  15.228   3.252 -0.1168 -0.1352  0.2387
28106W        W44240  12.214   6.616   2.337  0.2763  0.2588 -0.2469
28107W        W44241   4.255  16.108   4.029 -0.0719 -0.4942  0.1348
28108W        W44242  17.591   8.916   3.504 -0.1240  0.0851  0.4725
28109W        W44243   2.747   2.723   2.769  0.0845  0.1011  0.1123
28110W        W44244   5.188  12.376  12.837 -0.1256  0.0896 -0.0224
28111W        W44245  11.148   4.134   2.239  0.0033 -0.1741  0.0900
28112W        W44246   2.443  16.332   3.314 -0.0238 -0.3398 -0.2054
28113W        W44247   2.572   6.306  12.380 -0.2203 -0.1965 -0.1118
28114W        W44248   6.280  16.633   3.284  0.1264 -0.1872 -0.1442
28115W        W44249  12.309  17.687   0.945 -0.1111 -0.1625  0.0967
28116W        W44250   2.444  13.909  11.360 -0.0902  0.1451 -0.3673
28117W        W44251  12.046   6.529  12.431  0.0460  0.1381  0.1837
28118W        W44252  15.198  17.390   3.233 -0.0160 -0.1601 -0.0115
28119W        W44253   2.375   5.897   5.192 -0.0039  0.2241 -0.1072
28120W        W44254  11.933   0.006   0.747  0.1358 -0.0651 -0.0722
28121W        W44255   2.256  13.538  11.091 -0.0909  0.0467  0.0855
28122W        W44256  13.501  13.487  15.472  0.4230 -0.3102  0.1044
28123W        W44257   4.391   5.973  15.891  0.0706 -0.1984  0.0610
28124W        W44258   5.877   6.959  15.659 -0.0001 -0.0154 -0.0274
28125W        W44259   6.796   5.308  13.955  0.0099  0.1599 -0.4292
28126W        W44260  17.128   8.081  13.058 -0.0749 -0.0260 -0.1466
28127W        W44261   9.586   8.561   1.878  0.0365 -0.0628 -0.0333
28128W        W44262   5.220  13.557  11.931  0.1784  0.0559  0.0204
28129W        W44263  14.859  15.842   1.227 -0.2792  0.1881  0.2823
28130W        W44264   9.544  16.745   2.017 -0.3602 -0.3115  0.0240
28131W        W44265  10.380  13.401  12.100 -0.1779 -0.2540 -0.1229
28132W        W44266  13.548   2.360   1.919 -0.5213  0.2011 -0.3131
28133W        W44267   9.246   9.114   3.049  0.0373 -0.0139  0.1055
28134W        W44268   5.678  13.673  14.423 -0.3604 -0.0358 -0.2481
28135W        W44269   1.642  15.553   1.336  0.2115  0.2151 -0.3718
28136W        W44270  16.819   7.105  12.515  0.2073 -0.4574  0.1909
28137W        W44271  13.449   0.600   1.736 -0.1057  0.1214 -0.1104
28138W        W44272  12.560  15.121  12.639 -0.1461  0.2905  0.1105
28139W        W44273   7.542   0.255  10.214 -0.0057  0.1522 -0.0215
28140W        W44274   1.919   1.043  13.897  0.1990  0.2673  0.1359
28141W        W44275  16.906  18.046   2.211  0.0042 -0.2942 -0.1316
28142W        W44276   7.444   4.975   1.074  0.0142 -0.1116  0.0704
28143W        W44277  14.878   6.238   0.991 -0.2002 -0.1733 -0.0591
28144W        W44278   7.044  10.678   1.906 -0.1883  0.2441 -0.0266
28145W        W44279   5.232  11.834  13.157 -0.0915  0.1227  0.1181
28146W        W44280  18.256   4.767   2.402  0.3956  0.0873  0.0165
28147W        W44281  11.982   3.693   0.216  0.2076 -0.0771 -0.3548
28148W        W44282  14.538  17.872  15.341 -0.1601 -0.2290 -0.1003
28149W        W44283  14.129  11.072   5.050  0.1944 -0.0010 -0.1775
28150W        W44284   0.768  16.491  11.095 -0.3267 -0.1129  0.2167
28151W        W44285  14.620  11.249   0.565  0.1996 -0.2496  0.2294
28152W        W44286  12.466  13.968  14.411 -0.0588  0.0338 -0.2494
28153W        W44287   4.969   1.843  11.354  0.1400  0.0490  0.0793
28154W        W44288  16.478   9.857   0.421 -0.0452 -0.1807  0.0256
28155W        W44289  16.886  12.348  15.596  0.0085 -0.1315 -0.0780
28156W        W44290  15.852   3.530   1.187  0.0428 -0.0549  0.1296
28157W        W44291   0.917   4.465  14.356 -0.1276  0.1762  0.2511
28158W        W44292  10.551   2.089   1.302 -0.1031 -0.3091 -0.3213
28159W        W44293  11.102   5.706  11.603  0.1040 -0.3031  0.3330
28160W        W44294  11.435   7.907   0.033  0.0388 -0.2662 -0.1273
28161W        W44295  17.044  14.515   1.562  0.1124  0.1508  0.0591
28162W        W44296   8.466   6.497  15.122  0.0236  0.1991 -0.0426
28163W        W44297   0.346  12.556  12.886  0.1434 -0.1226 -0.1694
28164W        W44298  16.470   3.435  12.117 -0.0643  0.2183  0.0629
28165W        W44299  16.390  16.307   4.006  0.3414 -0.0549  0.0401
28166W        W44300  15.253  15.629   2.603  0.0675  0.2390  0.0753
28167W        W44301  15.406   5.649  13.536 -0.0954 -0.2187 -0.2681
28168W        W44302  14.967  11.710   3.871 -0.2283  0.4084 -0.3329
28169W        W44303  12.954   7.787   5.831  0.1240 -0.0167  0.4328
28170W        W44304  13.807  14.430  13.836  0.0948  0.1206  0.0406
28171W        W44305  17.037  12.391   1.040 -0.3603  0.2301  0.1446
28172W        W44306   1.382   3.267  12.087  0.1266 -0.0957 -0.2825
28173W        W44307   8.873  11.843  14.881 -0.1423 -0.1293  0.0383
28174W        W44308  12.501  16.114  14.043  0.0295  0.0202 -0.1737
28175W        W44309  18.065   7.407   0.330 -0.4602 -0.4935 -0.0498
28176W        W44310  17.067  17.250   0.915  0.1212 -0.1580 -0.2523
28177W        W44311  16.996  10.209   4.716 -0.2968 -0.0906  0.1763
28178W        W44312   6.316  17.779   1.270 -0.2991  0.1579  0.1062
28179W        W44313   4.680   9.651   3.802  0.2659 -0.0266 -0.0014
28180W        W44314   7.498  14.979   4.598 -0.0190 -0.1233 -0.1564
28181W        W44315  12.999  12.865  15.271 -0.5012  0.1427  0.1097
28182W        W44316   0.224  18.261  14.559  0.0784 -0.0159  0.1057
28183W        W44317  11.387   9.947   0.754  0.2574  0.1250  0.2219
28184W        W44318  12.196   2.279   4.889  0.0755 -0.1222 -0.1412
28185W        W44319   2.121  14.139   4.134  0.0505  0.0172 -0.1839
28186W        W44320   0.216  14.664  12.208 -0.1159  0.0756  0.1864
28187W        W44321   0.345  13.864   5.203  0.0883 -0.0433  0.1035
28188W        W44322  12.325   6.398  12.810 -0.3810  0.3395 -0.2301
28189W        W44323  12.003  13.199   4.036 -0.0225  0.3030 -0.0412
28190W        W44324  15.823  15.075   5.663  0.2308 -0.4430  0.3250
28191W        W44325   0.971   1.647   2.025 -0.1403 -0.0474 -0.0238
28192W        W44326   9.432   6.581   4.005 -0.0409  0.3043 -0.1180
28193W        W44327   6.294   1.614  14.144  0.1530 -0.0703  0.0633
28194W        W44328   3.682  11.511  13.077  0.0499  0.1633 -0.2333
28195W        W44329  14.411   2.860  15.436  0.4020  0.4989 -0.1562
28196W        W44330   9.609   0.117   0.434  0.0649  0.1255 -0.0070
28197W        W44331   4.021   5.614  14.559 -0.3922 -0.1117  0.2327
28198W        W44332   7.709   9.031  11.072 -0.0461  0.0676  0.0450
28199W        W44333   4.817   9.837   5.685 -0.2436 -0.1953 -0.1321
28200W        W44334  17.646   4.787   5.114  0.0553  0.0352 -0.0297
28201W        W44335  11.935   5.277  12.845  0.1637  0.2653  0.0939
28202W        W44336  10.803   4.520   3.062 -0.2681  0.2336  0.2433
28203W        W44337   6.659  14.615  14.502 -0.0845  0.1555  0.2074
28204W        W44338  18.286  13.842  15.712  0.1725 -0.0166 -0.1374
28205W        W44339   8.482  13.799  13.662 -0.0085 -0.0511 -0.2540
28206W        W44340  14.576   8.163  14.111 -0.0816  0.0657  0.1256
28207W        W44341  16.061  11.614   1.358  0.1394 -0.1389 -0.2251
28208W        W44342   5.701  11.439  13.853 -0.3175  0.0211 -0.1161
28209W        W44343   5.652   2.678   2.230  0.0932 -0.2043  0.1115
28210W        W44344  12.782  14.186  13.676 -0.2959 -0.1452 -0.1427
28211W        W44345  15.031   2.854   3.573 -0.2189  0.1377 -0.4204
28212W        W44346   8.511   6.485   1.631  0.0934  0.2475 -0.0359
28213W        W44347   9.954  13.632   4.000 -0.0988  0.0531 -0.0061
28214W        W44348  11.553   4.531   1.874 -0.2700 -0.2472  0.0743
28215W        W44349  15.246   0.577   4.509 -0.0264  0.1639 -0.0450
28216W        W44350  11.068  11.111   4.518 -0.0353 -0.3247  0.0889
28217W        W44351  13.282  10.528  11.137 -0.1000  0.0868  0.0447
28218W        W44352   2.502   3.937  11.986 -0.2829  0.1811  0.1382
28219W        W44353   7.875   3.620  12.562  0.0793  0.0049 -0.3659
28220W        W44354  18.373  18.204  12.013 -0.1625  0.1551 -0.1658
28221W        W44355   2.907  15.757  15.067 -0.1914  0.1647 -0.2892
28222W        W44356  10.939  10.012  15.848 -0.0326 -0.1797  0.1833
28223W        W44357  15.890   3.564  14.853  0.1620 -0.0422  0.1225
28224W        W44358  12.689  12.020  14.736 -0.1888 -0.3970  0.1014
28225W        W44359   6.065   2.749  15.071 -0.2442  0.1888  0.1338
28226W        W44360  16.394   6.450   3.509  0.3088  0.1896  0.1403
28227W        W44361   4.795   0.168  11.771 -0.0781 -0.1927  0.0598
28228W        W44362  16.769   7.545   4.392  0.2887  0.0767 -0.0461
28229W        W44363  15.731   1.148  13.936 -0.1144  0.0156  0.0446
28230W        W44364   0.324  12.664   2.712  0.1614 -0.1084  0.2296
28231W        W44365  14.483  13.189   5.137 -0.1243  0.0915  0.1688
28232W        W44366   5.646   2.518  14.943  0.2623  0.3052  0.2263
28233W        W44367  13.072  14.376   3.295 -0.0101  0.2353  0.0735
28234W        W44368  13.908   4.115   2.076 -0.1826 -0.0440 -0.0732
28235W        W44369  15.291   9.564   3.429  0.5870 -0.0073 -0.1305
28236W        W44370  14.673  11.037  15.163  0.1139  0.2841  0.0663
28237W        W44371  16.978  13.836  11.063 -0.1627 -0.0853 -0.1115
28238W        W44372  16.130  10.210  15.154 -0.0667 -0.1186  0.4447
28239W        W44373  11.813  14.210   0.430 -0.0009  0.2783 -0.3612
28240W        W44374   4.292  14.195  11.728  0.0878  0.2001  0.0455
28241W        W44375   3.009   2.365   3.120 -0.2784  0.0775 -0.3238
28242W        W44376   1.158   8.298  15.497 -0.1736 -0.1168  0.2939
28243W        W44377   3.237  14.670   3.073  0.3392  0.0223  0.0615
28244W        W44378  17.752  10.154  12.222  0.1896 -0.0157  0.2593
28245W        W44379   1.937   6.372   3.649  0.1573 -0.2094  0.1211
28246W        W44380   2.818  16.103  14.675 -0.1647 -0.0768  0.0827
28247W        W44381  12.971  13.840   2.315  0.0193  0.1194  0.0644
28248W        W44382   3.502   6.893  15.503 -0.1958 -0.0466 -0.2110
28249W        W44383   5.736  17.229   2.301 -0.2615  0.0996 -0.0307
28250W        W44384   7.778  10.585   3.330  0.0672 -0.0987  0.1088
28251W        W44385  12.494   9.567   5.868 -0.1106 -0.0953  0.4110
28252W        W44386  17.369  11.313  15.396 -0.0015  0.0048  0.1772
28253W        W44387   2.817  13.802  14.306 -0.0873 -0.1578  0.1961
28254W        W44388  12.913  17.269   1.997 -0.1780  0.0555 -0.0054
28255W        W44389   4.320   8.449  12.166 -0.3610  0.2042 -0.0941
28256W        W44390   2.583   9.103  12.326  0.2067 -0.0663  0.1021
28257W        W44391  15.598   4.646   0.683 -0.1396  0.0414 -0.0436
28258W        W44392   1.418   0.005  12.173 -0.3038 -0.0185 -0.1067
28259W        W44393   2.011   0.354  15.800 -0.2409  0.1983 -0.0982
28260W        W44394   0.570   9.935   4.768 -0.1448  0.1348 -0.0023
28261W        W44395  10.731   7.892  12.965 -0.0254  0.1876 -0.0103
28262W        W44396   8.434   6.579   3.711  0.0421 -0.1069 -0.1462
28263W        W44397  17.902  14.211  11.589 -0.0461  0.0680  0.1808
28264W        W44398  12.260  16.353  14.483 -0.1921  0.5762 -0.1030
28265W        W44399  14.087   1.991  10.789  0.1602  0.0998 -0.0443
28266W        W44400  16.411   4.298   0.240  0.0240  0.1017  0.2365
28267W        W44401  15.546  13.540   0.800 -0.0132  0.0726 -0.0956
28268W        W44402  14.015  15.292  10.377  0.0362 -0.1131 -0.0944
28269W        W44403  14.042   9.060   0.082 -0.2923  0.1603  0.1041
28270W        W44404  10.438   1.629  14.342 -0.1804 -0.0686 -0.2313
28271W        W44405   4.474  16.114   2.165 -0.0541  0.2221 -0.1156
28272W        W44406   9.888   3.614  11.911 -0.0469  0.1917 -0.1967
28273W        W44407  17.734   3.249  10.761 -0.1336  0.1155  0.2550
28274W        W44408   6.965  13.918   3.880 -0.0730 -0.3698 -0.4668
28275W        W44409  17.582   7.524   3.156  0.3750  0.2943  0.2938
28276W        W44410  13.333  12.694   4.922  0.1569  0.0596  0.2315
28277W        W44411   4.724  15.902  15.583 -0.4028  0.0829  0.1599
28278W        W44412   2.626  11.659  14.100  0.2351  0.4246  0.5890
28279W        W44413  16.929  14.442  12.521 -0.1500  0.0562  0.3430
28280W        W44414   6.985   4.831   1.229  0.1792  0.1474 -0.0541
28281W        W44415   1.413   6.849  15.741 -0.2261  0.0887  0.1952
28282W        W44416   2.052   6.411   2.229 -0.1877 -0.1333 -0.1157
28283W        W44417  10.045  16.875   2.087 -0.2238 -0.1270 -0.0054
28284W        W44418   6.147  15.630   5.866  0.3089 -0.0407 -0.2197
28285W        W44419  13.272  13.880  12.420  0.0262  0.0386  0.1729
28286W        W44420  13.645   1.108  11.724  0.2830 -0.2399 -0.1668
28287W        W44421   8.284   5.906   1.097  0.1099 -0.3568 -0.0066
28288W        W44422  14.884  10.280   5.190 -0.3516  0.0568  0.0798
28289W        W44423  16.053  12.826   0.606  0.1815  0.2655  0.1582
28290W        W44424   4.949  14.475  14.261 -0.1011 -0.0846  0.0030
28291W        W44425   5.892   2.924  14.576 -0.1702 -0.2008  0.1185
28292W        W44426   0.432   3.045  13.518 -0.0011 -0.0613 -0.1166
28293W        W44427   7.860  17.917  12.615  0.2751  0.3031  0.0264
28294W        W44428  13.600   6.089  13.655 -0.0753 -0.0636 -0.0773
28295W        W44429   1.634   7.679   3.417 -0.1233 -0.0445  0.2624
28296W        W44430   6.963   8.346   2.779  0.1120 -0.0278  0.0869
28297W        W44431   9.426   0.576   4.128  0.2738 -0.0398 -0.0164
28298W        W44432   4.308   5.198  15.851  0.0940  0.1883 -0.1234
28299W        W44433  13.650  15.803  11.427 -0.0428 -0.1937  0.0961
28300W        W44434   9.119   2.693   4.663  0.1275  0.0278  0.1404
28301W        W44435   6.221   5.806  13.619  0.0294 -0.0778  0.1886
28302W        W44436   1.329  14.772   2.526  0.3505  0.0903 -0.2115
28303W        W44437   5.350   4.693  13.595  0.1020 -0.2991  0.0698
28304W        W44438   4.473  10.713  12.767  0.1808  0.2944 -0.0897
28305W        W44439   3.712   3.814  14.181  0.0878  0.0526  0.1369
28306W        W44440  16.088   7.527  11.775  0.4608 -0.1974 -0.2136
28307W        W44441   2.516   0.886   3.595 -0.2556 -0.2617  0.1110
28308W        W44442  15.338  13.164  11.111 -0.1607 -0.0766 -0.2488
28309W        W44443  17.623  13.306   2.768 -0.1190 -0.1703 -0.0837
28310W        W44444   7.074   3.098  13.726 -0.2466 -0.1449 -0.0826
28311W        W44445   6.229  10.567   5.130 -0.0654 -0.0488 -0.1565
28312W        W44446   9.400   1.818  12.770  0.1240  0.0582 -0.1087
28313W        W44447  16.319  12.085  15.811 -0.1219  0.0529  0.0864
28314W        W44448  16.133   6.347  15.506 -0.2351  0.0745  0.1590
28315W        W44449  11.470   1.987   4.585 -0.1308  0.1648  0.0286
28316W        W44450  11.217   0.568   4.634  0.0493  0.1392 -0.2717
28317W        W44451  11.183   0.108  15.205  0.0196 -0.5109  0.0509
28318W        W44452   0.521   1.261   0.962  0.2103  0.2507 -0.1278
28319W        W44453  14.302  10.137   0.503  0.1230 -0.2148 -0.1554
28320W        W44454   9.616  13.757  14.852 -0.0024  0.0752  0.0599
28321W        W44455  16.797  10.869  12.409 -0.0685  0.0628 -0.0591
28322W        W44456  10.479   7.312  13.593 -0.0931 -0.0832 -0.0864
28323W        W44457  17.851  10.158  13.196  0.1028 -0.1358  0.1262
28324W        W44458   8.838   7.218   0.175  0.2326  0.3074 -0.1490
28325W        W44459   8.620   8.387   2.473  0.0220 -0.3079  0.2143
28326W        W44460   9.138   0.069   0.486  0.2939  0.2325 -0.1471
28327W        W44461   8.324   5.517  15.586 -0.1900 -0.0879  0.3446
28328W        W44462  14.601   4.678  11.635  0.1576 -0.1666  0.0101
28329W        W44463  17.550   8.160   4.457  0.5494 -0.1888 -0.1255
28330W        W44464   4.108   0.803  10.964 -0.2264  0.0801 -0.0745
28331W        W44465   7.645  13.024  15.124  0.0759  0.2007  0.1981
28332W        W44466  10.646  11.139  12.739 -0.1606  0.2331  0.1150
28333W        W44467   2.154  14.465   0.286 -0.2322  0.1838  0.1861
28334W        W44468   7.369  11.479  15.539  0.0123 -0.0224  0.0601
28335W        W44469   3.967   4.139   4.941 -0.0912  0.1305 -0.1162
28336W        W44470  14.295  10.801  13.637 -0.0492  0.2317 -0.1720
28337W        W44471   8.885   0.748   5.706 -0.1310 -0.0076 -0.2518
28338W        W44472  12.965   8.305  14.050 -0.0906 -0.3336  0.0937
28339W        W44473   0.378   8.002  14.063  0.1158  0.3293  0.0742
28340W        W44474   3.801  17.696   2.348 -0.4668 -0.1335  0.1195
28341W        W44475   5.617  16.235   1.565  0.2132  0.0728 -0.2083
28342W        W44476  13.510   9.526  13.596  0.0454 -0.4429 -0.0065
28343W        W44477  13.255  12.378   1.726 -0.0859  0.2353 -0.2879
28344W        W44478  13.016   1.907   0.579  0.0032 -0.1276 -0.2233
28345W        W44479   3.378   5.894  15.556  0.3331 -0.0483  0.1281
28346W        W44480   0.658   9.498  15.223  0.2014 -0.2226 -0.0413
28347W        W44481   3.532   6.204  11.381 -0.1090 -0.1245  0.3566
28348W        W44482  17.503   0.818   2.200 -0.0856 -0.2379 -0.0304
28349W        W44483   9.357  17.774  11.720 -0.3111  0.1580  0.1917
28350W        W44484   4.682  15.976   2.637  0.1137 -0.2093 -0.0122
28351W        W44485  13.616   0.484   0.429 -0.2202 -0.3382  0.1916
28352W        W44486   6.217   6.498   2.779  0.0017 -0.1781 -0.0667
28353W        W44487  12.740  15.012   5.200  0.2090  0.0809 -0.1286
28354W        W44488   8.886   0.582  13.297 -0.1808  0.3678  0.2768
28355W        W44489   5.591   0.885  12.351 -0.0959  0.0921  0.0023
28356W        W44490   2.451  16.667  13.282 -0.2712 -0.2966 -0.0087
28357W        W44491  13.632  10.090  13.733 -0.4706 -0.0617 -0.0222
28358W        W44492  10.868   3.825   4.041 -0.2914 -0.1825  0.2458
28359W        W44493   9.277   3.253  15.765 -0.0659  0.2018  0.0578
28360W        W44494  11.016   9.542  14.953  0.0664  0.2046  0.2069
28361W        W44495  10.966  16.356  10.104 -0.1561  0.1451  0.2746
28362W        W44496   9.895  16.346   1.894 -0.1483 -0.2016  0.0798
28363W        W44497  18.357   9.185   0.343  0.1845 -0.1405  0.0228
28364W        W44498   6.056   7.323  11.062 -0.0509 -0.2099 -0.1427
28365W        W44499   1.922  18.177   0.306  0.0448  0.0299  0.0124
28366W        W44500  12.103   6.277   1.263 -0.0521  0.0610  0.3065
28367W        W44501  12.174  10.766  14.613  0.2642 -0.1310 -0.1006
28368W        W44502  11.436   5.796   1.334  0.1996  0.2568  0.0329
28369W        W44503   9.710   8.373   3.743  0.2308  0.1293  0.2286
28370W        W44504  16.369  13.969   5.758  0.2169  0.2599  0.0234
28371W        W44505  18.377   2.710  12.843 -0.4009  0.1250 -0.2836
28372W        W44506  14.659   0.297   5.286 -0.0433  0.0053  0.2271
28373W        W44507   8.380  12.162   4.204 -0.1193  0.0793 -0.1965
28374W        W44508   0.531  10.938  12.068  0.0562 -0.1799 -0.0853
28375W        W44509  12.976  10.708  14.133 -0.2487 -0.2229 -0.3990
28376W        W44510  16.294   4.332   4.001 -0.2714  0.1142 -0.1147
28377W        W44511  12.031  10.477  15.539 -0.1065 -0.1063  0.1005
28378W        W44512  13.488  15.333   5.084 -0.1488  0.2184  0.0186
28379W        W44513   9.431   0.238  14.097 -0.0891  0.1471 -0.0309
28380W        W44514   1.040   7.341  13.339 -0.3158  0.0567  0.1319
28381W        W44515  16.609  15.572  15.110 -0.3981 -0.0091  0.0621
28382W        W44516   9.258   8.693  13.599  0.1636 -0.2551  0.2318
28383W        W44517   9.256   4.872   3.528  0.0267  0.0984  0.3398
28384W        W44518  15.917  17.395   2.844  0.3087 -0.1689  0.0518
28385W        W44519   1.387   1.287   3.709 -0.0788  0.0585  0.0201
28386W        W44520   4.195   0.620   0.718 -0.1574 -0.2701 -0.2987
28387W        W44521  11.999  14.452   1.501  0.1568  0.1351  0.1884
28388W        W44522  14.095   9.073  10.245 -0.3336  0.0268 -0.2325
28389W        W44523   0.190   8.969   1.958  0.0485 -0.0269 -0.0439
28390W        W44524  16.812  11.858   3.513 -0.1220  0.2185  0.2087
28391W        W44525  17.153  16.629   4.191  0.1440  0.1133 -0.0459
28392W        W44526  17.167   5.363  10.533 -0.0088 -0.1105  0.4113
28393W        W44527  11.266   9.074  14.907  0.0057  0.1284 -0.0732
28394W        W44528   7.762   0.155   3.943  0.1954 -0.1320 -0.0093
28395W        W44529  10.038  13.355   1.367 -0.1155 -0.0981  0.0196
28396W        W44530   0.209   2.281   5.886  0.2597  0.1360  0.0021
28397W        W44531  13.018   0.778  10.978  0.0998  0.0398 -0.0613
28398W        W44532   9.362   8.034   2.911  0.1072 -0.0881 -0.0467
28399W        W44533   8.977  12.058   4.996 -0.3709  0.0406 -0.1639
28400W        W44534  17.902   6.301  13.208 -0.1523 -0.3626 -0.1332
28401W        W44535   3.274  17.796  13.140 -0.0592 -0.4429 -0.0097
28402W        W44536  17.360  16.707  12.267  0.0347  0.1936 -0.0807
28403W        W44537   3.941  12.836  13.571  0.1420 -0.2676 -0.1489
28404W        W44538  16.844  18.332  12.857  0.0158 -0.3138 -0.1199
28405W        W44539   9.435  10.522  11.548 -0.0989 -0.0900 -0.3433
28406W        W44540   7.620   9.480  13.595  0.0687  0.0652 -0.1449
28407W        W44541  17.086   7.332  10.756 -0.0651 -0.1799 -0.1027
28408W        W44542   9.945   4.309  15.025 -0.3001 -0.3040 -0.0314
28409W        W44543  11.752  14.046  15.191  0.1852 -0.0124 -0.1425
28410W        W44544  10.575   8.656  15.056 -0.1162 -0.1331 -0.0186
28411W        W44545   9.336  14.517  12.570  0.1857  0.3775 -0.1470
28412W        W44546  11.446  15.305   3.455 -0.2489 -0.2392 -0.1120
28413W        W44547  11.262   3.249  13.237  0.1475  0.2005  0.1502
28414W        W44548   6.239   6.806  14.755 -0.3014 -0.0080  0.1032
28415W        W44549   6.872  15.715   1.547 -0.0097  0.1457 -0.1200
28416W        W44550   9.877  10.742  15.480 -0.0626 -0.2089 -0.0763
28417W        W44551   3.773  15.372   5.604  0.2438  0.0853  0.0007
28418W        W44552  13.393  15.087  12.713  0.0792  0.0647 -0.2909
28419W        W44553   4.674  15.807  13.034  0.2106  0.3955 -0.1274
28420W        W44554   0.337  15.108  11.882  0.1166 -0.0038 -0.1044
28421W        W44555   0.072   7.473  10.950 -0.1625  0.3183 -0.1613
28422W        W44556   1.912  12.396  13.611  0.1510 -0.1199 -0.2427
28423W        W44557   8.003  14.204  14.352  0.2619  0.1800 -0.2181
28424W        W44558   7.686  18.121  15.081  0.1045 -0.1833  0.2649
28425W        W44559  14.983   0.330   3.103 -0.1556 -0.2798  0.0835
28426W        W44560  15.292   8.134   4.773 -0.3474 -0.1120 -0.1044
28427W        W44561   4.838   4.846  14.687  0.1399  0.0465 -0.0259
28428W        W44562   1.189  13.360   0.310 -0.2223  0.0041 -0.0282
28429W        W44563   2.034   5.912   2.302  0.1986  0.1168  0.5312
28430W        W44564   9.075   1.116  13.020 -0.0677 -0.1061 -0.2082
28431W        W44565  11.557   8.153   0.813  0.1095  0.0369 -0.2085
28432W        W44566   6.770  12.054  14.442 -0.2770  0.1547  0.0994
28433W        W44567   3.040  16.762   1.001  0.0981  0.1639 -0.0570
28434W        W44568  10.884   2.201  15.315  0.0577  0.0792  0.0270
28435W        W44569   3.040  18.099   5.473  0.1023 -0.3370 -0.4661
28436W        W44570   4.459  11.706  13.692  0.1529  0.0262  0.1381
28437W        W44571  11.740  17.889  11.040  0.0611  0.3252  0.0323
28438W        W44572  17.772  13.145  15.386 -0.1017 -0.0748 -0.1929
28439W        W44573  10.184   3.349   5.300  0.2911  0.2648  0.0400
28440W        W44574   4.923   9.130   5.956  0.0490 -0.3401  0.1878
28441W        W44575  15.619   8.396   4.516 -0.0259 -0.0191 -0.1622
28442W        W44576   0.223   1.655   1.232  0.1080  0.2779  0.1719
28443W        W44577  10.623  11.032   4.815  0.0559  0.0241  0.1661
28444W        W44578  16.695   4.089   0.639  0.0646 -0.0649 -0.5495
28445W        W44579   7.863   6.305   2.242 -0.0308 -0.0453  0.2299
28446W        W44580  10.042   6.880   1.842  0.1140 -0.0928  0.0713
28447W        W44581  16.299  17.332   0.687  0.1673  0.0776 -0.1520
28448W        W44582   1.883  11.672  14.499 -0.0861 -0.0459  0.1020
28449W        W44583  11.925   9.517   5.074 -0.1280 -0.0209 -0.0769
28450W        W44584  13.031  15.443   0.326  0.1273  0.4261 -0.1696
28451W        W44585  14.175   2.511   4.472 -0.2218  0.1452  0.0447
28452W        W44586  18.142  10.591  15.905 -0.0389 -0.2145 -0.3091
28453W        W44587  15.958  16.299   4.304 -0.0836 -0.0992 -0.0159
28454W        W44588   8.249  17.420   0.619 -0.3062 -0.1068 -0.1204
28455W        W44589   5.668   0.284  11.618 -0.0601 -0.1438  0.1170
28456W        W44590   6.455   1.573   4.943  0.2998 -0.0971  0.0925
28457W        W44591  12.872  15.459  15.481  0.1439  0.0732  0.1968
28458W        W44592   7.930   9.222  10.570 -0.1104  0.1769  0.4696
28459W        W44593  17.362   9.525  14.125  0.0859 -0.0319 -0.1139
28460W        W44594  12.986  12.502   5.209 -0.1847 -0.0558 -0.0852
28461W        W44595   7.725  13.177   2.549 -0.0171  0.2856 -0.1229
28462W        W44596   6.753   1.777  14.919 -0.1095 -0.1327 -0.1402
28463W        W44597  17.971   1.647  11.966 -0.2143  0.2381  0.3616
28464W        W44598   2.515   5.848   4.360  0.0499 -0.1380  0.3271
28465W        W44599   5.300   7.581   3.491 -0.2374  0.0841  0.0639
28466W        W44600  16.627  14.854  12.678 -0.0026  0.2683 -0.0297
28467W        W44601  14.467   2.152   1.705 -0.0532  0.0255 -0.0546
28468W        W44602  11.974  11.782  10.221  0.0740 -0.1361 -0.0611
28469W        W44603   0.352   5.064  14.741  0.1592  0.1278 -0.0265
28470W        W44604  16.045   5.926   5.091  0.2206  0.1300 -0.0698
28471W        W44605  17.091  15.668  12.068  0.1518  0.1620 -0.0921
28472W        W44606   9.189  17.447   1.296  0.1385  0.1926  0.1800
28473W        W44607   8.482   3.860   3.908  0.0823  0.2537  0.1598
28474W        W44608   0.272   7.563   4.014 -0.0038  0.0711 -0.0767
28475W        W44609  17.447   6.602  13.896 -0.0411 -0.0477 -0.2282
28476W        W44610   5.748  10.395  12.269  0.0045  0.1771  0.0105
28477W        W44611   1.069   0.451   0.984 -0.0151  0.1491  0.1060
28478W        W44612   3.251  14.680   5.713 -0.0942  0.1977  0.1526
28479W        W44613  17.995   3.195   3.968 -0.0289 -0.2398  0.0650
28480W        W44614  11.353   5.509   1.789  0.0928  0.0925 -0.2456
28481W        W44615   8.930   5.900   0.058  0.0886 -0.1214  0.1569
28482W        W44616   1.548   9.118   3.791  0.2211 -0.2576  0.0510
28483W        W44617   5.748   2.645   5.183  0.0085  0.2527 -0.2183
28484W        W44618   6.638   0.482   0.813 -0.0359  0.0141 -0.2888
28485W        W44619   5.568  18.385   3.732  0.1023  0.1256 -0.1879
28486W        W44620  10.969  13.930  13.562  0.2099 -0.0367  0.0664
28487W        W44621  14.659   8.844   4.469 -0.1164  0.0750  0.0971
28488W        W44622  13.063  17.873   4.534 -0.0324 -0.1646  0.0408
28489W        W44623   7.858  11.732   1.417 -0.2605 -0.0261  0.0051
28490W        W44624   5.189  10.639  11.456  0.0432 -0.0512 -0.4053
28491W        W44625  16.290   5.141  11.962  0.0390 -0.2470 -0.1891
28492W        W44626   2.876  16.339  15.179  0.2295 -0.1117 -0.1092
28493W        W44627  14.969   5.531  13.282 -0.0328 -0.0109 -0.0627
28494W        W44628   2.897   7.125  14.858  0.4063 -0.3139  0.1298
28495W        W44629   6.463   2.864   1.823 -0.2573 -0.2892  0.0533
28496W        W44630  15.727   8.499  12.839 -0.1059  0.3069 -0.0857
28497W        W44631  12.379   4.139   3.360  0.2278  0.2111 -0.1921
28498W        W44632   8.691   8.362  12.860 -0.2016 -0.1748 -0.0376
28499W        W44633  11.944   9.952  14.243 -0.0543 -0.1065 -0.2533
28500W        W44634  16.654   7.675   0.567 -0.3628 -0.0322  0.4753
28501W        W44635  12.114   9.159  13.907 -0.2227 -0.1372 -0.2475
28502W        W44636   4.279   5.948   2.180 -0.1088  0.1591  0.1327
28503W        W44637   8.609  10.157  15.579  0.0539 -0.0579  0.1191
28504W        W44638  10.648   1.427  14.797 -0.0833 -0.2955  0.3606
28505W        W44639  15.789   4.584  12.637  0.0309 -0.1275 -0.1789
28506W        W44640  17.958  15.458  12.307  0.1505  0.1916  0.0737
28507W        W44641   5.629  12.995  14.945 -0.2488  0.0823  0.0289
28508W        W44642   1.439   2.842   2.086 -0.4431 -0.0625  0.2828
28509W        W44643   5.757  16.436  14.765 -0.2487  0.1845  0.0197
28510W        W44644  11.023  11.580   4.377  0.1054 -0.1764  0.0479
28511W        W44645  15.318  10.624   4.154  0.1463  0.1732  0.4983
28512W        W44646  17.143  13.841   4.401 -0.2054 -0.1731  0.1869
28513W        W44647   6.392  13.914  15.854  0.1984  0.0262 -0.3526
28514W        W44648   1.060   6.559   1.065 -0.0872 -0.0709  0.0158
28515W        W44649   4.523   6.544  12.985 -0.2198 -0.1432 -0.3215
28516W        W44650   8.323   2.857  13.385 -0.3759 -0.0940  0.1837
28517W        W44651  16.039  14.702  14.403 -0.2596 -0.1706 -0.0854
28518W        W44652   8.452   8.308   0.961 -0.1319  0.0424 -0.0259
28519W        W44653   0.348   4.697   0.184 -0.1647 -0.0777 -0.1805
28520W        W44654   5.793   6.851   3.325  0.3131  0.1166  0.2142
28521W        W44655  17.248   0.744   4.985 -0.3801  0.3390 -0.0734
28522W        W44656   3.850   5.171   4.734  0.1265 -0.0063 -0.0864
28523W        W44657  11.945   9.592   1.452  0.0802  0.1924 -0.2743
28524W        W44658  10.184   0.622   3.448 -0.1935  0.0026  0.1832
28525W        W44659   4.967  12.157  14.132 -0.0442 -0.2324 -0.1612
28526W        W44660   9.764  12.351  14.924 -0.1676 -0.3376  0.2634
28527W        W44661  18.360   9.196   3.394 -0.0477  0.0041  0.1266
28528W        W44662  15.960   8.519   1.233  0.0207  0.0818 -0.3135
28529W        W44663   3.151  17.908  14.522 -0.1202  0.3566 -0.1093
28530W        W44664  15.897  15.965   0.799 -0.0177  0.0573 -0.3371
28531W        W44665   1.431  16.575  13.252  0.0890 -0.2857 -0.0346
28532W        W44666   6.798  10.263   1.388  0.0182 -0.0846 -0.2081
28533W        W44667   6.703  13.117   3.334  0.0690  0.1491  0.1115
28534W        W44668  17.652  12.260  10.631  0.1187 -0.0162  0.0788
28535W        W44669   2.825  10.223   1.419 -0.3140 -0.0382  0.1887
28536W        W44670   8.224   6.172  14.264 -0.0006 -0.0259  0.0051
28537W        W44671  10.640   0.225  15.053 -0.4110  0.1733 -0.1821
28538W        W44672   5.100  12.990   2.628 -0.2616  0.2288  0.0544
28539W        W44673  10.022   0.400   0.619 -0.1632  0.2563 -0.0159
28540W        W44674   6.759   9.997   3.744  0.3502 -0.1290 -0.2418
28541W        W44675   6.808  16.025  15.712 -0.1575  0.0728 -0.0497
28542W        W44676  15.935   2.064   1.193 -0.1479  0.0324 -0.0212
28543W        W44677   8.020   8.913   4.409  0.0374  0.0501  0.2203
28544W        W44678   3.379  17.715   5.536 -0.0073  0.0109 -0.2587
28545W        W44679  12.996  18.390   0.913 -0.2327 -0.1598 -0.0050
28546W        W44680   5.232   8.078  12.379 -0.0642 -0.0928  0.3469
28547W        W44681   2.244   7.420  11.738 -0.5550 -0.1811  0.1171
28548W        W44682  14.580   8.414   3.548 -0.0238  0.5080 -0.0197
28549W        W44683  15.702  13.790  12.429  0.1311 -0.2655  0.1159
28550W        W44684  10.693  18.134   1.630 -0.1787  0.2048  0.0384
28551W        W44685  15.554   0.272   3.442  0.1493 -0.1667  0.2700
28552W        W44686  11.548  13.228   4.590  0.3461  0.0563 -0.4413
28553W        W44687  17.092   8.814   0.355 -0.2107 -0.0321 -0.1889
28554W        W44688   3.923  11.049  14.186 -0.1926 -0.0015  0.1173
28555W        W44689   5.620   1.701  12.100  0.0034  0.2793 -0.1410
28556W        W44690  14.153   9.451  12.483  0.2347 -0.0235 -0.0877
28557W        W44691   9.231   9.039   3.697  0.1613 -0.0369  0.0498
28558W        W44692  12.547  13.594   3.275  0.0126 -0.2307  0.0868
28559W        W44693   0.725  10.654  14.287 -0.0924 -0.0859 -0.3686
28560W        W44694   3.336   7.848   0.119  0.1567 -0.2104  0.2459
28561W        W44695   2.295   0.809   4.536 -0.4230 -0.0867 -0.1138
28562W        W44696  12.092   0.092  13.077 -0.0802 -0.1190  0.0388
28563W        W44697  14.483  15.351  10.395 -0.0934  0.0743 -0.1451
28564W        W44698  14.656  11.837   1.499  0.1495  0.0151 -0.1726
28565W        W44699   7.638   3.192   0.926  0.2254 -0.1568 -0.4603
28566W        W44700   9.352   4.741  11.531  0.1783  0.0050 -0.2582
28567W        W44701   9.078  11.822  14.385 -0.2655  0.1451  0.0629
28568W        W44702   8.185  11.382  14.978  0.2366  0.0173  0.0910
28569W        W44703  13.259   7.353  15.691 -0.0097  0.0411  0.1109
28570W        W44704   7.720   9.078   3.714  0.0700 -0.0401  0.0601
28571W        W44705  10.450   4.314   4.285  0.0571 -0.1947  0.2192
28572W        W44706   8.916   1.672  12.536  0.2809  0.1649  0.2301
28573W        W44707  14.638  17.836   3.328 -0.1392 -0.3886 -0.0874
28574W        W44708   3.517   4.077  13.744 -0.0566 -0.2001 -0.0371
28575W        W44709   3.668  15.210   2.348  0.3128  0.0964 -0.0883
28576W        W44710   3.368  16.610  15.229 -0.0795  0.1706 -0.0677
28577W        W44711   2.856   5.198  10.993 -0.2400 -0.2990  0.0447
28578W        W44712  14.433   7.444   0.327  0.1787 -0.0975  0.0017
28579W        W44713   1.392   1.056  13.950  0.1127 -0.1090 -0.2093
28580W        W44714   7.716   9.890   1.676  0.0448 -0.2610  0.0611
28581W        W44715  15.621  13.841  15.268 -0.0326 -0.0764  0.2771
28582W        W44716   9.460   4.276  14.964 -0.2977  0.1977  0.0293
28583W        W44717   9.658  10.364  14.278 -0.0611 -0.0284 -0.1748
28584W        W44718  12.587  13.042  12.738 -0.1337  0.2524  0.0308
28585W        W44719   4.206  16.159   2.590  0.0394  0.5998 -0.0165
28586W        W44720   4.091   0.858   4.055  0.0034  0.0518 -0.0354
28587W        W44721   6.995   4.558  11.692 -0.4800 -0.2078  0.0319
28588W        W44722  11.877   8.233  13.885 -0.2556 -0.0499  0.0682
28589W        W44723  12.379  15.047  13.680  0.0925  0.0398  0.1075
28590W        W44724  17.574   5.222  13.093 -0.2480  0.0946 -0.2349
28591W        W44725  16.365  14.016   2.622 -0.0015 -0.1161 -0.2909
28592W        W44726  12.756  12.104   3.497  0.2835  0.5108 -0.2522
28593W        W44727  11.938   1.146  11.923 -0.0721  0.1898 -0.2402
28594W        W44728   0.163  10.250   4.434  0.0150  0.0722 -0.2098
28595W        W44729   8.508  15.675   0.993  0.0026 -0.0568 -0.2463
28596W        W44730  18.244  17.184   0.191 -0.0822 -0.0234 -0.0940
28597W        W44731  11.750   5.337   2.949 -0.0770 -0.0414 -0.0618
28598W        W44732   5.790   0.799   3.517 -0.3383  0.1251 -0.2648
28599W        W44733  10.709  11.195   3.612 -0.1024  0.1210  0.1014
28600W        W44734   8.332  17.161   1.214  0.1028  0.0567  0.2285
28601W        W44735   4.730  15.881   3.954  0.3939 -0.1248 -0.0433
28602W        W44736  13.548   2.304  15.623  0.1597 -0.0825  0.0688
28603W        W44737  10.855  16.889  13.425 -0.0904  0.2356 -0.3014
28604W        W44738   4.032  16.171   5.982  0.2246  0.1655 -0.1263
28605W        W44739  11.492  16.138   3.140 -0.3420 -0.1225 -0.2036
28606W        W44740   2.885  13.917  15.191 -0.1031  0.0870 -0.0160
28607W        W44741  16.909  15.125  14.273  0.1189  0.0440  0.0857
28608W        W44742   8.224  14.313   4.745 -0.1903  0.0233  0.1710
28609W        W44743  10.153  17.580   1.346  0.0800 -0.0590 -0.2270
28610W        W44744  15.440   9.466   4.491 -0.1954 -0.0334 -0.2187
28611W        W44745   0.683   0.575   3.542 -0.1549  0.1917 -0.0311
28612W        W44746   9.314  15.971   5.499 -0.1712  0.0092 -0.1146
28613W        W44747   0.801  13.378  13.409 -0.1985 -0.1743  0.0740
28614W        W44748   6.162  18.071   4.431  0.1329 -0.0778 -0.1779
28615W        W44749  11.334  17.336  14.441 -0.0135 -0.0272  0.0958
28616W        W44750   6.555   4.067  14.760 -0.2590 -0.0282  0.3101
28617W        W44751  11.252   3.490   4.168 -0.2981 -0.2590  0.0885
28618W        W44752   0.316  14.650   2.614 -0.0204  0.1300 -0.0491
28619W        W44753  15.895   4.592   4.876 -0.0261  0.0472  0.0560
28620W        W44754   4.616   9.853  10.921 -0.0999  0.2197  0.1441
28621W        W44755   9.010   6.805  15.769 -0.2532  0.1466  0.3336
28622W        W44756  12.265  17.700   1.938 -0.0469  0.0925 -0.1010
28623W        W44757  18.088  12.599   2.287  0.0217 -0.1091  0.2027
28624W        W44758  11.956  16.034  14.650 -0.2959 -0.0489 -0.1971
28625W        W44759   1.038   2.515   4.525 -0.0484  0.1149  0.0244
28626W        W44760   0.252  14.621  14.781 -0.0258  0.1334  0.0293
28627W        W44761  14.020  11.297  11.909 -0.0118  0.1475  0.4442
28628W        W44762  10.290  14.353  11.513  0.2410 -0.2386  0.1713
28629W        W44763   4.976  10.139   3.142  0.0601 -0.1130  0.0256
28630W        W44764   2.403  15.338   1.646 -0.3996 -0.0700 -0.4526
28631W        W44765   5.968  13.925  12.551  0.3753 -0.0997  0.0842
28632W        W44766  16.823   0.270  13.170 -0.3249  0.0054 -0.5693
28633W        W44767  16.840   6.398   3.250 -0.2060 -0.0621 -0.0243
28634W        W44768   8.952  17.371   1.780 -0.0346 -0.0984  0.1072
28635W        W44769   5.180  12.864   9.882  0.1169  0.1814  0.0137
28636W        W44770  15.602  13.946   2.964  0.0234 -0.1351 -0.2291
28637W        W44771  17.803   9.341   2.590  0.2076  0.0773  0.3784
28638W        W44772  17.784  12.075   4.969 -0.0604 -0.4536  0.2236
28639W        W44773  18.082   3.884  11.963  0.2463 -0.2160 -0.2114
28640W        W44774   8.194  15.829   2.436  0.0739  0.0326 -0.0126
28641W        W44775   7.365  12.128  13.734  0.1336 -0.2627 -0.2556
28642W        W44776  12.170   0.552   1.905 -0.0895  0.0507  0.1047
28643W        W44777   1.873   2.383  13.690 -0.3905  0.1211 -0.0424
28644W        W44778   5.516   7.830   3.131  0.5482 -0.1687  0.0515
28645W        W44779  14.319   6.667   3.295  0.1800  0.1945 -0.2424
28646W        W44780  11.093   2.641   1.792  0.1873  0.0970  0.0875
28647W        W44781   7.205   0.977  12.799  0.0906 -0.0585 -0.1778
28648W        W44782   1.943  16.313   0.625 -0.2668 -0.0357  0.1249
28649W        W44783   0.566  14.899   0.479 -0.0735 -0.2476 -0.0279
28650W        W44784  17.191   0.411   3.461 -0.2211  0.0428 -0.1139
28651W        W44785   6.705   1.310   3.205 -0.1999 -0.1775 -0.2155
28652W        W44786   8.764   6.878  15.271 -0.1765 -0.0713  0.0401
28653W        W44787  13.708   8.397   5.356  0.2089  0.0931  0.0943
28654W        W44788   0.831   4.005   1.251 -0.2452 -0.1136  0.0898
28655W        W44789   5.071   9.007  12.177 -0.0141 -0.1655 -0.0645
28656W        W44790  16.366  10.272  12.978 -0.1752 -0.0366  0.0285
28657W        W44791  15.476   2.271   5.814 -0.1361 -0.1085 -0.0073
28658W        W44792   5.409  17.440  12.820 -0.1052 -0.3074 -0.1027
28659W        W44793   5.545  10.800   1.256 -0.1615 -0.2736 -0.1771
28660W        W44794  18.200  16.226   2.332 -0.0726  0.4365 -0.2730
28661W        W44795  15.968   8.428   3.971 -0.1222 -0.1101 -0.1183
28662W        W44796  14.073   1.626   0.289 -0.1445 -0.0812 -0.1920
28663W        W44797   6.203   0.810   5.759 -0.0137  0.0904 -0.2313
28664W        W44798   7.378   7.558   3.769 -0.0891  0.0998 -0.1831
28665W        W44799  13.810   5.378   5.361  0.1922 -0.0843 -0.1719
28666W        W44800  11.490   1.134   0.219 -0.0136  0.3179 -0.1316
28667W        W44801  16.841   6.073   2.299  0.1936 -0.0297  0.0211
28668W        W44802   2.829  13.922  12.619  0.0120  0.1357 -0.0304
28669W        W44803   4.056  17.364  13.314 -0.0752 -0.3247  0.1531
28670W        W44804   8.693  14.722   0.521 -0.0700 -0.0727 -0.0362
28671W        W44805   5.091   2.625   0.727  0.0809  0.0382 -0.1678
28672W        W44806   1.141  14.389  13.523 -0.1075  0.0042  0.1917
28673W        W44807  12.236   9.192   2.325  0.3469 -0.2121  0.1692
28674W        W44808   0.534  12.710  11.196 -0.1559 -0.0189 -0.2501
28675W        W44809   2.774   1.212  11.984 -0.0809 -0.1364  0.3144
28676W        W44810  11.628  17.491   1.513 -0.0923  0.0168 -0.1893
28677W        W44811   0.033   7.838  12.595  0.0275  0.1636 -0.1802
28678W        W44812   7.192   0.876  15.358  0.0228  0.0709 -0.0542
28679W        W44813  13.685   3.686  14.532  0.0051 -0.0450  0.0462
28680W        W44814  12.158   8.811   4.605  0.0035  0.0024  0.0717
28681W        W44815  14.815   6.576   1.426  0.2050 -0.3070 -0.0994
28682W        W44816  14.584  11.449  12.067 -0.1913 -0.4341  0.0110
28683W        W44817   2.697   0.230   5.057 -0.2077 -0.2633 -0.0353
28684W        W44818  17.421   0.462  14.766 -0.0366 -0.1776 -0.1168
28685W        W44819   5.702  14.627   0.307 -0.1370 -0.0899  0.0851
28686W        W44820   0.336   4.167  12.445  0.2650 -0.0410 -0.2574
28687W        W44821   6.239   6.915   0.255 -0.0494  0.0024 -0.0014
28688W        W44822  10.933   4.354   4.004 -0.2665 -0.0816 -0.1700
28689W        W44823   2.193   3.052   2.252  0.0991 -0.1504 -0.1995
28690W        W44824  18.462  13.736  14.089 -0.1768 -0.3778  0.1265
28691W        W44825  16.223   1.868   0.703 -0.1604  0.0569 -0.0129
28692W        W44826  14.025  15.642  15.443 -0.2323 -0.0603  0.1553
28693W        W44827   1.423  16.631   1.878 -0.1193  0.2792 -0.1585
28694W        W44828   9.965  10.608   3.629 -0.1083 -0.1397  0.0226
28695W        W44829   1.621  11.603   3.237  0.1092 -0.2424  0.4178
28696W        W44830  12.874   4.392   4.111 -0.0000  0.0373  0.1573
28697W        W44831  17.607  17.381   4.745 -0.2209 -0.1910  0.1344
28698W        W44832   3.456  10.473   2.273  0.1693  0.0473  0.2922
28699W        W44833   9.606  14.740  12.135 -0.2253  0.1724  0.0314
28700W        W44834   6.146   3.749   0.825 -0.0542  0.3792 -0.0459
28701W        W44835  13.382  13.189   1.565  0.0939 -0.0538  0.0724
28702W        W44836  15.479   0.287  15.803 -0.1541  0.0147  0.0938
28703W        W44837  17.431   3.023   0.674 -0.1822  0.1047  0.0237
28704W        W44838  16.374   4.369  14.697 -0.1780 -0.0531  0.2674
28705W        W44839   2.752   2.491   3.853 -0.2855  0.0805 -0.0455
28706W        W44840   0.894  14.577   5.284  0.1066  0.1000  0.1244
28707W        W44841   6.031   1.437   5.148  0.2934 -0.2214  0.3313
28708W        W44842  13.768   1.591  11.531 -0.2603  0.0984 -0.5211
28709W        W44843   2.953   3.748  13.047  0.4247 -0.1067 -0.1782
28710W        W44844   0.834   5.517  10.127  0.1771  0.3104 -0.3360
28711W        W44845  10.245   8.713  12.973  0.1056 -0.1870  0.0954
28712W        W44846   9.622  16.958  14.768  0.0996 -0.0848  0.0086
28713W        W44847   2.544   8.292   4.139  0.2858 -0.0490  0.0240
28714W        W44848   0.931   3.303   4.051  0.0962 -0.1375  0.1301
28715W        W44849   6.722   2.871  11.283  0.0875 -0.2327  0.2570
28716W        W44850  11.741   0.288   4.138  0.1271  0.1068 -0.0431
28717W        W44851  10.832   7.280   0.588 -0.0727  0.3444  0.1397
28718W        W44852   1.558  10.961  10.586  0.0896  0.2252 -0.0570
28719W        W44853   0.438   8.854  12.071  0.0902  0.0317  0.0998
28720W        W44854  17.334   7.772  15.254 -0.2104  0.1525  0.0594
28721W        W44855   1.675  15.881  14.273  0.3722  0.1223 -0.0790
28722W        W44856  12.840  13.927   0.890 -0.0084  0.1519 -0.0177
28723W        W44857  17.453  12.650  14.002 -0.0793  0.3117  0.0797
28724W        W44858   8.158   4.495   5.195  0.0324  0.0185 -0.0594
28725W        W44859   6.158  10.446  15.677 -0.1464 -0.0456 -0.0812
28726W        W44860  15.752   4.095  13.565 -0.0435 -0.0750 -0.2772
28727W        W44861  12.002  10.922  12.555  0.0652  0.0378 -0.0378
28728W        W44862   9.401  14.563   1.713 -0.2301 -0.0154 -0.0251
28729W        W44863  11.245   2.214   2.167  0.1283  0.0402 -0.1871
28730W        W44864   1.085   1.572   2.758 -0.0490  0.2542 -0.0870
28731W        W44865   6.696   2.321   2.458  0.0688 -0.1177  0.1352
28732W        W44866   4.470  10.221  13.156 -0.2366 -0.3245  0.2390
28733W        W44867  13.880   9.282  15.328 -0.1058 -0.0512 -0.3623
28734W        W44868   6.003   5.626  11.258 -0.1565 -0.0799  0.2678
28735W        W44869   1.069  16.838   4.008  0.0932  0.2008  0.1570
28736W        W44870  13.181   7.992   1.498 -0.1217 -0.0177 -0.1316
28737W        W44871   5.041  13.851  13.586  0.1055  0.0414 -0.0846
28738W        W44872  13.538   4.075  11.741  0.2461 -0.0840 -0.1012
28739W        W44873   5.957   4.365   3.121 -0.1875  0.1108  0.2014
28740W        W44874  12.993   2.491  11.765 -0.0813 -0.1488 -0.2587
28741W        W44875  13.272  10.482  13.713 -0.0346  0.1389 -0.0468
28742W        W44876  14.329  18.243  11.634 -0.1679 -0.0568  0.3048
28743W        W44877  15.841  12.623   2.406 -0.1310  0.1528 -0.0519
28744W        W44878   2.427   8.328   3.650  0.0651  0.0147 -0.1467
28745W        W44879   1.331   5.482   3.161  0.0989 -0.1131 -0.0412
28746W        W44880  17.116   6.150   4.671 -0.0894 -0.1966  0.0660
28747W        W44881  11.863  15.957   3.938  0.3818  0.0494 -0.0339
28748W        W44882  11.799   9.063   4.968 -0.2019  0.1790 -0.2995
28749W        W44883  17.432  14.028  15.290  0.0536 -0.0063 -0.2690
28750W        W44884   4.265  12.927  13.037  0.0584  0.0940 -0.2444
28751W        W44885   6.363   2.179   5.365  0.1646 -0.1167  0.1761
28752W        W44886   7.932   7.320   5.076  0.0358  0.0972 -0.2172
28753W        W44887   7.341  14.495   5.173  0.0610 -0.0889  0.0148
28754W        W44888  11.674   7.939   2.394  0.0189  0.0071  0.1901
28755W        W44889  12.140  13.689  11.125 -0.2782  0.1558  0.0203
28756W        W44890   6.093  13.994  11.546 -0.3041 -0.0284  0.0822
28757W        W44891  10.525   4.232   4.872 -0.3764  0.0124 -0.0835
28758W        W44892   0.001   4.634  14.573 -0.0160 -0.2495 -0.0706
28759W        W44893   7.727   7.319  13.442 -0.0681  0.1316  0.1082
28760W        W44894  17.681   4.957   0.783 -0.0427  0.1648  0.1234
28761W        W44895   4.694   5.210  12.993  0.1217  0.1936  0.1009
28762W        W44896   7.107   4.535   4.016 -0.1091 -0.2221 -0.0375
28763W        W44897  11.362   7.406  13.535 -0.0489  0.0030  0.0014
28764W        W44898   0.009   0.827   0.439  0.0201  0.1084 -0.2027
28765W        W44899  10.028   5.253  13.221 -0.2380  0.0211 -0.2064
28766W        W44900   1.364   6.766  15.275 -0.1675  0.0153 -0.0532
28767W        W44901  12.748   2.716   0.118  0.1137  0.0692 -0.0108
28768W        W44902   8.924   6.743   4.872 -0.1350 -0.0782  0.2446
28769W        W44903  12.193  14.132   2.135  0.1856 -0.0881 -0.2240
28770W        W44904  17.055  13.800   0.030  0.0530 -0.0079  0.1480
28771W        W44905  12.249   1.780   0.052  0.1245  0.0510 -0.2747
28772W        W44906  16.676  16.039   1.700 -0.1758  0.0818 -0.0508
28773W        W44907  10.666  12.770   2.703  0.0184 -0.0715  0.0748
28774W        W44908   2.811  11.345  12.645 -0.2594  0.0903 -0.3888
28775W        W44909  12.530   1.078  12.841  0.2048 -0.4169  0.3584
28776W        W44910  10.052   9.096  13.712 -0.0394 -0.0299  0.0548
28777W        W44911   1.791   9.792  11.823  0.0288  0.3483 -0.1681
28778W        W44912  18.439   2.300   2.275  0.1189  0.0536 -0.1000
28779W        W44913   2.179   3.103  13.226  0.1579  0.0534  0.1974
28780W        W44914   7.377  11.904  11.693 -0.0003 -0.1578  0.1072
28781W        W44915   2.337   8.270   1.495  0.2470  0.1771  0.0430
28782W        W44916   4.374   0.008   4.952 -0.2524 -0.1363  0.3283
28783W        W44917   2.975   4.373   3.956  0.0156  0.0081 -0.2515
28784W        W44918   4.111  10.801   1.833 -0.0930  0.3036 -0.4798
28785W        W44919  15.857   3.728   5.840 -0.1938  0.0358  0.1071
28786W        W44920   6.815  14.813   0.418  0.2164  0.4940  0.0047
28787W        W44921  14.545   1.261   3.307 -0.3016 -0.0156 -0.3036
28788W        W44922   5.991   0.311  13.562 -0.1406  0.2086 -0.0810
28789W        W44923  12.207  12.601   4.129  0.2111  0.1325  0.1567
28790W        W44924   8.539   1.727   2.277 -0.0634 -0.0080 -0.2178
28791W        W44925  18.132  18.332   4.502 -0.1674 -0.0069  0.0864
28792W        W44926   6.812   8.836  15.337 -0.0723  0.0439 -0.1022
28793W        W44927  15.635   2.069   0.668  0.1876  0.1950 -0.1322
28794W        W44928   8.336   3.616   2.439 -0.0306 -0.0971 -0.3326
28795W        W44929   4.791   4.073   2.694 -0.0541 -0.0347  0.1141
28796W        W44930   8.394   8.504  12.416  0.2984 -0.0273  0.0386
28797W        W44931   6.168  14.207   4.495 -0.2720 -0.2254  0.2784
28798W        W44932   0.999  18.047  13.228 -0.2868 -0.0010  0.0830
28799W        W44933  13.658  14.181  14.902 -0.0379 -0.2434 -0.1642
28800W        W44934   5.419  13.231  13.089 -0.0906  0.0983  0.4529
28801W        W44935   3.324  11.336  11.464 -0.1525 -0.1913 -0.2788
28802W        W44936   2.721   9.071   4.263 -0.2845 -0.1996 -0.2272
28803W        W44937   5.849  13.554   3.316  0.0898 -0.1070  0.3738
28804W        W44938   5.577  12.096   0.404 -0.1750  0.0800  0.1342
28805W        W44939   2.735   2.113   5.715 -0.0422  0.2258 -0.0761
28806W        W44940   6.870  12.553  14.563 -0.0174 -0.1281 -0.0833
28807W        W44941   7.468  18.448   1.163  0.2973  0.0767  0.0850
28808W        W44942   7.612  10.391  13.573 -0.1645 -0.1572 -0.0811
28809W        W44943  16.802   1.574  15.626  0.2071  0.2877 -0.1200
28810W        W44944   2.186  16.711  12.113 -0.2379 -0.0233 -0.0229
28811W        W44945  14.218  17.971  13.816 -0.0884 -0.1911 -0.0810
28812W        W44946   9.226   4.728  15.703  0.2184  0.1358  0.0862
28813W        W44947   1.669  12.807  13.350 -0.4456  0.1553 -0.1258
28814W        W44948  12.332   1.954  12.997 -0.1058  0.3582  0.3165
28815W        W44949  17.318   9.061   4.375 -0.0717 -0.1118  0.2009
28816W        W44950  14.484   3.513   5.193  0.0135  0.0099 -0.2635
28817W        W44951   5.428  17.010  12.589 -0.1009  0.0166  0.0216
28818W        W44952  10.263  14.091   1.054 -0.2748 -0.3289 -0.2979
28819W        W44953  13.212  11.943   3.398  0.1949 -0.0550  0.0478
28820W        W44954   3.719  11.797  14.947 -0.0544  0.0299 -0.0466
28821W        W44955   1.491   1.242  12.593  0.2092 -0.1642 -0.1046
28822W        W44956  11.428  12.396  14.705 -0.1326 -0.2187 -0.2967
28823W        W44957   9.705  18.171   3.948 -0.1117 -0.2900 -0.1198
28824W        W44958   5.701   1.717  13.290  0.0725 -0.0645 -0.2897
28825W        W44959  17.874   0.757   1.838 -0.1127 -0.2164 -0.0057
28826W        W44960   8.266   0.301   0.987 -0.1463  0.1968  0.1851
28827W        W44961  15.557  16.647  15.644 -0.0474  0.0316 -0.1098
28828W        W44962   9.637  10.774  13.506 -0.2717  0.0405 -0.5486
28829W        W44963  11.390  13.372  15.275  0.0408  0.2092  0.0888
28830W        W44964  18.189  12.049   2.321 -0.0663 -0.0681  0.1365
28831W        W44965   6.107  11.828   3.017 -0.1260  0.1124  0.1048
28832W        W44966   0.227   9.829  13.940 -0.0544  0.1051 -0.0087
28833W        W44967   7.483   3.512  15.559 -0.0276  0.0284  0.0928
28834W        W44968  13.343  13.199  14.330  0.0475  0.0004 -0.1533
28835W        W44969  14.742   5.084  10.204 -0.1410  0.2358  0.2082
28836W        W44970   0.844  12.658  12.757  0.1830 -0.0671  0.0135
28837W        W44971  13.258   6.650  11.570 -0.2923  0.2784 -0.0797
28838W        W44972   8.144   1.844   4.517  0.0474  0.2361 -0.1223
28839W        W44973   3.708  16.267   2.446  0.2151  0.1331 -0.0797
28840W        W44974   9.475   4.264  15.755  0.1436  0.1260 -0.0633
28841W        W44975   7.392  17.864   3.263  0.0226  0.1697 -0.3108
28842W        W44976   1.366  16.631  15.833  0.0364 -0.2238 -0.0346
28843W        W44977   7.197   0.655   3.971  0.1737  0.1501  0.0364
28844W        W44978   3.473  10.661  15.639 -0.0603 -0.0850 -0.0342
28845W        W44979   1.707  18.380   2.949  0.0769  0.0048 -0.3283
28846W        W44980  15.406   9.182  10.911 -0.0884 -0.2511  0.0244
28847W        W44981  11.774  14.002   1.701 -0.1305 -0.0185  0.1016
28848W        W44982   8.237   5.577   5.247  0.1026 -0.1578 -0.1246
28849W        W44983   1.752   3.925   1.485  0.0200  0.0020  0.1204
28850W        W44984   9.660   9.322   2.799  0.0080 -0.1322 -0.1426
28851W        W44985   8.798  11.637   2.942  0.2040  0.2713  0.0763
28852W        W44986  15.049   0.394   0.109 -0.1136 -0.1714 -0.3493
28853W        W44987   8.263  13.486  11.256  0.0974 -0.1040 -0.0528
28854W        W44988  18.005  11.048   2.442 -0.0735  0.2496 -0.0154
28855W        W44989   0.599   7.981  11.719 -0.0291 -0.1337 -0.5602
28856W        W44990   9.042   6.137   4.614 -0.0807 -0.1495 -0.1480
28857W        W44991   6.112  14.334   0.047  0.3751  0.1748  0.0798
28858W        W44992   0.304   7.396  12.650  0.0542  0.2866 -0.1962
28859W        W44993   6.535   2.804   2.361 -0.0509  0.1745  0.0740
28860W        W44994   4.492  16.210  15.123 -0.1123 -0.2347 -0.2204
28861W        W44995   7.050   0.976   5.405 -0.1753  0.2462  0.1890
28862W        W44996   9.325  15.893   0.477  0.0872 -0.1628 -0.1616
28863W        W44997   2.719  15.334   2.090 -0.0027  0.0012  0.0355
28864W        W44998   7.696  12.785  11.892 -0.4080 -0.0238 -0.1405
28865W        W44999   8.552   5.015  12.514  0.1595 -0.1278 -0.5049
28866W        W45000   4.963   1.579  14.347  0.3859 -0.0811  0.2253
28867W        W45001   1.211   5.089  15.172 -0.0343 -0.2778  0.1214
28868W        W45002  16.757   3.595  11.732 -0.0928 -0.1018  0.0149
28869W        W45003   8.929   5.251   0.835  0.0272 -0.0952  0.0341
28870W        W45004   0.764   0.717  15.794  0.1722  0.3908 -0.0701
28871W        W45005   2.489  15.392  10.951  0.1839  0.1044  0.1457
28872W        W45006  11.124   9.724   0.341 -0.2369  0.0139  0.0047
28873W        W45007  15.683  16.089  13.544 -0.0910 -0.0995  0.1576
28874W        W45008  15.256   3.660  15.849  0.1502 -0.1433 -0.1535
28875W        W45009   4.265   8.505  11.169  0.1439  0.3259  0.1212
28876W        W45010  17.799   3.939   3.334  0.1139 -0.0203  0.0808
28877W        W45011   2.415  15.742   0.767 -0.2528 -0.1055 -0.1825
28878W        W45012  16.307   5.046   1.509  0.0820 -0.0115  0.0128
28879W        W45013  17.279   8.312   1.184 -0.0730 -0.2665  0.0820
28880W        W45014  17.443   3.854   2.943  0.2485 -0.0302  0.1558
28881W        W45015  17.190  11.177  13.566  0.2315 -0.1300 -0.2200
28882W        W45016   5.419  11.011  10.980  0.1479  0.1622 -0.1674
28883W        W45017  16.512   7.844  15.013  0.1547 -0.0475 -0.2080
28884W        W45018   4.457  14.895   1.125 -0.0363  0.1416  0.2131
28885W        W45019   7.827   6.272   0.266 -0.1319  0.1250 -0.1960
28886W        W45020   0.656   1.493   1.652  0.0595  0.1639  0.0152
28887W        W45021   2.561   3.746  11.501  0.1047  0.2054 -0.0167
28888W        W45022   8.103  10.523  13.355  0.0816 -0.1928  0.1261
28889W        W45023   6.351   2.037   2.706 -0.0457  0.0797  0.1394
28890W        W45024  13.970   5.458   0.081 -0.1742  0.1084 -0.0009
28891W        W45025   1.408   3.089  11.632 -0.2249 -0.0959  0.1662
28892W        W45026  12.104   4.044  12.235 -0.1819  0.1158 -0.1668
28893W        W45027   9.557   5.959   1.078 -0.1329  0.1795 -0.1466
28894W        W45028  11.291   0.616  13.810  0.1344 -0.2303  0.1284
28895W        W45029   8.377   1.776   5.536  0.1155  0.3151 -0.1675
28896W        W45030   5.634   8.703  12.022 -0.0571  0.1779 -0.0403
28897W        W45031  16.151   7.889  14.084 -0.0419  0.2112 -0.3262
28898W        W45032   4.662   0.917  13.533 -0.1151  0.0012  0.1217
28899W        W45033   5.461  16.084   2.070 -0.1274 -0.1221  0.3042
28900W        W45034  15.359   9.971   4.471 -0.3950  0.0047  0.0707
28901W        W45035   5.257   8.796   1.662  0.0001  0.3387 -0.0003
28902W        W45036  17.380  17.151   3.100  0.3208  0.0353 -0.1490
28903W        W45037  17.898   7.281   5.733 -0.0614 -0.5111 -0.0670
28904W        W45038   3.232   3.192  12.142  0.1224 -0.2278 -0.0840
28905W        W45039  11.345   7.777   2.763 -0.1886  0.1728  0.1049
28906W        W45040   4.857   5.693  15.828 -0.1649 -0.0594 -0.0417
28907W        W45041   2.458   0.349   1.082  0.0938 -0.1800  0.1124
28908W        W45042  10.694  16.604   1.192 -0.0726 -0.0585 -0.1852
28909W        W45043  15.899  15.838   1.394  0.1871  0.0581  0.2618
28910W        W45044   4.840   5.947  13.438  0.2048  0.0314  0.3789
28911W        W45045   7.900  12.097  13.064  0.0130  0.0933  0.3211
28912W        W45046   8.686  10.849   3.280  0.0543  0.2687 -0.1587
28913W        W45047   9.027  17.351  13.493 -0.0849 -0.1097  0.3601
28914W        W45048  16.921   4.687   5.228  0.1325 -0.2214  0.0211
28915W        W45049  11.503  11.186   2.026  0.2604  0.2664 -0.1370
28916W        W45050   9.121   8.705   2.013  0.0956 -0.0513  0.0063
28917W        W45051   0.626  15.058   1.754  0.1834  0.2225 -0.1326
28918W        W45052   8.386   6.150   5.073 -0.2893  0.1537  0.0565
28919W        W45053   9.419   3.374   4.777  0.1816  0.4803  0.2674
28920W        W45054   7.936  14.235   0.964  0.0022 -0.3181 -0.0805
28921W        W45055   9.407  12.338   6.259  0.0398  0.2091  0.0366
28922W        W45056   7.739   8.236  15.680  0.0857 -0.0935  0.2029
28923W        W45057  17.284  17.874   0.051 -0.2484  0.2236 -0.3232
28924W        W45058   7.511   2.910   4.738 -0.2107 -0.1538  0.0182
28925W        W45059   3.571   2.874  10.250  0.3416  0.2425  0.3818
28926W        W45060  13.358   2.191   4.238 -0.0972 -0.1933 -0.0962
28927W        W45061  16.147   7.302  11.123  0.2746 -0.0377  0.0710
28928W        W45062  10.809  13.986  15.244 -0.1031  0.3097  0.0158
28929W        W45063  14.956   6.536  10.842 -0.1679  0.0021  0.2506
28930W        W45064   5.967   1.196  13.163  0.0181 -0.0184  0.0040
28931W        W45065   1.101   9.310  15.412 -0.1718  0.0745 -0.0907
28932W        W45066   2.564  11.607  15.250 -0.1538 -0.0225  0.1807
28933W        W45067  11.710   2.214   3.826 -0.1004  0.1770 -0.0017
28934W        W45068   8.800   7.940   0.840 -0.0673 -0.1041 -0.0088
28935W        W45069  18.423  12.967  11.939  0.3586 -0.2701 -0.2560
28936W        W45070   3.683  10.904  11.418 -0.1412  0.1042  0.1282
28937W        W45071  13.319   5.164   0.786  0.1413 -0.1950  0.0242
28938W        W45072   4.866   7.934   2.157  0.2595 -0.0993  0.1737
28939W        W45073   6.633  11.603  13.560  0.0460  0.1044 -0.2418
28940W        W45074   5.561  16.705  14.388 -0.0983 -0.1589 -0.0252
28941W        W45075  17.503   7.101  13.834  0.1694 -0.1197 -0.1533
28942W        W45076  11.269   6.751  13.556  0.1356 -0.2929 -0.2480
28943W        W45077   4.366   9.265   2.181 -0.2315 -0.0551  0.0320
28944W        W45078   8.763   2.334   0.636  0.0005  0.3514  0.0320
28945W        W45079  10.089   2.223   1.062  0.4719  0.0912  0.3271
28946W        W45080   9.633   2.826   1.223 -0.1117 -0.1102  0.0008
28947W        W45081   9.116   2.919   2.618 -0.1794 -0.0481  0.1933
28948W        W45082   6.367  12.288   2.204 -0.1492 -0.0177  0.0715
28949W        W45083  16.626  11.360  14.670  0.4354  0.3050  0.0523
28950W        W45084   9.352  11.614   1.524  0.0712 -0.1353  0.0891
28951W        W45085   0.694  13.408   4.505  0.1885  0.0412 -0.1909
28952W        W45086  11.160   6.759   0.924 -0.2825  0.2856 -0.1821
28953W        W45087   3.334   4.065   3.225 -0.4210 -0.1999  0.1957
28954W        W45088  17.914   8.156  12.853 -0.6423  0.1491 -0.0781
28955W        W45089   7.817   3.283  15.840 -0.1069 -0.0461  0.0274
28956W        W45090  10.769  13.256   3.585 -0.2509 -0.1559 -0.1054
28957W        W45091   0.326  15.765  14.307 -0.0815 -0.1067 -0.0594
28958W        W45092   3.268   8.348  14.571  0.0961  0.2203 -0.0161
28959W        W45093  17.488   8.810  15.158 -0.3137  0.0096  0.2137
28960W        W45094  13.084   0.336   3.033 -0.3297 -0.1304 -0.1502
28961W        W45095   1.057   6.756   2.941 -0.0815 -0.3587 -0.3384
28962W        W45096  10.506   2.531   2.671 -0.1290  0.1227  0.0716
28963W        W45097   0.486  14.325  11.206  0.2228 -0.0706  0.1850
28964W        W45098  11.754   3.313   4.285 -0.1805  0.2364 -0.2574
28965W        W45099  12.429   7.974  12.819 -0.0074  0.0747  0.0961
28966W        W45100   5.034   9.969  14.276  0.2485 -0.1495 -0.2265
28967W        W45101  13.529  10.762   2.594 -0.1077  0.2574 -0.1950
28968W        W45102  15.750   2.230   3.853 -0.1953 -0.1081 -0.0158
28969W        W45103  10.858   0.710  11.546 -0.1018  0.2404 -0.1900
28970W        W45104  18.034   8.127  11.021  0.0821 -0.0972  0.0223
28971W        W45105   9.232  17.421  13.959  0.1174  0.0743 -0.0805
28972W        W45106  12.221   7.637  11.445  0.1095  0.0199  0.2128
28973W        W45107   7.564  14.538   0.767 -0.0683 -0.0779 -0.0453
28974W        W45108   9.167  10.512   5.820 -0.0055  0.2326 -0.0568
28975W        W45109  18.046   5.276  10.730 -0.1172  0.2678  0.0742
28976W        W45110   5.258  12.952  13.481  0.0471  0.0736 -0.0358
28977W        W45111   9.783   6.688  14.462 -0.0273  0.2039  0.2030
28978W        W45112   6.377  13.566   3.414 -0.0264  0.2298 -0.1049
28979W        W45113   0.067  12.272  14.605  0.2027 -0.3200  0.1124
28980W        W45114   8.400   3.119   3.805  0.1677 -0.4354  0.1289
28981W        W45115   8.522   3.563  15.350 -0.0883 -0.0097  0.1947
28982W        W45116   1.170   4.912   1.718 -0.0944 -0.3339  0.4825
28983W        W45117   2.650  18.410   1.402  0.4100 -0.2467  0.0330
28984W        W45118  13.242   2.025   1.027 -0.1313  0.0045 -0.0541
28985W        W45119   1.586   6.734   2.338  0.1659  0.0573 -0.1516
28986W        W45120   3.069   5.744  13.131 -0.1963 -0.0729  0.1486
28987W        W45121  17.057   5.546  15.017 -0.0180  0.4208  0.0378
28988W        W45122  16.864   9.863  12.391 -0.0097  0.1752  0.2755
28989W        W45123  15.806   1.294  12.776 -0.4605 -0.0152 -0.1074
28990W        W45124  16.376  17.106   5.439  0.1613  0.0437  0.1316
28991W        W45125   8.713  12.954   5.770 -0.0541 -0.1633 -0.0099
28992W        W45126  15.423   4.358  10.884  0.0141 -0.1991  0.0023
28993W        W45127   0.776  15.197  11.666 -0.2675  0.1879 -0.3205
28994W        W45128  10.882   3.685   1.382 -0.3595  0.0657  0.1835
28995W        W45129   1.675  13.694   1.695  0.0299  0.0638 -0.0896
28996W        W45130   2.438   1.210  15.673 -0.0017  0.0686  0.0182
28997W        W45131   9.041   9.211   4.160 -0.1492 -0.1823 -0.2234
28998W        W45132  11.393  17.563  12.886 -0.2971  0.2390  0.2497
28999W        W45133  15.538  17.090  15.870  0.0564 -0.2724 -0.0176
29000W        W45134  16.014   5.503   2.913 -0.1050 -0.2246 -0.1494
29001W        W45135   9.012  10.051   3.718  0.2701 -0.0167  0.3718
29002W        W45136  11.513  14.315  12.567 -0.2140  0.0986  0.0171
29003W        W45137   3.709  10.965  13.774 -0.0055  0.0233  0.0424
29004W        W45138  16.089   6.562   0.047  0.4756 -0.2152 -0.0511
29005W        W45139  15.465   2.505   3.333  0.3876  0.1780 -0.1517
29006W        W45140  17.651  17.442  15.599 -0.1583  0.1542 -0.1149
29007W        W45141   9.246   2.346   0.375 -0.1360  0.0966  0.1456
29008W        W45142  12.051  18.068  13.322 -0.2019  0.1964 -0.0803
29009W        W45143  15.213   7.292  11.817  0.1169 -0.1545  0.0072
29010W        W45144   2.993   9.642   3.803 -0.2455  0.1620  0.1187
29011W        W45145  12.426  17.724   3.761 -0.2626  0.2341  0.0705
29012W        W45146   6.015   9.998  13.441  0.1037  0.0732 -0.1571
29013W        W45147  12.227   9.652  13.724  0.1922  0.2333  0.1717
29014W        W45148  14.634   5.213   3.280  0.1434  0.2068  0.1310
29015W        W45149   7.081   9.713  12.847  0.0792 -0.0264  0.1072
29016W        W45150  12.673  14.090  15.391  0.4031  0.0980 -0.1279
29017W        W45151   6.138   9.086   2.033 -0.5938 -0.0116  0.2123
29018W        W45152  12.954   0.841  12.695 -0.4361 -0.0656 -0.1152
29019W        W45153   3.090  10.599   5.003  0.1574 -0.3054 -0.0945
29020W        W45154  18.187  17.819   3.678  0.1930 -0.2417 -0.0807
29021W        W45155   0.991  17.173  15.173  0.0801  0.1469  0.1523
29022W        W45156  17.281  12.530   4.891  0.0754  0.1683  0.1781
29023W        W45157   9.006   2.228  11.607  0.2056 -0.1815 -0.0318
29024W        W45158  14.238   9.964  12.519  0.3365 -0.1159  0.0505
29025W        W45159   6.375   8.543  10.966  0.2271  0.2467 -0.0380
29026W        W45160  12.273   1.065   3.404  0.0804  0.1068 -0.1037
29027W        W45161   9.543   8.382   5.082  0.3097  0.2270 -0.1183
29028W        W45162  16.291   7.840  12.343 -0.1382 -0.2069  0.3506
29029W        W45163  14.455   4.857   6.019 -0.0066 -0.0566  0.3763
29030W        W45164  17.418   5.741  10.295  0.1249  0.0833  0.0293
29031W        W45165  16.916   3.240   0.680 -0.2565  0.2637  0.1647
29032W        W45166   4.701  16.430  11.414  0.3463  0.0371 -0.3072
29033W        W45167  18.387  16.337  13.097  0.1194  0.0060  0.2090
29034W        W45168   6.595   7.305  12.995 -0.0364  0.2210  0.3263
29035W        W45169  10.158  12.443   0.226  0.0309  0.1731  0.1608
29036W        W45170  12.975  11.019  12.799  0.1347  0.0488  0.1179
29037W        W45171   8.253  17.835   1.929 -0.0134 -0.1966  0.1500
29038W        W45172  13.436  13.182   2.090  0.0040  0.0631  0.0003
29039W        W45173   5.770   3.376   3.821 -0.2272  0.0706 -0.0921
29040W        W45174   8.585  11.659   4.127  0.0593  0.5626 -0.0535
29041W        W45175   3.334  16.399  11.336  0.0225 -0.0691 -0.0955
29042W        W45176   4.086  13.384  13.247  0.3486  0.2103  0.1999
29043W        W45177  15.992  13.665   2.834  0.3777  0.0732  0.0839
29044W        W45178  15.141  13.496   1.558 -0.1714 -0.0882  0.1172
29045W        W45179   4.186   9.464  11.122  0.0699  0.2524 -0.1061
29046W        W45180  12.313   0.982   3.885 -0.1732  0.3332  0.1367
29047W        W45181   7.461  16.329   1.073 -0.0966 -0.2591  0.1913
29048W        W45182   2.545   5.877  11.508  0.1431  0.1190 -0.1275
29049W        W45183  15.297   8.766  14.838  0.0479  0.0747  0.4082
29050W        W45184   2.012  17.879   1.980 -0.1040  0.1056  0.0979
29051W        W45185   3.166  10.270   3.124 -0.4436  0.0098  0.4260
29052W        W45186  14.045  13.730   2.471 -0.1059  0.2703  0.1336
29053W        W45187   9.940   8.914  14.267 -0.0118 -0.3252 -0.2195
29054W        W45188   2.653   5.868   3.772  0.0019 -0.2474  0.0431
29055W        W45189   5.725  14.319   3.606 -0.2060  0.0408  0.0262
29056W        W45190   4.039  13.136  14.026  0.1623  0.0438 -0.0913
29057W        W45191  12.886   1.474   5.764  0.2615  0.0086 -0.0474
29058W        W45192  15.828  10.667   1.978  0.0995 -0.2044  0.0036
29059W        W45193   5.031  18.375   0.040 -0.0768  0.2728 -0.0953
29060W        W45194   2.477   3.995   1.088  0.0427 -0.1770  0.0019
29061W        W45195   5.023   5.614  10.829  0.1259  0.0119 -0.0249
29062W        W45196   0.794   9.367  10.984  0.0103  0.3063 -0.0090
29063W        W45197   2.256  11.439   2.403  0.0662 -0.1889 -0.2545
29064W        W45198  12.354   4.160   4.731  0.0384  0.1766  0.3931
29065W        W45199  11.325  17.901   1.625 -0.0823 -0.0851 -0.0575
29066W        W45200  12.671  17.111  15.036 -0.2751 -0.1420 -0.1998
29067W        W45201  10.899   5.313  15.858 -0.0752 -0.4374 -0.0331
29068W        W45202  12.797  12.840  14.329  0.1879 -0.2874 -0.1236
29069W        W45203  14.459  17.366   2.716 -0.2825  0.1158 -0.0189
29070W        W45204  14.665   1.357  15.040 -0.0107  0.0801  0.1900
29071W        W45205   4.536  17.698   5.434 -0.0984  0.1918  0.1280
29072W        W45206   2.870  11.496  10.638  0.0309 -0.3025 -0.0870
29073W        W45207  15.968   2.284   0.368  0.1804 -0.1786 -0.1737
29074W        W45208   4.001  13.294  11.858  0.1055 -0.0994 -0.0225
29075W        W45209   7.652   5.836   4.518 -0.0734 -0.0289 -0.1426
29076W        W45210   9.530   6.152   4.490 -0.0820  0.3268  0.1634
29077W        W45211   5.778  12.853   9.992 -0.0472  0.1481 -0.0727
29078W        W45212  15.503  16.515   5.633 -0.1121  0.1655 -0.2274
29079W        W45213  11.557   0.711   1.838  0.0018 -0.0774  0.1335
29080W        W45214  12.169   9.127  11.780 -0.3313  0.2512 -0.2186
29081W        W45215   1.027  13.242  12.871 -0.1127  0.1593  0.2370
29082W        W45216  14.168  14.001   0.538  0.2041  0.1232 -0.0161
29083W        W45217  15.786   1.780   2.537  0.3003 -0.3231  0.1849
29084W        W45218   1.366  10.760  14.907  0.0067 -0.2127  0.1286
29085W        W45219  14.695   9.657   1.177 -0.2210 -0.1555  0.0314
29086W        W45220  10.521   3.854   1.796  0.3338 -0.0689  0.1450
29087W        W45221   3.487   1.134  13.982 -0.1393 -0.1498 -0.2578
29088W        W45222  17.090   6.279  15.403  0.0271 -0.1105 -0.3258
29089W        W45223   0.479   3.930  12.891 -0.1248 -0.0555  0.1234
29090W        W45224  14.983   9.351  11.072  0.0255  0.0350 -0.0209
29091W        W45225   0.896  11.851   0.103 -0.1554 -0.2034 -0.1241
29092W        W45226   1.569   8.036  14.534  0.3064 -0.2861 -0.1802
29093W        W45227  16.948   4.049  13.210 -0.0684 -0.1195  0.1231
29094W        W45228  12.642   3.858   0.996 -0.1233  0.0198 -0.0597
29095W        W45229  12.343  15.547   0.285  0.2247 -0.1981 -0.1591
29096W        W45230   2.171  14.404   5.566  0.1906  0.3102  0.1798
29097W        W45231   9.099   0.790   2.629 -0.0729  0.1377 -0.1145
29098W        W45232  11.324  12.116  14.202  0.0806 -0.2520 -0.0793
29099W        W45233   4.951  12.292  11.345 -0.2212 -0.1267 -0.0009
29100W        W45234  10.071   6.112   4.751  0.0896  0.1130 -0.1078
29101W        W45235  15.368  12.015   2.986  0.2538  0.3417 -0.2583
29102W        W45236   5.585  17.931  12.699  0.1260  0.0103 -0.2533
29103W        W45237   4.653   4.216  13.308 -0.2356 -0.0678 -0.1647
29104W        W45238  16.831   5.596  14.512  0.0464  0.0196 -0.0010
29105W        W45239  12.787   7.259  15.716  0.0160 -0.1125 -0.0509
29106W        W45240   0.060   9.661  11.667 -0.0535  0.0751  0.2724
29107W        W45241  17.945   5.394  12.652 -0.3393  0.2423 -0.0562
29108W        W45242  16.782  14.916  15.715 -0.3694  0.1352 -0.2180
29109W        W45243   4.020  10.321   4.159  0.0861 -0.3545 -0.0223
29110W        W45244   1.043  16.845   1.534 -0.1031  0.1045 -0.0696
29111W        W45245   6.521   1.704   5.461  0.1457  0.2364  0.3779
29112W        W45246  14.659   5.182  14.334 -0.0406  0.0740 -0.3606
29113W        W45247  17.714  11.753   0.767 -0.1136 -0.1391  0.1322
29114W        W45248   9.742   8.527  15.843 -0.0674 -0.1485 -0.1538
29115W        W45249   0.520  12.788   4.862 -0.2604  0.0870  0.0230
29116W        W45250  12.689   0.772  15.880  0.2810 -0.0000 -0.3421
29117W        W45251   3.327   6.749  12.310 -0.0973 -0.0664 -0.1869
29118W        W45252   5.790  13.042   4.014 -0.2119 -0.0503  0.0330
29119W        W45253   8.797   1.081  11.402  0.0466  0.1943  0.0561
29120W        W45254  15.071  11.503  15.908  0.0289 -0.2823 -0.0697
29121W        W45255  17.591  15.249   9.770 -0.0112  0.0080 -0.1580
29122W        W45256   0.409   4.201  15.846  0.0203  0.0957 -0.0048
29123W        W45257   0.233   0.964   3.460  0.1018 -0.1733  0.2118
29124W        W45258  13.355   0.710  12.187 -0.1923 -0.1673  0.1563
29125W        W45259   4.853  13.793   5.428 -0.0168  0.1945  0.2237
29126W        W45260   3.340  10.941   2.321  0.4697 -0.1053 -0.0000
29127W        W45261   9.787   8.725   5.677 -0.1300 -0.1249  0.0503
29128W        W45262   4.015   3.687   1.483  0.3299  0.0412 -0.0833
29129W        W45263   3.033  15.204   1.006  0.1034  0.1103  0.0386
29130W        W45264   2.982  16.916  15.061 -0.2130  0.0878 -0.0471
29131W        W45265  11.345   6.934  15.034  0.0123 -0.1259  0.0234
29132W        W45266   5.609  11.190  15.586 -0.1880 -0.0019  0.1388
29133W        W45267  12.501   9.233  13.140 -0.0726  0.1076  0.0308
29134W        W45268  14.400   4.264   0.031 -0.1420  0.3358  0.0183
29135W        W45269   7.966  13.522   2.191 -0.2995 -0.0658 -0.1320
29136W        W45270   4.447   9.740   1.947  0.0032  0.0798 -0.3366
29137W        W45271  17.876  13.021   1.304  0.0032  0.1220  0.2676
29138W        W45272  18.393   2.269  13.133 -0.0227 -0.1380 -0.0943
29139W        W45273  14.911   9.357   3.191  0.1074  0.0934 -0.1309
29140W        W45274  18.128  15.748   4.982 -0.2250  0.1250  0.2432
29141W        W45275  10.363  13.381   0.298 -0.1475 -0.0897 -0.0299
29142W        W45276   6.931   5.820   1.439  0.0079  0.0667  0.2900
29143W        W45277  14.032   2.252  11.181 -0.1078 -0.1344  0.0796
29144W        W45278   0.680  17.483  15.469 -0.1202  0.0983 -0.3251
29145W        W45279   1.598   8.235  12.502  0.3115 -0.0817  0.2690
29146W        W45280   7.444  15.635   1.530 -0.1066  0.0482  0.1828
29147W        W45281   8.017   3.604   0.274 -0.1823 -0.0318  0.0856
29148W        W45282   7.817  14.186  15.187 -0.6674 -0.0202  0.1189
29149W        W45283   7.275  14.665   0.362 -0.0818 -0.0454  0.0633
29150W        W45284  16.826   7.455  12.887  0.0826 -0.0772  0.3122
29151W        W45285  16.539  13.736   3.534  0.0481 -0.0136  0.3281
29152W        W45286   5.023   3.463  12.070 -0.0934 -0.1050 -0.0330
29153W        W45287   6.745  16.120   1.249 -0.1434  0.3774  0.0203
29154W        W45288   1.941   0.272   1.132 -0.2749 -0.1199  0.0894
29155W        W45289  15.300  17.529  15.679 -0.3688  0.0716 -0.0988
29156W        W45290   1.001  15.142   5.169 -0.2448 -0.4828  0.2282
29157W        W45291   8.096   1.376   4.280 -0.0486 -0.0739 -0.0431
29158W        W45292   2.271  11.992   2.326 -0.1380  0.2685 -0.0083
29159W        W45293  16.397  15.228   0.591  0.2275 -0.1075 -0.2434
29160W        W45294  15.864   0.355  14.755 -0.1735 -0.0926  0.0515
29161W        W45295  11.859   7.317   0.602 -0.3152 -0.0119  0.2061
29162W        W45296  12.860  15.763  14.222  0.1501 -0.1824  0.0054
29163W        W45297   2.609   9.346  11.679 -0.0700  0.1098 -0.4228
29164W        W45298   9.881   0.036   5.182  0.3590 -0.1714  0.1372
29165W        W45299   6.438   4.237   5.594  0.2800  0.0256  0.1494
29166W        W45300   1.898   5.117   3.888 -0.3128  0.3019  0.4553
29167W        W45301  10.846  17.782   4.286  0.2062  0.3249 -0.0840
29168W        W45302   8.050   1.778   4.000  0.0901 -0.2525 -0.0813
29169W        W45303  14.273  17.498  14.884 -0.0201  0.1594  0.2684
29170W        W45304  12.915  11.476   5.434  0.0910 -0.0621 -0.1563
29171W        W45305   3.824  15.668  11.581  0.0402  0.1527 -0.0234
29172W        W45306  11.930   4.884  11.044 -0.0760 -0.2175 -0.0076
29173W        W45307   0.038  15.123   0.167 -0.0277 -0.1233  0.0828
29174W        W45308  15.592   8.402  13.759  0.1281  0.0004  0.1315
29175W        W45309   4.468  14.006  12.169  0.0431 -0.0919 -0.0665
29176W        W45310  11.066   9.430   5.469  0.0943  0.0122  0.1604
29177W        W45311   2.813   6.833   3.800 -0.2223 -0.1464  0.2815
29178W        W45312  13.683   5.757  14.665  0.0592 -0.1720  0.2452
29179W        W45313   5.669   6.852  11.142  0.1576  0.0150 -0.1826
29180W        W45314  13.839  18.334  11.405 -0.0233 -0.0383 -0.1015
29181W        W45315   9.677   3.929   4.630 -0.0235 -0.6623 -0.2286
29182W        W45316   7.032   4.573  13.045 -0.1044 -0.0631  0.2189
29183W        W45317  13.338  11.139   1.193  0.1924 -0.0054  0.3727
29184W        W45318  12.320   7.210   0.322 -0.0352 -0.1493  0.1042
29185W        W45319   9.667   6.438  15.319  0.1831 -0.0494 -0.0825
29186W        W45320  12.384   5.393  12.970 -0.0885  0.3470  0.1117
29187W        W45321  11.303  14.492  11.775 -0.3033 -0.0443 -0.0903
29188W        W45322  13.102  12.328   0.738 -0.3113  0.1324  0.1138
29189W        W45323   3.791  13.413   3.617 -0.2189  0.0219 -0.0997
29190W        W45324  14.606   4.604  12.200  0.0234  0.1039 -0.2035
29191W        W45325  15.322   7.336   5.199 -0.0803 -0.0768  0.0602
29192W        W45326  17.137  12.975  10.547  0.0548 -0.2545  0.2420
29193W        W45327  10.717  18.363  13.089 -0.0861 -0.1689 -0.0987
29194W        W45328  17.872   0.342   0.888 -0.1825  0.0157 -0.3233
29195W        W45329  15.285  18.320   0.331  0.0582 -0.0113  0.2313
29196W        W45330  12.248   9.460  14.336 -0.0832  0.3661 -0.3949
29197W        W45331   7.357   4.072  10.424 -0.0959 -0.1742 -0.0076
29198W        W45332   0.510   8.205  10.005  0.0361  0.0679 -0.3189
29199W        W45333   0.181   3.228   0.853  0.1815  0.3094 -0.1342
29200W        W45334  15.181   9.135  13.278  0.0418 -0.1561 -0.0339
29201W        W45335   3.091  16.956  10.407  0.2285  0.1746 -0.3718
29202W        W45336   7.665   7.733   4.497  0.1403 -0.0149  0.1002
29203W        W45337   4.578  10.980   4.395  0.0138  0.2600 -0.0335
29204W        W45338  16.653   1.898   2.897  0.2921 -0.0931 -0.1293
29205W        W45339  18.047  12.722   1.676  0.3580  0.0322  0.0830
29206W        W45340   5.290   6.176   0.837 -0.0960 -0.0616 -0.3347
29207W        W45341  18.096   5.446  13.722 -0.2234 -0.0005  0.0323
29208W        W45342  12.365   0.175  15.748  0.1820  0.2272 -0.3975
29209W        W45343  18.036   3.825  14.181  0.1197 -0.0550 -0.2017
29210W        W45344  16.266   8.569   3.585  0.3322 -0.2489 -0.3379
29211W        W45345   7.087   6.122   1.800  0.2097  0.0772 -0.1235
29212W        W45346  14.829  12.566   2.758  0.0983 -0.0844 -0.0095
29213W        W45347  12.005   5.664   1.407  0.0704 -0.0962 -0.0666
29214W        W45348  13.745  11.511   0.876  0.1014  0.1775  0.1424
29215W        W45349  10.201  18.256   3.026  0.2916  0.0416  0.0766
29216W        W45350  16.501  16.288   2.105 -0.1655 -0.4004 -0.0645
29217W        W45351   1.059   0.396  10.095 -0.1463 -0.0659 -0.0711
29218W        W45352  11.881  10.034   0.537  0.0419  0.2072  0.1936
29219W        W45353   5.591   4.047   3.261  0.3666 -0.0543 -0.1601
29220W        W45354  17.953  10.036  10.952  0.0452 -0.3263  0.1416
29221W        W45355   1.849   8.654   1.651  0.2019 -0.0389 -0.0277
29222W        W45356  16.612   7.331   3.408  0.0133 -0.1589 -0.0310
29223W        W45357  12.683   7.070  11.651  0.0706  0.0297  0.0929
29224W        W45358  14.165  16.180   5.541 -0.0059 -0.0135 -0.0946
29225W        W45359   1.769   5.828  10.872 -0.2078 -0.3692 -0.1245
29226W        W45360   1.076  11.142   4.635 -0.2134 -0.1770  0.0645
29227W        W45361   9.229   2.938  13.137 -0.0116  0.0995 -0.1721
29228W        W45362   2.265  18.372  15.721 -0.3126  0.4502 -0.0729
29229W        W45363   2.239   3.865  15.626 -0.1850 -0.0491 -0.3023
29230W        W45364   4.489   1.914  11.373  0.0227  0.1633 -0.0769
29231W        W45365   4.541   1.219  15.504  0.3103  0.0665  0.0523
29232W        W45366   0.578   2.045  13.506 -0.2014  0.0391  0.0039
29233W        W45367   8.287  18.405   6.254  0.0148  0.0466 -0.2110
29234W        W45368   2.825  11.048  12.254  0.1739  0.2746  0.2599
29235W        W45369   2.801   8.348  14.746  0.0743 -0.1989 -0.1969
29236W        W45370   9.308   8.537   2.857 -0.0915 -0.0815 -0.0732
29237W        W45371   0.616   0.838   3.088 -0.1291 -0.0982 -0.2645
29238W        W45372  15.347  11.828   3.511  0.2075 -0.2279 -0.0611
29239W        W45373  18.288   1.220   1.529  0.0858 -0.3053  0.2127
29240W        W45374   4.931   8.265   4.962 -0.2047 -0.0937 -0.2289
29241W        W45375  18.372   6.315   4.321  0.0314 -0.0394  0.0240
29242W        W45376   9.264  10.520   2.255 -0.1766 -0.1459  0.0099
29243W        W45377  10.753   7.836   4.112 -0.1467  0.0147 -0.2551
29244W        W45378   4.805  14.413  10.948 -0.1819  0.0292 -0.1082
29245W        W45379   0.237  16.183   3.199 -0.2777  0.0932 -0.0660
29246W        W45380  12.022  17.402  14.253  0.0598  0.0747  0.1064
29247W        W45381   0.905   7.685  14.946 -0.1629 -0.0247  0.1350
29248W        W45382  11.009   9.850   2.095 -0.0856  0.2554 -0.1121
29249W        W45383   9.684  14.097  13.632  0.0132  0.2958  0.1084
29250W        W45384   4.370  12.678   0.332  0.2735 -0.1432  0.0569
29251W        W45385   6.479   8.326   3.953 -0.3703  0.1918  0.0490
29252W        W45386   7.978  14.576   2.437  0.2159 -0.1952 -0.0335
29253W        W45387   2.724  17.441   1.076 -0.1854  0.3110  0.0678
29254W        W45388   7.167   6.712   3.540  0.4819 -0.3133 -0.1992
29255W        W45389  15.828   7.925  13.695 -0.0492 -0.0892 -0.0915
29256W        W45390   7.601   1.747  15.638 -0.0381  0.1225 -0.2476
29257W        W45391  18.239   3.476   2.240  0.0410  0.0020 -0.2191
29258W        W45392  14.196  13.680   1.740  0.1640 -0.0575 -0.0698
29259W        W45393   0.284   1.124   1.420 -0.1732 -0.2488  0.0327
29260W        W45394  13.405   7.565   2.398 -0.1115  0.4426  0.2770
29261W        W45395  15.286  12.555   3.014 -0.0934  0.1545  0.0916
29262W        W45396  15.462   7.074   0.404 -0.1356 -0.0353 -0.0483
29263W        W45397   1.516   8.432   1.122  0.1237 -0.0641  0.1783
29264W        W45398  14.390   7.977   3.999  0.0826  0.2524 -0.0013
29265W        W45399  16.255  10.666  15.344 -0.1053  0.4088  0.1000
29266W        W45400   6.452   1.902   0.035  0.1061 -0.1787  0.0417
29267W        W45401  12.379  18.310  14.326 -0.2021  0.1811  0.3452
29268W        W45402  14.887  17.771  13.055  0.3566 -0.0521 -0.0403
29269W        W45403   4.499  15.162   1.595 -0.1617  0.4609  0.0609
29270W        W45404   8.268   0.670   3.097 -0.1700 -0.2814 -0.0614
29271W        W45405  17.704   6.120   2.842  0.0457  0.3787 -0.1074
29272W        W45406  12.351  14.010   0.127  0.0628 -0.2795  0.0519
29273W        W45407  12.478   7.996  14.594  0.0617  0.1405  0.4999
29274W        W45408  12.324  10.830   3.346 -0.2294  0.2064  0.0049
29275W        W45409  13.410  11.900   4.515 -0.1472 -0.0324 -0.0043
29276W        W45410   1.297  17.065  14.814  0.1445 -0.2461  0.0447
29277W        W45411  17.453   3.026   4.384 -0.0445  0.0467  0.1291
29278W        W45412   5.487  12.820   0.281 -0.0310  0.0271  0.2338
29279W        W45413  11.303   1.405  14.985 -0.2121  0.3287  0.0703
29280W        W45414  16.249   7.541  14.618  0.0362 -0.0488 -0.2258
29281W        W45415   6.935   8.852   1.831  0.0400  0.0948 -0.0005
29282W        W45416   0.108   4.794   5.430  0.0180 -0.0173 -0.3948
29283W        W45417  14.426   0.725  11.486  0.1613 -0.1701 -0.0333
29284W        W45418  13.929  15.824   3.012  0.3173 -0.0027 -0.2574
29285W        W45419  11.606   2.583  14.108 -0.1307  0.1192  0.0167
29286W        W45420   1.639   3.086   2.473  0.1034 -0.0332 -0.1592
29287W        W45421   6.549   7.196   1.630 -0.0782  0.0172  0.0874
29288W        W45422  16.801   5.958  11.241 -0.2707  0.0758  0.1223
29289W        W45423   1.456  14.389   0.236 -0.0313  0.0389  0.0138
29290W        W45424  17.629  12.949  14.896 -0.0844 -0.1337  0.0014
29291W        W45425  12.259  17.373  14.728 -0.0945  0.2616  0.1118
29292W        W45426  11.427   8.303  10.335 -0.2637 -0.1541 -0.2759
29293W        W45427  14.152   3.963   1.178 -0.0444 -0.7446 -0.0064
29294W        W45428   7.508   0.009  11.453 -0.0171 -0.0521  0.3947
29295W        W45429   5.347   4.068   0.579  0.0391  0.2742  0.0116
29296W        W45430  14.364  11.329  13.597 -0.2333  0.1062  0.0184
29297W        W45431  15.378   9.315   2.990  0.3482 -0.0071 -0.0545
29298W        W45432  14.034  15.865  12.833 -0.1046  0.2241 -0.1537
29299W        W45433   0.529   2.869   1.778  0.1104  0.2248  0.1285
29300W        W45434  14.386   0.417  12.092  0.0496 -0.0198 -0.1958
29301W        W45435   1.241  17.620   2.816 -0.0411  0.0428 -0.0871
29302W        W45436  11.467  16.237   4.876 -0.1659  0.2100  0.1698
29303W        W45437   3.200   4.464   1.272 -0.0026 -0.2034 -0.0575
29304W        W45438  10.357   7.071  10.304 -0.2322  0.1952  0.2488
29305W        W45439   1.941  16.906   2.643 -0.2158 -0.1732  0.1894
29306W        W45440   8.279   6.203  11.470 -0.1817  0.0404  0.0027
29307W        W45441  10.677  12.239   1.328 -0.2321  0.0382 -0.0633
29308W        W45442  10.993  17.282  13.041  0.2320  0.0401 -0.1077
29309W        W45443  10.217   0.497   5.988 -0.2607  0.1049  0.1068
29310W        W45444   2.297  10.142   1.602  0.1844 -0.1083  0.1789
29311W        W45445   9.318  13.288   2.225 -0.0082 -0.0377  0.2829
29312W        W45446  11.351   3.705  15.866  0.0188 -0.0222  0.1255
29313W        W45447  11.590   4.944  13.111 -0.1417  0.0722 -0.0190
29314W        W45448   8.209   8.139   4.557  0.0087 -0.0940 -0.2057
29315W        W45449   8.856  13.430   1.997 -0.2313  0.0130  0.2722
29316W        W45450   8.770   8.223  14.146 -0.0460 -0.1976 -0.0298
29317W        W45451  11.946  15.240  15.263 -0.1003 -0.1051 -0.0316
29318W        W45452   5.820  16.131   0.933 -0.2495 -0.1846  0.0675
29319W        W45453  14.902  17.409  14.220  0.0838  0.0743 -0.2196
29320W        W45454  17.358   1.731  15.371 -0.3708  0.0225  0.2655
29321W        W45455   5.408   5.438   3.462 -0.2861 -0.0171 -0.2129
29322W        W45456   5.969  12.442  15.816 -0.1699 -0.2434  0.0580
29323W        W45457  11.515  17.938   2.423  0.0079  0.2294  0.0519
29324W        W45458   6.159   3.791  15.029  0.0946 -0.1034  0.1351
29325W        W45459   4.663   1.215  14.454  0.1463 -0.1551  0.4693
29326W        W45460  14.443  17.375  14.421 -0.3689  0.2929  0.2433
29327W        W45461   7.338   6.117  11.603 -0.0907  0.2092  0.2144
29328W        W45462  13.273   2.184  11.319  0.2376  0.0690 -0.3528
29329W        W45463   8.784   5.925  13.011  0.1459  0.1811 -0.0776
29330W        W45464  14.849   5.957   3.772 -0.0954 -0.0301  0.3451
29331W        W45465   1.578  17.343   3.589  0.1303 -0.0510  0.3605
29332W        W45466   4.211   0.516  12.617 -0.0314 -0.2732  0.2225
29333W        W45467  10.719  15.483   3.927  0.0946 -0.2501  0.2468
29334W        W45468   3.382  16.648   2.520 -0.1825 -0.2865  0.3959
29335W        W45469  11.208   4.343  12.830  0.0627 -0.2345  0.0406
29336W        W45470  14.169  16.223  12.166  0.0808 -0.3101  0.2674
29337W        W45471   0.986   4.484   1.906 -0.0726  0.2249 -0.1715
29338W        W45472  14.473  11.407  14.942 -0.1492  0.0301 -0.2862
29339W        W45473   4.491   8.690   3.182 -0.0324  0.0577 -0.1559
29340W        W45474   3.979   0.999  13.975  0.1689 -0.1296  0.2311
29341W        W45475  11.555  17.435   0.606  0.0036 -0.1975  0.0778
29342W        W45476  17.008   5.975  12.777  0.0143 -0.0606  0.0583
29343W        W45477   4.307   2.615  14.394 -0.1686  0.2658  0.2133
29344W        W45478   1.387  11.653   2.387  0.2821  0.1668 -0.1618
29345W        W45479  18.211  18.048   1.258  0.1971  0.0479 -0.0605
29346W        W45480   2.205   1.188  13.498 -0.1332 -0.2269  0.1983
29347W        W45481   2.732   0.449   3.992  0.0443 -0.4062  0.0248
29348W        W45482   4.726   5.491   1.257 -0.0663 -0.2893  0.1560
29349W        W45483  15.710   8.799  14.530 -0.2074  0.1722 -0.0275
29350W        W45484   3.839   7.769  15.809  0.2038  0.1027 -0.0973
29351W        W45485  10.178  17.361  14.631 -0.0919 -0.0692  0.0613
29352W        W45486   0.965   7.262   5.062 -0.0370  0.0967  0.0351
29353W        W45487   1.813   0.844   4.748  0.1748  0.0209 -0.0235
29354W        W45488  15.517  12.294  11.233 -0.2877 -0.0894  0.2692
29355W        W45489   1.874   8.753  15.702 -0.2013 -0.3104  0.0133
29356W        W45490  10.701   8.580   0.063 -0.0785  0.1822 -0.1042
29357W        W45491  10.984   0.933   2.636  0.0738 -0.0393 -0.0273
29358W        W45492  17.808   2.087   1.562  0.0705  0.0442  0.1260
29359W        W45493   8.780  11.827  13.381 -0.0696 -0.1117 -0.0260
29360W        W45494   4.106  14.592   4.313 -0.1151  0.1458 -0.0606
29361W        W45495   5.407   6.180  14.008  0.0759 -0.3489 -0.0242
29362W        W45496   0.287  15.361   4.281 -0.2182  0.0313  0.0915
29363W        W45497   0.412  15.687  13.218  0.2260  0.0790 -0.2267
29364W        W45498  16.549   8.950   0.183  0.1921 -0.1691  0.0042
29365W        W45499   3.179   7.877   0.711  0.0983  0.0182  0.0078
29366W        W45500   2.363   7.363   2.744  0.0389 -0.1539  0.2063
29367W        W45501  17.502  12.277   3.981  0.0823  0.2584  0.0825
29368W        W45502   6.839   8.859  14.033 -0.0216  0.1671  0.1410
29369W        W45503   3.561  14.999  14.918 -0.2018 -0.0134 -0.3713
29370W        W45504   9.542  17.854   1.179 -0.0035  0.1128 -0.1265
29371W        W45505   8.664  10.518  14.560 -0.0077 -0.1066 -0.1976
29372W        W45506   6.424  17.551  15.097 -0.0049 -0.1953  0.1452
29373W        W45507  10.582   7.740   0.433  0.3734  0.0296 -0.4614
29374W        W45508   6.049  14.950   0.899 -0.3628 -0.0974 -0.3582
29375W        W45509  10.327  12.210   4.301  0.0764 -0.0056 -0.2203
29376W        W45510   3.221   3.956  11.270  0.0661 -0.0752 -0.2480
29377W        W45511   3.821   4.363  11.974  0.1053 -0.0575 -0.0623
29378W        W45512   2.764  16.316   5.612 -0.0012  0.1567 -0.0004
29379W        W45513   7.982  13.170  15.740 -0.1057 -0.2004 -0.0292
29380W        W45514  11.265   3.637   1.693  0.3033  0.0927 -0.0813
29381W        W45515   5.303   2.328   2.151 -0.0914 -0.1714 -0.0256
29382W        W45516  17.549   5.602   2.667  0.1767 -0.4013 -0.2118
29383W        W45517   9.232  18.307  14.329  0.2125  0.0551  0.2315
29384W        W45518  15.010   2.056  12.452  0.4420 -0.1033  0.4648
29385W        W45519   2.487   6.633   4.921  0.1944  0.1662  0.1487
29386W        W45520  17.855   5.817  12.407 -0.0450 -0.1861  0.4278
29387W        W45521  14.958  13.418   0.724 -0.2157  0.2645  0.0933
29388W        W45522  17.461  15.015   5.017 -0.0994  0.0979 -0.0633
29389W        W45523   7.827   6.883   4.151  0.0558 -0.0978  0.1327
29390W        W45524   5.111   0.222   1.659  0.0129  0.0429 -0.3469
29391W        W45525  17.169   0.759  14.417 -0.1735  0.1772  0.0692
29392W        W45526   3.374   1.854   4.884 -0.3837 -0.2866  0.2950
29393W        W45527  17.864   5.981  10.574  0.0895  0.0059  0.0354
29394W        W45528   6.167  11.822   4.641 -0.0868 -0.1826  0.3272
29395W        W45529   8.036  10.575  12.828 -0.1929  0.0591  0.1368
29396W        W45530  15.964  17.827  10.424  0.3086  0.3511  0.2071
29397W        W45531  12.095   6.065  12.463  0.4045  0.3192 -0.0948
29398W        W45532   6.446   9.877  15.011 -0.0813 -0.1706 -0.0277
29399W        W45533   0.654   1.105   3.762 -0.1156  0.1323 -0.2404
29400W        W45534   5.331   0.602  15.174 -0.0922 -0.0441 -0.0554
29401W        W45535  13.303  12.166   4.928  0.1719 -0.3644 -0.1057
29402W        W45536   4.226   1.864  15.502 -0.3400 -0.3859  0.1218
29403W        W45537   9.821   8.896   1.080  0.1347  0.0351  0.2250
29404W        W45538   2.221   7.764  15.158  0.0824 -0.0701  0.0663
29405W        W45539  11.155  10.406  13.105 -0.2295 -0.0032 -0.5865
29406W        W45540  15.358  18.330  11.900 -0.0888 -0.4311 -0.1887
29407W        W45541  16.862  11.862   4.543  0.1231 -0.0028  0.0019
29408W        W45542   8.456  18.444  14.180  0.0394  0.2347  0.0861
29409W        W45543  15.487   6.271  11.502  0.0823  0.2570  0.1058
29410W        W45544   3.428  16.665  14.117  0.1247  0.0839 -0.3257
29411W        W45545   7.855  15.999  14.135  0.0185 -0.2788 -0.0102
29412W        W45546   9.676  12.989   1.456 -0.1069 -0.1999 -0.0464
29413W        W45547  12.062   0.881  12.935 -0.0093 -0.1649  0.1023
29414W        W45548  16.228  16.345  12.952 -0.0446  0.1493  0.1786
29415W        W45549   4.276   7.962  11.388 -0.2536 -0.0028 -0.1762
29416W        W45550   1.430   1.234   2.840  0.2020  0.1556  0.0992
29417W        W45551  15.826  14.198  13.649 -0.0581  0.2264  0.0615
29418W        W45552  10.778  17.550   1.021 -0.0948  0.0776  0.2516
29419W        W45553   4.780  10.114   2.680  0.0382 -0.3205  0.1126
29420W        W45554  10.348   7.754  11.979 -0.1210  0.1563 -0.0739
29421W        W45555   4.802   6.464  12.090  0.1970  0.0551 -0.4180
29422W        W45556   0.329  11.127   0.547 -0.0715 -0.0374  0.2233
29423W        W45557   4.422  14.226   4.438 -0.0329  0.1672 -0.2477
29424W        W45558   0.569   9.579  13.548 -0.0019 -0.1532  0.2136
29425W        W45559  17.525  13.884   1.922 -0.1015  0.1222  0.0574
29426W        W45560  11.928   1.555  13.868 -0.0128 -0.0133 -0.0915
29427W        W45561   3.443   9.870   2.298  0.1671 -0.3247 -0.1527
29428W        W45562   5.772   1.199   3.174 -0.3584 -0.0219 -0.1660
29429W        W45563  11.867  15.610  11.325  0.1877 -0.0019  0.0668
29430W        W45564   2.097  13.840  14.704  0.1764  0.2788  0.2114
29431W        W45565  10.233   4.358   1.678  0.0011 -0.1975 -0.2284
29432W        W45566  13.525   1.482   0.286 -0.0318 -0.2773 -0.1143
29433W        W45567   3.630  10.967  10.554  0.1033 -0.0479 -0.0859
29434W        W45568  15.067  15.588  15.272 -0.0508  0.1993  0.0923
29435W        W45569  10.712   9.152  15.027 -0.0426  0.0692  0.2590
29436W        W45570  13.027  12.441  11.982  0.2160 -0.0130  0.3325
29437W        W45571   5.970   7.290   1.104 -0.0072  0.1412 -0.1579
29438W        W45572   7.752  11.532   5.171 -0.2071 -0.2471 -0.0575
29439W        W45573  13.769  15.863  12.352 -0.2293 -0.1634 -0.1071
29440W        W45574  16.642   6.470  14.765  0.3179 -0.2386 -0.3045
29441W        W45575  12.337   5.986   0.924  0.3748  0.0951 -0.0994
29442W        W45576  17.663   0.466   3.025  0.0103 -0.0245  0.0135
29443W        W45577   5.214  10.874  15.628  0.0432 -0.0526  0.0013
29444W        W45578   1.101  12.200  12.887 -0.0730  0.3283  0.3662
29445W        W45579  17.619   8.581  11.105  0.0451  0.0921 -0.2413
29446W        W45580  17.212  10.214   3.109 -0.1379 -0.2593  0.1453
29447W        W45581   9.912   9.093  13.203  0.0494  0.0090  0.1767
29448W        W45582   9.914   6.157  14.296  0.0107 -0.1956  0.0346
29449W        W45583  16.681  17.480  14.468 -0.1871  0.0276 -0.3204
29450W        W45584   7.042  16.990   3.179  0.1628 -0.0313 -0.1456
29451W        W45585  13.532   7.878  13.256 -0.1536  0.0291 -0.3028
29452W        W45586  13.440   9.494   0.605 -0.0371  0.1479  0.0567
29453W        W45587   7.374  15.131   3.511 -0.1032  0.0488  0.1017
29454W        W45588  13.912  13.972   2.038 -0.0583 -0.0093 -0.0207
29455W        W45589   6.028   6.929  11.446 -0.3003 -0.0298 -0.1352
29456W        W45590  14.762   7.234  11.569  0.1684  0.1023  0.1559
29457W        W45591   5.291   5.769   2.109  0.0149 -0.1931 -0.0005
29458W        W45592  13.362  17.293   3.320 -0.3273  0.0081  0.2032
29459W        W45593   6.092   7.374   2.915  0.2256 -0.1208  0.0268
29460W        W45594   8.662  12.166  12.536 -0.1899 -0.1589 -0.1398
29461W        W45595  17.588   2.200   0.678 -0.0743  0.1985 -0.1156
29462W        W45596   7.348   7.249   1.266 -0.1984 -0.1072  0.1440
29463W        W45597  15.759   7.984  13.177  0.1470 -0.0989  0.0069
29464W        W45598  15.164  13.265   1.132 -0.0970  0.3614  0.1510
29465W        W45599   2.842   8.274  10.855  0.1406 -0.2632 -0.2175
29466W        W45600   3.777   1.688   3.755  0.1462  0.1029  0.0770
29467W        W45601   1.176   6.536   1.578  0.1211 -0.2359  0.1277
29468W        W45602   3.273   6.992   4.215 -0.1544 -0.0917  0.0623
29469W        W45603  17.036   5.165  13.347 -0.1410  0.0764 -0.1441
29470W        W45604   3.442   5.408  12.842 -0.0023 -0.1230  0.3000
29471W        W45605   7.257  14.767   2.355 -0.2796 -0.4411  0.3101
29472W        W45606  15.986  18.423   1.798 -0.1759 -0.0736  0.1031
29473W        W45607  11.244  18.448   2.493  0.1578 -0.0171  0.0452
29474W        W45608  13.094  18.443   2.147  0.0742 -0.0494 -0.0210
29475W        W45609  14.501   7.635   4.465 -0.0837  0.0328  0.0986
29476W        W45610  17.625   4.100   2.551  0.1350 -0.2006  0.2215
29477W        W45611   9.601   2.714  14.678 -0.1496 -0.0988  0.0289
29478W        W45612   7.340   7.735  11.415 -0.1895  0.2252  0.4298
29479W        W45613  13.088   9.549   0.060 -0.1089 -0.1373  0.1519
29480W        W45614   7.138   1.890  13.090 -0.0474  0.0747  0.0398
29481W        W45615   3.216  13.454   1.922 -0.0660  0.1426 -0.0780
29482W        W45616  16.904   0.087  15.399  0.1616 -0.0259  0.1106
29483W        W45617   3.806   7.192  15.179  0.1359  0.1641  0.0109
29484W        W45618   2.007   2.299  15.003 -0.0094 -0.3239 -0.0473
29485W        W45619   9.137  11.407   2.577  0.0172  0.1116  0.0916
29486W        W45620   4.542   8.792  14.748 -0.2121  0.4238 -0.0973
29487W        W45621   2.662   3.193  12.924  0.1048  0.2570  0.0338
29488W        W45622  11.366  14.980  13.196  0.1986 -0.2893  0.1294
29489W        W45623   2.238  10.207   3.671 -0.0621  0.1151  0.0763
29490W        W45624  11.510   2.368  15.761 -0.1301 -0.1242 -0.1155
29491W        W45625   7.707  13.814  15.472 -0.0352  0.0644  0.0678
29492W        W45626   9.749  11.563   2.526  0.0711 -0.2850  0.2942
29493W        W45627  18.304   9.183   2.262 -0.1900 -0.3380 -0.2479
29494W        W45628   6.375   1.685  14.607  0.0242 -0.0749  0.3083
29495W        W45629  12.264  17.830  14.031 -0.0834 -0.3419  0.0001
29496W        W45630   6.183   0.291  14.471  0.0336 -0.1579 -0.0944
29497W        W45631   9.407  12.500  14.604  0.0434  0.0913  0.0368
29498W        W45632  17.815   1.995   3.632  0.0846 -0.2047  0.0431
29499W        W45633   0.978   3.825   2.703  0.1784 -0.1685 -0.0175
29500W        W45634  12.225   1.629  10.097  0.1276  0.0063  0.0469
29501W        W45635   0.636   4.990  15.720 -0.2245 -0.0222  0.0221
29502W        W45636   3.279   4.898   2.059 -0.0237 -0.2886 -0.2520
29503W        W45637   4.749   7.765   4.929 -0.0662  0.0438 -0.2635
29504W        W45638   2.196   6.133   1.225  0.1704 -0.1681 -0.0607
29505W        W45639  10.538   3.500   2.437 -0.1489  0.3826 -0.1395
29506W        W45640   8.635  14.357   2.866 -0.1405 -0.1398 -0.0501
29507W        W45641  11.209  18.180  13.120 -0.0472  0.1399 -0.1852
29508W        W45642   0.068  15.898   1.740 -0.2174  0.1937 -0.0435
29509W        W45643   5.758  16.009  13.847 -0.1713  0.2722  0.0075
29510W        W45644  12.929   5.110   1.743 -0.0230 -0.1211 -0.2076
29511W        W45645   7.483  13.213  13.871 -0.0065  0.0495  0.0879
29512W        W45646  13.028   8.583   4.794  0.3401 -0.1011 -0.0182
29513W        W45647  14.544   3.021   1.999 -0.1612  0.2113 -0.1901
29514W        W45648  18.058   5.160  15.652  0.0554  0.2721 -0.4135
29515W        W45649  14.267   4.837  10.975 -0.1157 -0.0117 -0.2002
29516W        W45650  18.034  17.833  12.254 -0.0867  0.2245  0.0129
29517W        W45651   7.278   2.582   1.332 -0.0735 -0.0072 -0.2969
29518W        W45652   8.880   0.166  13.000  0.1925 -0.0659 -0.0248
29519W        W45653  13.695  16.102   2.661  0.1311 -0.1618  0.2591
29520W        W45654  13.986  16.977  14.295  0.3765 -0.2857  0.1545
29521W        W45655  18.331   2.079   1.471  0.0914 -0.1487  0.0988
29522W        W45656   5.060   0.310  14.662 -0.1918 -0.0905  0.3816
29523W        W45657  14.911  12.811   3.774  0.1783 -0.0635  0.2055
29524W        W45658  17.510   6.591  13.371 -0.0608 -0.1296  0.2367
29525W        W45659   1.345  16.588  14.728  0.0418  0.2409 -0.0074
29526W        W45660   5.779   8.344  11.648 -0.0396  0.2044 -0.2445
29527W        W45661  14.940   2.249   5.023  0.3040 -0.0785  0.2684
29528W        W45662  16.928  16.233   5.408 -0.0665 -0.1142 -0.2472
29529W        W45663   2.083   1.733   2.881  0.1938  0.0915  0.0148
29530W        W45664   6.455  14.253  11.693  0.0494 -0.2755 -0.0302
29531W        W45665  13.527  14.788   4.952  0.1907  0.0231  0.3237
29532W        W45666   4.474   2.151   4.304 -0.0155  0.0314 -0.1303
29533W        W45667  10.252  10.990   3.596 -0.1302 -0.3390 -0.1282
29534W        W45668  16.757   5.028   0.271  0.1641  0.1213  0.0105
29535W        W45669  11.754  11.884  14.014  0.2007  0.0646 -0.1175
29536W        W45670  17.083  12.892   3.234 -0.2434 -0.1053  0.0409
29537W        W45671   8.358   5.161  14.280  0.3352 -0.0758  0.0629
29538W        W45672   0.592   4.966   4.993  0.1781 -0.0291  0.1938
29539W        W45673  10.040  11.865   1.763 -0.0724 -0.2521 -0.0181
29540W        W45674   0.485  15.718  12.508 -0.0136  0.1290  0.0106
29541W        W45675   5.238   5.040  11.361  0.3694 -0.1331  0.0340
29542W        W45676   4.598   9.318  13.040  0.2580  0.2004 -0.0551
29543W        W45677   4.097  12.406  13.928 -0.0862 -0.2762 -0.0410
29544W        W45678  18.260   2.356   3.487  0.0894 -0.2507  0.0020
29545W        W45679   6.176  10.318  14.820 -0.0890 -0.0495 -0.0801
29546W        W45680  14.499   7.001   3.644  0.3024 -0.0258  0.3158
29547W        W45681   2.053  12.859   0.447  0.0549 -0.5463 -0.1920
29548W        W45682  15.988  14.323  11.094 -0.0616 -0.0003 -0.1058
29549W        W45683   1.208   3.197  13.834  0.1416  0.1252 -0.0858
29550W        W45684   4.640   8.947  15.567  0.3271  0.0243 -0.1193
29551W        W45685   1.921   7.785   2.205  0.0489 -0.1181 -0.0450
29552W        W45686  17.501  18.202   3.786  0.0327  0.2351  0.2891
29553W        W45687  12.408   4.641   1.395  0.3780  0.4435 -0.0355
29554W        W45688  15.393  12.186   0.668 -0.2285 -0.2247  0.2500
29555W        W45689   3.983   5.829   4.006 -0.0455  0.1732  0.0282
29556W        W45690   8.174   3.903  15.141 -0.2280 -0.1615 -0.1530
29557W        W45691  13.994   2.208   0.013 -0.0661  0.0407  0.1097
29558W        W45692   2.451  17.725  13.352 -0.0862  0.2742  0.2866
29559W        W45693  16.076  11.804  14.242  0.1015  0.1704  0.0868
29560W        W45694   9.292   2.419  13.056 -0.0308  0.1904 -0.0778
29561W        W45695   8.588   6.939   5.972 -0.1476 -0.2412 -0.1655
29562W        W45696  17.496   2.715  12.260 -0.1560 -0.3082 -0.1142
29563W        W45697   3.618   2.993   1.972  0.0372 -0.0620  0.3537
29564W        W45698   0.769  10.307   5.140 -0.0034  0.0294 -0.3148
29565W        W45699   2.716  10.934  13.609  0.3514  0.3656  0.3142
29566W        W45700   3.393   3.668   3.538  0.3368  0.1462  0.2770
29567W        W45701  13.623   5.815  15.544  0.2727 -0.1648  0.0429
29568W        W45702   8.600   6.080  12.166 -0.0449  0.0746  0.0194
29569W        W45703  14.184   8.304  11.931 -0.0072 -0.0794 -0.1617
29570W        W45704   2.292  11.603  13.347  0.0930 -0.0947 -0.0436
29571W        W45705   0.051   7.948   5.748 -0.1639 -0.2505 -0.0691
29572W        W45706   6.594   3.939   1.482  0.0244  0.0848  0.1042
29573W        W45707   7.068   5.346   2.152 -0.1172 -0.0388  0.0351
29574W        W45708   0.227   8.060  13.112  0.1595  0.0124 -0.1632
29575W        W45709   2.704   0.273   0.659 -0.0878  0.0527  0.1275
29576W        W45710  14.171   7.375   5.223 -0.1382 -0.1620  0.2100
29577W        W45711  12.388   3.388   0.214 -0.0238 -0.0800  0.1319
29578W        W45712   6.218  14.050   2.270 -0.1008  0.1863 -0.1833
29579W        W45713   8.502   2.866  12.547  0.0078 -0.1786  0.0552
29580W        W45714  12.701   3.825   1.608 -0.2833  0.0727  0.3012
29581W        W45715   6.573  13.174  13.376  0.0742 -0.1093  0.1778
29582W        W45716  13.122  17.141  11.764 -0.2082 -0.0517  0.0090
29583W        W45717  16.163   4.777  12.918  0.1571  0.1045  0.1407
29584W        W45718  13.607  12.013   1.594  0.1230 -0.0793  0.2324
29585W        W45719  14.616  14.198   1.235  0.1431  0.1929 -0.1729
29586W        W45720   0.965   3.403  14.323  0.2011 -0.1018 -0.1298
29587W        W45721  14.183   0.210  14.297 -0.1001 -0.1475  0.4671
29588W        W45722   7.239  13.705   0.765  0.1588 -0.3420 -0.1602
29589W        W45723  12.284   8.486  15.208  0.0113 -0.1994  0.1280
29590W        W45724   2.906   7.158  13.224 -0.0060  0.3628  0.0963
29591W        W45725   9.465  15.387   1.879  0.0587  0.1030  0.1095
29592W        W45726   2.067  14.347  14.985  0.2694  0.1868 -0.1842
29593W        W45727  10.087  13.438  14.789  0.1074  0.0658  0.0723
29594W        W45728   2.539  18.072  11.624  0.0717 -0.0268  0.2872
29595W        W45729   0.368   0.036   3.498  0.0322 -0.1332  0.0393
29596W        W45730  11.055   2.449   2.740 -0.2361  0.3894 -0.4188
29597W        W45731  16.512  10.453   3.782 -0.0454 -0.0063  0.2372
29598W        W45732  12.767   0.223  14.534 -0.0698  0.0938 -0.0027
29599W        W45733   9.087   7.306  14.097  0.0538  0.0528 -0.1539
29600W        W45734   4.383   9.312  14.224 -0.2374  0.1054  0.1899
29601W        W45735  11.636   4.602  14.355 -0.0746 -0.1692 -0.0521
29602W        W45736  12.744   9.943  12.398  0.1898 -0.0794 -0.1511
29603W        W45737  13.333  11.283   2.231 -0.2906 -0.0636  0.0601
29604W        W45738   7.553   8.786  11.967  0.0197  0.2076 -0.0706
29605W        W45739   0.051   1.460   5.619 -0.0046 -0.1372 -0.0061
29606W        W45740   6.815   6.386   2.200  0.2186 -0.1958 -0.0420
29607W        W45741   2.404  12.907   4.734  0.0763 -0.2595 -0.0398
29608W        W45742   5.135   2.860  13.051  0.1902  0.0236 -0.0761
29609W        W45743  15.021  17.195   2.782  0.0177 -0.1252 -0.0748
29610W        W45744  14.153  15.525   2.048 -0.2530 -0.1021  0.2976
29611W        W45745  16.089  16.843  11.354  0.3854 -0.3535 -0.0030
29612W        W45746   2.972  17.933  14.065  0.0593 -0.2905  0.0368
29613W        W45747  12.232   9.889  14.807  0.0314  0.1085  0.1742
29614W        W45748   8.020   6.646  12.877  0.1933  0.1030 -0.1584
29615W        W45749   2.764   1.756   2.190  0.4237 -0.0305  0.3000
29616W        W45750  11.063   3.581   3.487  0.1362  0.0337  0.0569
29617W        W45751  15.776   1.692  12.455 -0.2120  0.1993  0.2246
29618W        W45752  12.051   6.791  12.914 -0.0830 -0.1427  0.3282
29619W        W45753  14.502   6.479  14.529  0.0901 -0.2232  0.1507
29620W        W45754   5.162   6.881  11.316  0.2971  0.1429  0.3017
29621W        W45755   5.188  18.446   3.261 -0.1162  0.0409 -0.1190
29622W        W45756  15.253  12.531  14.110  0.2340 -0.2722  0.1466
29623W        W45757   7.295   3.614  12.611  0.1694 -0.2440 -0.2944
29624W        W45758   6.396   2.706  11.634 -0.0353  0.1287  0.0723
29625W        W45759  15.283  14.090  11.572 -0.2774  0.2094  0.0984
29626W        W45760  11.000  14.931  13.527 -0.0898  0.0201 -0.0216
29627W        W45761  14.772  16.964  14.416  0.0894  0.1174  0.0339
29628W        W45762  14.422  10.981  11.776 -0.0371 -0.1396 -0.2097
29629W        W45763   8.165   8.230  13.163  0.2256 -0.0940  0.0528
29630W        W45764  14.963   8.521  15.202  0.2237 -0.0418 -0.0081
29631W        W45765   5.155  14.459  11.352 -0.0903  0.0061  0.3351
29632W        W45766   5.157  11.652   2.295  0.0149 -0.1961  0.2304
29633W        W45767  12.209   8.342  15.836  0.1862 -0.2128 -0.1279
29634W        W45768   1.668   8.942  14.506  0.0648  0.0568  0.0508
29635W        W45769   1.087   5.251   1.250 -0.0808 -0.2940  0.0276
29636W        W45770   2.996   9.891   1.756  0.2832  0.0064 -0.1530
29637W        W45771   9.957  11.308   5.370 -0.0694  0.2815  0.1527
29638W        W45772   1.735  12.517   5.021  0.1242 -0.1621 -0.0800
29639W        W45773   9.527  18.267  15.444 -0.2574 -0.0551 -0.4300
29640W        W45774   2.703   1.078  13.612 -0.0702  0.1163 -0.2068
29641W        W45775  16.304  11.161  11.321 -0.0768  0.1073 -0.0410
29642W        W45776  14.468   5.649  12.316  0.1446 -0.7870 -0.2328
29643W        W45777   8.750  15.636  11.728 -0.0111 -0.0085 -0.0557
29644W        W45778  11.467  15.288  14.676  0.2672 -0.0357  0.0120
29645W        W45779  15.545   8.222   1.855  0.2407 -0.0221  0.2902
29646W        W45780  17.538   6.566   3.831 -0.2221 -0.0233  0.0130
29647W        W45781   2.911  13.130  12.223 -0.1060  0.1982  0.1731
29648W        W45782  11.671  10.983  15.653 -0.0794  0.0519  0.3079
29649W        W45783   3.742  11.260   3.062 -0.1894  0.0233 -0.1921
29650W        W45784  11.713   6.109   1.033  0.0762 -0.0626 -0.0649
29651W        W45785   4.606  11.367  15.874  0.3551  0.2328 -0.0297
29652W        W45786  17.447  18.063  11.638  0.0393 -0.0318  0.4297
29653W        W45787   4.876   3.165  15.177  0.1224 -0.1450  0.2172
29654W        W45788   9.467  10.953  14.676 -0.1733 -0.0323  0.2589
29655W        W45789   9.681   4.747  14.902  0.1155  0.0368 -0.2282
29656W        W45790   2.683   9.295  13.225  0.1560 -0.2943  0.0692
29657W        W45791   6.791  11.795  11.748  0.1776 -0.0077 -0.0926
29658W        W45792   7.094   4.602   2.140 -0.0314  0.0613  0.2008
29659W        W45793   2.208   1.146   4.935  0.1467 -0.1319  0.2652
29660W        W45794  10.858   6.208   4.106  0.2477 -0.1798  0.4268
29661W        W45795  13.628   6.601  13.769  0.0824 -0.1224 -0.0275
29662W        W45796  17.965   2.514   2.572  0.0427 -0.1268  0.0857
29663W        W45797   4.550   2.767  11.551 -0.1325  0.2581  0.0707
29664W        W45798  16.115   3.070  10.771  0.0111 -0.1280  0.0936
29665W        W45799  17.020  17.607  14.897 -0.0290 -0.2390  0.0900
29666W        W45800   6.541  10.763  11.247  0.0969 -0.1185  0.0182
29667W        W45801  14.848  12.265  14.054 -0.2424  0.0923  0.2460
29668W        W45802   3.235   4.372  11.709 -0.2617  0.1298  0.0705
29669W        W45803   7.280  16.440   4.453  0.2764  0.2585 -0.0677
29670W        W45804   8.465   7.132  13.319  0.1666 -0.0048  0.1230
29671W        W45805   5.101  12.435   1.408  0.0782 -0.0677 -0.4355
29672W        W45806   3.327   0.132   0.654 -0.0549  0.0098  0.2952
29673W        W45807  14.334   7.039  13.706 -0.1173 -0.1480  0.0359
29674W        W45808   1.237  13.080   0.971  0.0951 -0.1038 -0.2126
29675W        W45809  14.270   1.926  10.327  0.0880 -0.4085 -0.1355
29676W        W45810   8.199  11.217  14.050 -0.0952 -0.0417  0.2647
29677W        W45811   1.655   4.305   3.138 -0.1692 -0.0384  0.0424
29678W        W45812  16.081   1.090   5.336  0.2652 -0.1800  0.0663
29679W        W45813   8.406  14.949  14.174 -0.2128 -0.3400 -0.2827
29680W        W45814  12.629   9.691   0.976  0.1426 -0.3885 -0.0817
29681W        W45815  14.891   6.063  11.239 -0.2611 -0.0462 -0.2940
29682W        W45816   4.372   6.623   3.569 -0.1522 -0.1390  0.1160
29683W        W45817  12.062   6.656  13.709 -0.3892 -0.0952  0.3215
29684W        W45818   1.423   9.697   1.108 -0.0465  0.0270  0.1681
29685W        W45819   1.511  10.660   3.138  0.2510 -0.1280 -0.1678
29686W        W45820  15.942   0.993  11.686  0.0476  0.1099  0.0666
29687W        W45821   3.543  10.350   0.396  0.0076  0.1062 -0.2703
29688W        W45822  10.966   8.097  14.525  0.2222  0.0028 -0.0065
29689W        W45823  17.790   7.923   3.936  0.3032 -0.2136 -0.3198
29690W        W45824  16.576   5.774  10.697 -0.1443  0.4759  0.1660
29691W        W45825  15.258  16.585  11.066 -0.0688 -0.1835  0.2278
29692W        W45826  15.545   9.681   0.899  0.1369 -0.0575 -0.3201
29693W        W45827   2.024   7.677  12.640 -0.0770 -0.0655  0.0409
29694W        W45828  12.050  17.766   5.470 -0.2785  0.5140 -0.0943
29695W        W45829   4.785  12.758   1.641 -0.0036 -0.0098  0.2221
29696W        W45830  17.653  15.168  14.393  0.1398  0.1127  0.1344
29697W        W45831  17.776  11.240   3.951 -0.2398 -0.0892  0.0546
29698W        W45832   2.811   7.879  12.913  0.0269 -0.1453 -0.0600
29699W        W45833   2.302   4.819  14.760  0.0327 -0.3150 -0.0125
29700W        W45834   6.244  17.492  12.720 -0.1394  0.2428 -0.0343
29701W        W45835  10.065   5.462  14.543 -0.1543  0.1537  0.1958
29702W        W45836  15.657  11.084  13.591 -0.2703  0.1961 -0.3866
29703W        W45837  18.149   5.895   4.700 -0.1552  0.1010  0.2891
29704W        W45838   6.620   0.017   0.676  0.1340  0.0492 -0.0869
29705W        W45839   5.352  17.028  14.061 -0.1846 -0.0984 -0.0630
29706W        W45840  17.119   8.410   2.627 -0.1390  0.1180 -0.2972
29707W        W45841   0.466  18.209  12.359  0.5547  0.0254  0.1032
29708W        W45842   3.473   0.967   1.551 -0.1238 -0.1272  0.1578
29709W        W45843  15.570   8.201  11.321  0.0581  0.1129 -0.2036
29710W        W45844   4.600   1.615   4.631 -0.1434  0.0151 -0.0197
29711W        W45845   8.669   2.759   4.886 -0.1548  0.0247  0.4154
29712W        W45846   9.930   9.977   0.112  0.1147 -0.0507 -0.0734
29713W        W45847   3.368   2.532  11.791  0.1091  0.0367  0.2534
29714W        W45848   0.001  17.035   4.689  0.2392  0.0919  0.0982
29715W        W45849  16.418   2.596   0.402 -0.0270  0.1069  0.0934
29716W        W45850   4.768  10.685  14.736 -0.0270 -0.1699 -0.1392
29717W        W45851   4.898  10.687   3.643  0.0783  0.3351  0.0163
29718W        W45852   8.677   9.252  14.330  0.2987  0.0068 -0.0940
29719W        W45853  14.014   6.697   3.881 -0.0030 -0.2022  0.1980
29720W        W45854  16.440   7.229   0.703 -0.0078  0.2127 -0.1498
29721W        W45855   7.832   2.386  12.835 -0.0480 -0.0226 -0.2616
29722W        W45856   6.069   1.448   4.642 -0.1456  0.0274 -0.1728
29723W        W45857   0.922  17.350  14.676 -0.3125 -0.1274 -0.5917
29724W        W45858  13.014   4.058   6.018  0.3604  0.0508 -0.0172
29725W        W45859   4.054  13.951  15.911  0.0689  0.1261 -0.0031
29726W        W45860  10.512  14.823  14.211  0.1577  0.0877 -0.0035
29727W        W45861   3.138  12.849   5.248  0.3563 -0.0646 -0.0636
29728W        W45862   8.685  11.478  13.005  0.2009 -0.0588 -0.0293
29729W        W45863  17.741  18.021   4.255 -0.0449 -0.1893  0.0665
29730W        W45864   3.661  18.115  10.064  0.1319 -0.0448  0.0390
29731W        W45865  11.611   2.434   4.757  0.1590 -0.0743  0.1609
29732W        W45866   8.733  17.756  11.701 -0.0694 -0.0588 -0.2484
29733W        W45867  12.500   7.169   1.536  0.0893  0.1320 -0.1413
29734W        W45868  12.639  14.896  14.307 -0.0048 -0.1034 -0.2654
29735W        W45869  10.908  12.489  10.973  0.4205  0.0779  0.3149
29736W        W45870  14.926   5.589  10.047 -0.1712  0.1737  0.0251
29737W        W45871  12.955  12.704   3.591  0.0551  0.0772 -0.1534
29738W        W45872   3.488   1.915  12.781 -0.0314  0.1828 -0.2910
29739W        W45873  18.173   1.664   0.360 -0.1130  0.0283 -0.0166
29740W        W45874  16.631   2.521  12.144 -0.2342 -0.3082 -0.0406
29741W        W45875   2.789  14.713  12.229  0.2427 -0.1359  0.0340
29742W        W45876   8.446  16.046  12.794  0.0662  0.0735 -0.0998
29743W        W45877   7.735   3.749  14.025  0.0511  0.2358  0.0391
29744W        W45878  10.903   8.307   5.144  0.0218  0.0289  0.0995
29745W        W45879  14.533  17.056  12.551  0.1301 -0.0704 -0.0893
29746W        W45880   8.019  10.580   3.776 -0.0841 -0.2575 -0.1077
29747W        W45881  17.924   9.030  12.495 -0.0999 -0.0237  0.0177
29748W        W45882  13.657   5.778   2.624 -0.0179  0.2798  0.2051
29749W        W45883  15.788   5.525  11.342  0.0005  0.0342 -0.1374
29750W        W45884  17.372  16.621   0.108 -0.2153 -0.0377  0.1041
29751W        W45885   6.018  16.485   4.392 -0.3271 -0.1799  0.2236
29752W        W45886   8.722  11.691   0.674 -0.0760  0.1260 -0.3987
29753W        W45887   6.257   0.673  15.437  0.0081 -0.0816 -0.1546
29754W        W45888   7.930  14.141  12.050 -0.0137  0.1103 -0.1052
29755W        W45889   1.274  15.309   1.675 -0.2162 -0.2537 -0.3289
29756W        W45890   8.580   0.291   6.000  0.2786  0.1622 -0.3638
29757W        W45891  11.322  17.611   3.607  0.2745 -0.1335 -0.0996
29758W        W45892   2.963   4.556   4.949  0.0449 -0.0013  0.0151
29759W        W45893  17.939  15.007   0.955 -0.0441 -0.0205 -0.2430
29760W        W45894  15.063   6.437   1.888 -0.3059  0.0122 -0.0660
29761W        W45895   0.272   0.473  12.515 -0.0142 -0.1788 -0.1308
29762W        W45896  10.909   4.013  14.645  0.0939  0.0067  0.2637
29763W        W45897   4.970  11.508  11.830  0.1028 -0.2318  0.0140
29764W        W45898  13.223   6.877  15.300 -0.0237 -0.0881 -0.0947
29765W        W45899   4.105   9.052   5.052 -0.2762  0.2566 -0.1077
29766W        W45900  11.279   9.000   4.225  0.1614 -0.1462  0.1235
29767W        W45901  13.993   3.536   0.321  0.0575  0.0479 -0.3041
29768W        W45902   2.069  12.819  14.701  0.2928 -0.0479  0.1182
29769W        W45903   0.897  10.711   5.812 -0.1588  0.0866 -0.3623
29770W        W45904  17.578  18.451   2.261  0.1581 -0.0424 -0.1778
29771W        W45905  13.486   4.060  12.760 -0.1031  0.1654 -0.0632
29772W        W45906  10.308  13.662   4.885  0.0472  0.0156 -0.0045
29773W        W45907   6.429  18.167   5.235  0.1706  0.1444  0.3415
29774W        W45908   8.556  14.785   3.582  0.0892  0.1166 -0.1575
29775W        W45909  17.667   9.779   3.973  0.1702  0.2802  0.0349
29776W        W45910  16.583  10.875   2.964 -0.0655 -0.0971  0.0962
29777W        W45911   7.927  16.976  12.235 -0.0297  0.1807 -0.2194
29778W        W45912  13.378   7.158  11.420  0.1905 -0.3118 -0.3559
29779W        W45913   0.181  12.558   4.522  0.1033 -0.0764 -0.4350
29780W        W45914   6.988  14.457  12.923 -0.0970 -0.0600  0.0322
29781W        W45915  15.362   1.347  15.722  0.1664 -0.0107 -0.1137
29782W        W45916  14.550   2.789   2.408  0.2307 -0.1014 -0.3225
29783W        W45917   2.904   9.647  13.909  0.2624  0.1349 -0.0673
29784W        W45918  14.834   5.888  12.045 -0.0919 -0.0027  0.2151
29785W        W45919   6.696   4.406  13.404 -0.0997  0.0174  0.1347
29786W        W45920   4.233  11.380  10.995 -0.1477 -0.0086 -0.1425
29787W        W45921  11.283  13.101   2.250  0.1359 -0.2218  0.2952
29788W        W45922   6.017  16.212  15.186 -0.0981 -0.0774  0.2306
29789W        W45923   5.293   8.657  11.639  0.1338  0.0356  0.0910
29790W        W45924  11.247   4.999  12.368 -0.5342 -0.0466 -0.4196
29791W        W45925   2.737   8.314  15.344  0.2915 -0.2809  0.0757
29792W        W45926  11.303   6.879   1.370  0.0178 -0.0337 -0.1119
29793W        W45927   0.394   3.519  13.211  0.2667 -0.2906 -0.3050
29794W        W45928   4.609   4.702  12.119 -0.1398 -0.0228  0.1186
29795W        W45929   6.197   8.485   3.322 -0.0007 -0.0770  0.0900
29796W        W45930   6.913  15.460  11.933 -0.0440 -0.1195 -0.4332
29797W        W45931   4.328   5.152  11.195 -0.1552  0.2226 -0.5453
29798W        W45932   5.790   3.803  14.186  0.1637  0.1615 -0.0821
29799W        W45933   6.704   8.262   1.944 -0.1849  0.2183 -0.1892
29800W        W45934  14.031   3.610   5.488 -0.0136 -0.1311  0.0854
29801W        W45935  10.180   7.647  13.129 -0.1119 -0.0339 -0.2815
29802W        W45936  13.591   8.400  12.966  0.1265 -0.2740 -0.1244
29803W        W45937   4.580   4.387  11.446 -0.0896 -0.2201  0.2002
29804W        W45938  18.209   7.527  14.141 -0.1518  0.1383  0.0431
29805W        W45939   0.817  12.756   1.751  0.2043 -0.0092  0.5213
29806W        W45940  12.095   5.333   0.671 -0.1243 -0.3112 -0.2250
29807W        W45941  13.453   3.802   2.429 -0.0699 -0.4666 -0.1204
29808W        W45942  14.895   3.175   5.478  0.0220  0.1264  0.1158
29809W        W45943   3.807  13.700   4.585 -0.1556 -0.1058 -0.0829
29810W        W45944  11.470  15.130   4.952  0.3224  0.1338 -0.3396
29811W        W45945  13.151  16.948  12.871 -0.0380 -0.0511 -0.0095
29812W        W45946  16.780   2.910  15.497  0.1595 -0.2411 -0.3121
29813W        W45947   5.100   4.280   3.121 -0.1716 -0.0051  0.1358
29814W        W45948   5.095   4.975   1.514  0.0529  0.0179 -0.2107
29815W        W45949   0.712  15.896  15.582 -0.2363  0.0212  0.0174
29816W        W45950   9.674   7.969   2.528 -0.0756 -0.3207 -0.1059
29817W        W45951  10.807   5.207   5.119 -0.3710 -0.1552 -0.0302
29818W        W45952   0.306  16.725  11.076  0.1529  0.3825  0.0753
29819W        W45953  18.218  13.479  15.372  0.0128  0.1449 -0.2073
29820W        W45954  13.964  14.554  12.086 -0.1146 -0.1685  0.2286
29821W        W45955   1.513  14.066  13.408  0.1067  0.2938  0.1987
29822W        W45956   6.946   9.752   5.432  0.0395  0.0782 -0.3396
29823W        W45957  15.835   2.652   4.092 -0.0570  0.2957 -0.0020
29824W        W45958   7.062  13.218  11.676  0.0472  0.0724 -0.1144
29825W        W45959  14.570   5.215   5.169  0.0642 -0.2114  0.1671
29826W        W45960  16.105  18.138  11.509 -0.1653  0.0960 -0.1093
29827W        W45961  12.683   9.781  11.915  0.1888  0.0713 -0.0381
29828W        W45962  16.588   1.534  15.180  0.1791  0.0967  0.2458
29829W        W45963  18.189  17.216   2.491 -0.0932 -0.0470 -0.3580
29830W        W45964  17.427   1.085  14.118 -0.0328  0.1250  0.2118
29831W        W45965   0.205   8.335   0.454  0.1842  0.0992  0.0515
29832W        W45966  10.524  10.692   1.160  0.1054  0.1489  0.3481
29833W        W45967   6.394  14.383   4.957  0.1934  0.0495  0.0616
29834W        W45968   1.761   7.557  11.271 -0.1280  0.2712 -0.0173
29835W        W45969  14.371  16.046   0.494 -0.2466 -0.0223 -0.1402
29836W        W45970   2.291  13.077  12.563 -0.1567 -0.0190 -0.0208
29837W        W45971  17.831  13.088   4.720  0.0109 -0.0551 -0.0432
29838W        W45972  17.030   8.534   2.138 -0.2211  0.1477 -0.2461
29839W        W45973  15.285  14.967   3.881  0.0742  0.0572  0.0313
29840W        W45974   1.169   2.222   5.658 -0.0379 -0.5035 -0.1463
29841W        W45975  14.337  17.438   1.802 -0.0877 -0.0658 -0.2724
29842W        W45976  10.258  10.627  13.533 -0.3044  0.2363 -0.0260
29843W        W45977   0.455  17.271   3.498 -0.3574  0.2405 -0.0536
29844W        W45978   2.861   4.789   3.667 -0.5044  0.1768 -0.0414
29845W        W45979   5.630   2.014   0.386  0.2346  0.2037  0.0553
29846W        W45980  14.383  15.099   0.823  0.0754  0.1415  0.1450
29847W        W45981   0.831   2.919   5.580  0.1286 -0.0674  0.1475
29848W        W45982  17.360   0.474  13.179 -0.3500 -0.1953 -0.3584
29849W        W45983   5.950  13.507  13.178 -0.2194 -0.0600  0.0671
29850W        W45984  17.406   6.248  10.672  0.3471 -0.1860  0.0269
29851W        W45985   9.604   2.116   0.692 -0.1926  0.1069 -0.0525
29852W        W45986  16.334  17.709   1.464 -0.0840  0.2637 -0.1994
29853W        W45987   8.048   2.579  12.350 -0.0298 -0.0301 -0.1366
29854W        W45988  13.360   7.992  14.152  0.0760  0.1513  0.2208
29855W        W45989  12.766   0.639  12.009 -0.0507 -0.0865  0.0153
29856W        W45990  16.218   8.592  14.568  0.0106  0.0000  0.0354
29857W        W45991   3.163   2.625  13.568  0.2073  0.0220 -0.2291
29858W        W45992  17.999   2.629  13.328 -0.0958 -0.2801 -0.2302
29859W        W45993  16.851  14.124   2.415  0.1191  0.2126  0.2482
29860W        W45994   7.877  12.750   1.261  0.1851  0.1481 -0.0051
29861W        W45995   2.067   1.981  10.718 -0.0308  0.3210  0.2905
29862W        W45996   5.145  16.535  12.771  0.1200  0.0379 -0.2149
29863W        W45997   1.695   7.863  10.520  0.1078 -0.0418 -0.0761
29864W        W45998  10.819   0.518   0.070 -0.0454  0.1021 -0.1406
29865W        W45999   0.897  13.072   3.122  0.2681  0.1996  0.4994
29866W        W46000   1.484  15.598   0.862  0.0087 -0.1746  0.1110
29867W        W46001   8.722   2.001   1.198 -0.0671 -0.3164 -0.3009
29868W        W46002  10.191   9.555  10.801  0.0976  0.0909 -0.2390
29869W        W46003  13.727   5.105   2.295  0.0849  0.1030  0.0619
29870W        W46004  17.621  15.138  15.748  0.2596 -0.2239 -0.2759
29871W        W46005  16.923   4.061  11.412  0.2178  0.2878 -0.0551
29872W        W46006   7.454   3.360   5.615  0.1009 -0.0604 -0.2931
29873W        W46007   0.219   7.553   5.007 -0.0674 -0.0382  0.1663
29874W        W46008   3.320  16.169  14.191  0.0575 -0.3196  0.2067
29875W        W46009   7.059  16.553   2.903 -0.1244  0.1617 -0.2249
29876W        W46010   4.306  10.306   1.757  0.0642  0.0133  0.0616
29877W        W46011  15.987  13.869   2.131 -0.0862  0.1629 -0.1322
29878W        W46012   2.521  14.735  13.641  0.0990 -0.0961 -0.1784
29879W        W46013  17.905   9.809  12.809 -0.0869  0.2362  0.3152
29880W        W46014  13.879  10.042  14.573 -0.0357  0.4136  0.1158
29881W        W46015   9.342   9.882  15.906  0.1436  0.4782  0.1389
29882W        W46016  12.559  10.359  12.109  0.1260  0.4101 -0.2519
29883W        W46017  13.062  16.186   0.966  0.1276  0.0842  0.1229
29884W        W46018  16.359  16.058  11.998  0.2923  0.0462 -0.0459
29885W        W46019  16.735  17.156   5.781  0.0867 -0.1368  0.2106
29886W        W46020  12.838  16.287  11.591  0.0070 -0.1180  0.0883
29887W        W46021   4.486  14.601   5.303 -0.3133  0.0602 -0.2846
29888W        W46022  12.199   3.383  15.652  0.0697  0.1784  0.0525
29889W        W46023   6.562   0.246  11.307 -0.2395  0.1579 -0.3594
29890W        W46024   0.752  11.676  11.154  0.3261 -0.0031  0.2653
29891W        W46025   7.566  14.047   5.416  0.0140 -0.3418 -0.0567
29892W        W46026  13.615   7.237  14.547 -0.2623  0.2230  0.0887
29893W        W46027  15.898   1.861  13.524 -0.0263  0.0190  0.1533
29894W        W46028  12.585  18.179   2.155  0.0413  0.2158 -0.0351
29895W        W46029   2.231   5.440   4.108 -0.1887  0.0723 -0.1136
29896W        W46030  14.172   4.594   2.267  0.0529  0.1520 -0.0225
29897W        W46031   9.506   0.802   5.178 -0.0933  0.1124  0.1632
29898W        W46032  14.945  15.082  15.357 -0.1543  0.0408  0.0063
29899W        W46033   8.614   3.036   2.362 -0.2941 -0.1441 -0.0241
29900W        W46034  13.727   9.572   5.165  0.0589  0.3466  0.0320
29901W        W46035   9.109  10.286   4.964  0.2438 -0.1440  0.1180
29902W        W46036   8.281   8.102   2.700  0.2717  0.0254 -0.0657
29903W        W46037  13.745   1.744   1.285  0.1694 -0.1352  0.1403
29904W        W46038  17.489  11.719  10.806 -0.1708  0.1448 -0.0303
29905W        W46039   4.555  15.525  11.104  0.3701 -0.2413 -0.1060
29906W        W46040   3.414  12.746  14.689  0.0798  0.2716 -0.1033
29907W        W46041  12.385   0.279  12.134  0.0390 -0.1080 -0.1197
29908W        W46042  12.346  17.272  12.653 -0.1889  0.4331  0.0004
29909W        W46043  14.770  10.054   0.782  0.2541  0.0769  0.1390
29910W        W46044  10.208  18.126   5.422 -0.2519  0.3667 -0.0072
29911W        W46045   5.818   8.519  14.815  0.2884 -0.4194 -0.0793
29912W        W46046  16.015   4.412   5.320  0.0669  0.2016  0.1807
29913W        W46047  12.070  18.083   1.202 -0.0892  0.3483 -0.0744
29914W        W46048   6.823   1.237  13.770 -0.1338  0.1744 -0.1465
29915W        W46049   6.466   7.504   5.237  0.0091  0.0299  0.0662
29916W        W46050  12.663  11.970  14.120  0.0035 -0.0224  0.1674
29917W        W46051   8.339  18.283  12.458 -0.3563  0.1870 -0.0431
29918W        W46052  11.057   0.891   1.057  0.1381 -0.0392 -0.0767
29919W        W46053   8.986   6.957  11.878  0.2859  0.1973 -0.0280
29920W        W46054   6.723  10.821   2.270  0.0928  0.3489  0.0449
29921W        W46055  13.162  15.357  11.994  0.0208 -0.0156  0.1738
29922W        W46056   4.272   7.826  10.929 -0.0354 -0.0567  0.2979
29923W        W46057   6.773   3.278   0.315  0.0929 -0.4073 -0.2030
29924W        W46058   8.998   7.874   1.475 -0.1582  0.0071  0.2462
29925W        W46059   9.501   6.836   0.908 -0.0507  0.2010 -0.2510
29926W        W46060   3.127  14.047  13.956  0.2667 -0.1914  0.0756
29927W        W46061   4.982   6.144   2.307  0.0135  0.2681 -0.2589
29928W        W46062   9.909  18.203   2.088  0.0836 -0.0494  0.0744
29929W        W46063  15.269  16.681  14.688  0.1455 -0.4098  0.0827
29930W        W46064  12.788   1.132   4.843  0.2650  0.0090  0.1279
29931W        W46065  17.344   8.674   3.004  0.0078 -0.0390 -0.1549
29932W        W46066  17.508  11.620  11.330 -0.2297 -0.0460 -0.1007
29933W        W46067  10.056   6.627  11.777 -0.0317 -0.0664 -0.0559
29934W        W46068   1.521   0.931   0.949 -0.2616 -0.0676  0.0849
29935W        W46069  16.018  17.248   0.285  0.0005 -0.1747  0.1371
29936W        W46070   0.135   3.390  11.286 -0.4644  0.0279  0.1653
29937W        W46071   2.917   5.933  15.759  0.0749  0.3025  0.0351
29938W        W46072   9.310   6.535  13.480  0.2590  0.1475 -0.0088
29939W        W46073   7.332  16.827  12.606  0.1369  0.0149  0.2938
29940W        W46074  12.557   4.311   2.801  0.2266  0.2418 -0.3479
29941W        W46075  11.108   2.939  12.816  0.2596 -0.0231 -0.2193
29942W        W46076  13.628   3.180   4.499  0.0109 -0.2539 -0.1782
29943W        W46077   3.825   0.192   2.658  0.2638 -0.0697  0.0550
29944W        W46078   2.343   3.441   0.822  0.0445 -0.0733 -0.4263
29945W        W46079   0.979   8.371   1.644  0.0259  0.1079 -0.0414
29946W        W46080  14.767  11.871  11.738 -0.3693  0.1745 -0.2518
29947W        W46081  14.056   1.381   4.597  0.1099 -0.1553  0.2990
29948W        W46082   2.488   2.090  15.608  0.0657 -0.1179 -0.1422
29949W        W46083   2.395   2.920   4.586  0.3128  0.2401 -0.0065
29950W        W46084  18.465   9.514  14.498 -0.1727 -0.1873 -0.1341
29951W        W46085   7.892   6.719   2.555  0.2527  0.0637 -0.1145
29952W        W46086   1.113  10.508   5.420  0.2071 -0.1169  0.0236
29953W        W46087  11.575  16.530  11.211 -0.1969  0.1099 -0.0017
29954W        W46088   4.573   8.782   1.072 -0.3140 -0.1424 -0.2241
29955W        W46089   9.228  15.507  15.021 -0.2462  0.1255 -0.1657
29956W        W46090   3.452   8.273  12.362 -0.0204 -0.2840 -0.2439
29957W        W46091   0.090   3.325  15.421 -0.3358 -0.0667 -0.2172
29958W        W46092   5.825   0.714  15.743 -0.0433 -0.1301  0.0781
29959W        W46093   4.165  11.237   4.374  0.1790  0.1040 -0.3113
29960W        W46094  14.398  11.796   3.012  0.3955 -0.0342  0.1233
29961W        W46095  16.498  16.659  12.046 -0.1189 -0.0317  0.2369
29962W        W46096  18.313  11.336   2.676 -0.0066  0.2447 -0.1525
29963W        W46097   1.739   2.446   1.125  0.2555 -0.0710  0.0370
29964W        W46098  14.549   3.796  14.900 -0.0402  0.3355 -0.1472
29965W        W46099   2.715   0.511  12.505  0.1420  0.4043 -0.2316
29966W        W46100  16.934   4.404   3.420  0.0456 -0.0520 -0.1149
29967W        W46101  12.041   1.464   3.184  0.2338 -0.3787  0.1269
29968W        W46102  18.075   9.842  11.951  0.3751 -0.1573  0.0925
29969W        W46103  18.210  16.553   4.736  0.0292  0.0263 -0.1428
29970W        W46104   8.218   5.313   4.010  0.0245  0.1147  0.1663
29971W        W46105   6.113   3.948   4.224  0.1958 -0.1639 -0.2030
29972W        W46106   5.240  14.586  11.874 -0.4064  0.3435  0.1127
29973W        W46107  17.127   1.828   3.649 -0.1663 -0.2627  0.5486
29974W        W46108  12.442  11.173  14.066 -0.0948  0.1020  0.1344
29975W        W46109   4.662  18.006   2.958 -0.2993  0.0933 -0.0168
29976W        W46110  10.564   4.345  11.129  0.1469  0.0574 -0.0812
29977W        W46111   2.743  12.247  11.937 -0.0931  0.2143  0.0030
29978W        W46112  10.862  16.417   1.632 -0.0036  0.3826 -0.0492
29979W        W46113  15.239  16.881   3.203  0.1681  0.1905 -0.1860
29980W        W46114   4.418   0.430  12.026 -0.3152 -0.3092 -0.0014
29981W        W46115  15.314  12.424   2.520  0.0905 -0.0254  0.4671
29982W        W46116   1.329  13.420   3.971 -0.1690 -0.1770  0.0717
29983W        W46117  12.847   1.623   0.973 -0.2312  0.1507  0.0087
29984W        W46118  11.924   1.588  11.615 -0.0050 -0.1947 -0.0156
29985W        W46119   1.198  12.566   0.946  0.2036 -0.1784 -0.0748
29986W        W46120   1.691  14.216   1.602  0.0732 -0.1083 -0.1135
29987W        W46121  13.530   5.921   3.567 -0.4585 -0.0076  0.2501
29988W        W46122   7.627  12.185  11.056  0.1430 -0.0133  0.1733
29989W        W46123  11.597   4.853   1.519  0.2470 -0.4641 -0.2308
29990W        W46124  17.248   2.557  13.353  0.1540 -0.0745  0.5057
29991W        W46125   7.989  12.582   5.723 -0.0771  0.1112  0.0615
29992W        W46126   8.446   9.198  13.000  0.3842  0.2788 -0.0103
29993W        W46127  10.439  15.111   0.080 -0.2069  0.1037 -0.1028
29994W        W46128  14.334   5.878   4.443  0.0876  0.1064  0.0005
29995W        W46129  14.255  11.773   1.231 -0.0469  0.4893 -0.2765
29996W        W46130   3.943   8.066  14.292  0.1539  0.1411  0.2264
29997W        W46131  14.984   9.196   3.784  0.1927  0.2697  0.2981
29998W        W46132  11.943   0.992   1.848  0.0363  0.2299 -0.2517
29999W        W46133  13.894   1.182   0.501  0.0120 -0.1498  0.2835
30000W        W46134   8.454   0.393  14.943  0.1688  0.0575 -0.1333
30001W        W46135  11.547   5.758  12.630 -0.2100  0.1007 -0.0551
30002W        W46136  10.396   6.427   4.043 -0.2880  0.2362 -0.1026
30003W        W46137  11.848   2.957   2.178 -0.0532  0.1160  0.0915
30004W        W46138  12.446   5.540  14.165  0.1057 -0.0697  0.0080
30005W        W46139   0.170  15.380   3.242 -0.0486 -0.0176  0.1886
30006W        W46140   0.420   2.009   1.537  0.2015 -0.0749 -0.0359
30007W        W46141   6.521   3.008  10.431 -0.1063 -0.2115 -0.4918
30008W        W46142  16.877  13.271  13.960 -0.1925 -0.0244  0.2222
30009W        W46143   1.433   7.691   2.917  0.3330 -0.0050  0.1438
30010W        W46144  17.027  15.749  14.839 -0.0149 -0.3933 -0.0270
30011W        W46145   3.660   7.742   0.711  0.2103  0.3368  0.2418
30012W        W46146   6.692  16.333   2.649 -0.1332 -0.1654  0.0205
30013W        W46147   9.086   6.535  11.394  0.0079 -0.0894 -0.1320
30014W        W46148   2.000  15.606  11.599  0.2682 -0.2179  0.1674
30015W        W46149  10.383   3.597  11.920 -0.3834  0.1306 -0.0525
30016W        W46150   6.637   5.227  14.597  0.0897 -0.2304  0.3334
30017W        W46151  15.539  16.583   2.446 -0.0708 -0.0735  0.0663
30018W        W46152   9.396   4.549  13.330  0.0577  0.2137  0.0838
30019W        W46153  15.109  13.029   2.798 -0.0702  0.0496 -0.0178
30020W        W46154  16.189   9.101   3.441  0.0818 -0.1463 -0.2675
30021W        W46155  12.295   2.022  13.840 -0.0898 -0.1070  0.4150
30022W        W46156  17.169   6.928  13.511  0.3084  0.3333  0.3050
30023W        W46157  15.321   0.941   4.845  0.1506  0.2218  0.0296
30024W        W46158  15.086  12.925   1.732 -0.0616  0.0874 -0.2556
30025W        W46159   6.075  10.071  15.322 -0.0674  0.1219 -0.0566
30026W        W46160  11.499  14.323  14.439 -0.1782 -0.3211 -0.1363
30027W        W46161  12.507  10.403   2.998  0.0254  0.1016 -0.1271
30028W        W46162  11.065   4.372  11.607  0.0326  0.2567  0.2648
30029W        W46163   3.937  14.436  11.533  0.3225 -0.0249  0.0873
30030W        W46164   6.617  14.526   3.921  0.1821 -0.1401 -0.0238
30031W        W46165  12.031  10.698   2.427 -0.0295  0.1447 -0.0060
30032W        W46166  12.147   2.393  12.074  0.1275 -0.0075 -0.0114
30033W        W46167   2.619  14.078   1.356  0.2968  0.1958 -0.1572
30034W        W46168   7.826   1.089   5.616 -0.3467 -0.2332 -0.1085
30035W        W46169   3.707   0.921  11.742  0.0419 -0.4391 -0.0159
30036W        W46170   1.569   8.232  10.251 -0.1717  0.0202 -0.0086
30037W        W46171   4.745   2.952  12.733  0.2292  0.0859  0.0071
30038W        W46172  10.720   8.963   4.366  0.2439 -0.2284  0.2494
30039W        W46173   0.544   0.399  11.994 -0.1773 -0.0533 -0.2956
30040W        W46174   4.866  16.877  14.240 -0.0006 -0.0163  0.1851
30041W        W46175   9.796  10.554   0.082  0.2965 -0.3103  0.0384
30042W        W46176  16.243   9.608   5.100 -0.2710  0.2076 -0.0874
30043W        W46177  18.004  16.701   1.363 -0.1695 -0.0674  0.0788
30044W        W46178  17.351   0.755   3.784 -0.0015  0.0563 -0.0544
30045W        W46179  17.643  13.837  14.012  0.5227  0.2209  0.1859
30046W        W46180   7.569  12.174  12.491  0.0545 -0.0918 -0.1024
30047W        W46181  16.645   6.914  12.056  0.0188 -0.0077 -0.0740
30048W        W46182   7.356   2.578   0.282  0.2606 -0.0086  0.3283
30049W        W46183   8.401  17.128   4.080 -0.1934  0.1922 -0.3014
30050W        W46184  12.935  10.121  12.867 -0.1775 -0.0219  0.0539
30051W        W46185  16.708   7.080  11.183  0.2076 -0.0224 -0.4861
30052W        W46186  12.885   6.453   0.197  0.0706 -0.0456  0.0657
30053W        W46187   3.362  14.503  13.087  0.0476 -0.3410 -0.2661
30054W        W46188   8.161  17.076  11.358 -0.0792 -0.1744  0.0519
30055W        W46189   9.061   2.771  12.700  0.3613 -0.0395 -0.0360
30056W        W46190  14.523   0.905  15.189 -0.0529  0.1104 -0.1566
30057W        W46191   1.309   6.941  14.814 -0.0478 -0.0886  0.1221
30058W        W46192  14.494   9.411  10.798  0.0209 -0.2806 -0.2702
30059W        W46193  10.294   6.530  14.583  0.1591  0.1320 -0.0734
30060W        W46194   6.282  17.556   3.685 -0.1713  0.1380  0.0140
30061W        W46195   9.650  16.313   5.278  0.1306 -0.0162 -0.2499
30062W        W46196   2.314  14.863  14.969  0.0469 -0.1962  0.1572
30063W        W46197   4.948   7.500   4.462  0.1152 -0.0396 -0.0677
30064W        W46198   8.940  18.250   3.172  0.3257 -0.1015  0.1521
30065W        W46199  17.348  16.383   5.829 -0.0227  0.3366  0.1253
30066W        W46200   9.207   8.588   3.952  0.1486  0.2264 -0.2896
30067W        W46201  17.653  13.814   1.447 -0.2855 -0.1036  0.2956
30068W        W46202   0.470   3.517   3.937 -0.0610 -0.1010 -0.0895
30069W        W46203   3.138  15.442   2.475  0.0646 -0.0278 -0.3091
30070W        W46204   5.018  16.549   1.055  0.0906  0.0188  0.0438
30071W        W46205  14.933   7.053   3.948  0.0260 -0.0261  0.0968
30072W        W46206   1.331  17.025   4.897 -0.1861  0.1695 -0.1668
30073W        W46207   1.774  14.183   0.519 -0.1825 -0.0507 -0.4081
30074W        W46208   9.473  17.117  13.433  0.0553 -0.0962 -0.0843
30075W        W46209   2.603   7.522  10.687 -0.1310  0.0828  0.0664
30076W        W46210  12.589   0.194  13.517  0.0331 -0.0423  0.4216
30077W        W46211  11.569  16.163  12.026  0.2607 -0.0157 -0.1132
30078W        W46212   7.479   9.783  14.889  0.3962 -0.3412  0.3283
30079W        W46213  10.462   4.538   1.001 -0.1148 -0.0116  0.0281
30080W        W46214   1.535  12.376   3.057 -0.2056 -0.1246  0.3368
30081W        W46215   4.430  13.531   2.889 -0.3757  0.1470  0.2310
30082W        W46216   0.270   8.884   1.380 -0.0275 -0.5504 -0.2176
30083W        W46217  18.308   5.645   0.729 -0.2468 -0.3177 -0.1317
30084W        W46218  15.123  13.474  14.655  0.0406  0.1108  0.1717
30085W        W46219   9.852   4.254  11.799 -0.1463  0.2826 -0.2764
30086W        W46220  13.490   3.644   4.547  0.1214 -0.4162 -0.1199
30087W        W46221  12.097  18.202   4.548 -0.1516 -0.3098  0.1934
30088W        W46222  15.580   6.676  15.895  0.1074 -0.0129 -0.1205
30089W        W46223   6.604  15.068  12.276  0.0584  0.1284  0.5135
30090W        W46224   5.428  10.050  12.012  0.0368  0.0411 -0.1277
30091W        W46225   9.993  11.745   5.780 -0.1650  0.1039 -0.2164
30092W        W46226   0.214   7.213  13.707 -0.1410 -0.1250 -0.1443
30093W        W46227   9.332  17.411  14.850 -0.1944  0.0233  0.2003
30094W        W46228   8.021   3.732   1.569  0.0312  0.0975  0.1716
30095W        W46229   2.786   9.335  12.715 -0.1417  0.1360 -0.0687
30096W        W46230   3.202  15.909   4.389 -0.1476  0.0056 -0.1654
30097W        W46231  13.213  10.374   5.005  0.0067  0.0827  0.0414
30098W        W46232   2.426  11.254  11.066  0.1381 -0.3508 -0.0420
30099W        W46233   7.605  14.699   3.708 -0.0115 -0.0664  0.2505
30100W        W46234   4.557  15.685   1.898 -0.2222 -0.0360 -0.4704
30101W        W46235   9.985  10.584   1.563 -0.0140  0.1431  0.0993
30102W        W46236   9.862   5.765  12.657 -0.1822  0.0478  0.2667
30103W        W46237   7.316  14.020   2.911  0.0130  0.2653 -0.1290
30104W        W46238   2.413   2.896  12.526 -0.1820 -0.0258  0.0236
30105W        W46239  15.307   4.142  13.387  0.1280 -0.3701  0.1210
30106W        W46240   1.028  16.661   4.864  0.1844 -0.1732 -0.2778
30107W        W46241  12.425   1.840   3.367  0.0287 -0.1310 -0.2091
30108W        W46242  11.737   4.162   5.085  0.0273  0.3427  0.0914
30109W        W46243  17.550  11.908  12.870  0.0024 -0.1577  0.0127
30110W        W46244   4.102   9.012   3.220  0.0030  0.3862 -0.2844
30111W        W46245  10.791   0.897  15.646  0.1106 -0.1149 -0.1383
30112W        W46246   4.243  11.020   3.182 -0.1188 -0.2273 -0.2094
30113W        W46247   6.682   6.802  14.012  0.1613  0.2377 -0.0231
30114W        W46248  18.076   7.134  12.163  0.0933 -0.0495  0.0250
30115W        W46249  10.800   0.819   4.835  0.0488 -0.2667 -0.1368
30116W        W46250   0.209   6.457   1.309 -0.0908 -0.0307 -0.0143
30117W        W46251   9.580   0.678  11.637  0.2101 -0.1309  0.1025
30118W        W46252  13.306  17.887  13.781  0.0558 -0.1796  0.1814
30119W        W46253   0.078  12.114   0.948 -0.0324 -0.2545  0.1392
30120W        W46254   4.133  17.625   4.319  0.1986 -0.2822 -0.0391
30121W        W46255  13.220  17.131  12.309  0.0508  0.1665  0.2580
30122W        W46256   0.543   5.205  14.286 -0.0370 -0.1517 -0.0067
30123W        W46257   4.452   0.093   1.418  0.0973 -0.0646  0.1215
30124W        W46258  15.175   0.971   1.699  0.2502  0.1231 -0.0101
30125W        W46259   4.476  13.987   0.699 -0.0102  0.0011 -0.4691
30126W        W46260   1.696  14.926   4.770 -0.0041  0.1271  0.2237
30127W        W46261  11.110   0.179   2.901  0.3393  0.3589 -0.0210
30128W        W46262  17.993  11.359  14.739 -0.0864  0.0268  0.1248
30129W        W46263  10.007   0.481   4.900 -0.4823 -0.3369 -0.0593
30130W        W46264   8.530   3.281  11.312 -0.4198  0.1440 -0.0065
30131W        W46265   7.113  17.188  12.295 -0.1524 -0.0705 -0.1237
30132W        W46266  15.016  15.392  13.716  0.1942  0.1173 -0.4185
30133W        W46267  18.467  11.698   1.199 -0.0502  0.3767 -0.0473
30134W        W46268  18.088   5.577   5.100  0.1582 -0.1408 -0.1109
30135W        W46269   1.357  14.106  11.974  0.0894  0.0084  0.0437
30136W        W46270   0.089  15.156   1.806 -0.2323  0.0899  0.0157
30137W        W46271  17.342  10.081   5.665  0.0251  0.1219  0.0386
30138W        W46272   7.567  16.164  11.384 -0.2201  0.1404 -0.2649
30139W        W46273   4.310   5.780   4.844 -0.1558  0.2313 -0.0275
30140W        W46274  16.311   4.658   1.835 -0.0419 -0.0331  0.1008
30141W        W46275   4.368  11.442  15.328 -0.1188  0.1082  0.2241
30142W        W46276   0.837   5.887  15.459 -0.0054 -0.0943 -0.0711
30143W        W46277  12.104   4.528   4.971  0.1644  0.1295 -0.1154
30144W        W46278   1.310   5.229  11.610 -0.1593 -0.0640 -0.0341
30145W        W46279  17.746  15.169  11.433  0.1666 -0.2666  0.0839
30146W        W46280   8.334  16.112   3.054 -0.0524 -0.5187  0.1805
30147W        W46281   2.437  17.520  14.701 -0.0817 -0.1816  0.1951
30148W        W46282  15.477   3.663  10.400  0.0420  0.0653  0.1655
30149W        W46283   9.381   6.875  12.285 -0.0231 -0.5954  0.4239
30150W        W46284  13.022  18.014   5.010  0.3546  0.0692  0.1290
30151W        W46285  17.496  10.398   4.626  0.2609  0.0285  0.0141
30152W        W46286   0.169   9.864   3.798  0.1739  0.3738  0.0404
30153W        W46287  15.126  11.769   1.289  0.0630 -0.2568 -0.1881
30154W        W46288  15.388  15.857  15.572 -0.2588 -0.0025 -0.3150
30155W        W46289   5.376  13.221  15.753  0.0486  0.0206 -0.1554
30156W        W46290  17.747  11.202   1.448 -0.1610 -0.2069  0.1134
30157W        W46291  17.361   2.120  13.555 -0.0616  0.0135 -0.1536
30158W        W46292   0.180  12.776  13.324 -0.1120 -0.0213  0.3276
30159W        W46293   6.648  12.619   0.261  0.1715  0.2334 -0.2758
30160W        W46294   3.769  13.758  13.123  0.4027  0.2735 -0.0471
30161W        W46295  16.942   7.764   3.339  0.2396 -0.0786 -0.4224
30162W        W46296  14.579   2.687  11.051 -0.1147  0.2537  0.0690
30163W        W46297  11.307   4.389  15.172 -0.3965  0.0068  0.0709
30164W        W46298   5.828  15.368  12.781  0.0423  0.0114  0.0584
30165W        W46299  15.431  12.282   1.994  0.1609  0.1658  0.0566
30166W        W46300   7.099  10.253  12.572 -0.1585 -0.1971 -0.0490
30167W        W46301   9.959   8.397   1.272  0.0094  0.0629 -0.0072
30168W        W46302  14.142   8.392  13.751  0.0176  0.0113  0.1648
30169W        W46303  10.607   8.587   1.770  0.0247  0.1144  0.0910
30170W        W46304   4.133   2.509  13.028 -0.0437 -0.3671  0.0029
30171W        W46305  13.486   9.938  11.777 -0.1870 -0.3600  0.1689
30172W        W46306   7.855   3.592   2.638 -0.0212  0.0659  0.0307
30173W        W46307  18.377   5.185   3.620  0.3033  0.2690 -0.0460
30174W        W46308   1.250   3.180   2.987  0.0174 -0.0371  0.0383
30175W        W46309   4.202  14.911  11.668  0.1891  0.1487 -0.0086
30176W        W46310  16.929   3.891   6.064  0.0008  0.1140 -0.0287
30177W        W46311  17.977   6.941  10.914 -0.1293  0.1727 -0.2917
30178W        W46312  11.876   8.328  10.084 -0.1412  0.1291  0.1072
30179W        W46313   1.804   5.005  12.102 -0.1855 -0.4417  0.0496
30180W        W46314   9.772   2.418  11.169  0.3698 -0.3218  0.1956
30181W        W46315  14.883   3.245   4.312 -0.1252  0.0126 -0.0352
30182W        W46316   6.131   0.199   3.804 -0.1839  0.1787  0.0204
30183W        W46317  10.304   1.662   1.138  0.2078 -0.0609 -0.1444
30184W        W46318  11.227  10.832   2.326  0.1746 -0.1278  0.1703
30185W        W46319   5.762  11.907   0.877 -0.1428 -0.1248  0.0928
30186W        W46320   9.157   5.098   3.113  0.0411 -0.2899 -0.0205
30187W        W46321   7.825  14.575   5.375 -0.0082  0.1375 -0.3048
30188W        W46322   1.442   8.782  11.135  0.1514 -0.0459 -0.0588
30189W        W46323   6.316   9.150   3.768  0.0376 -0.2147  0.2039
30190W        W46324   3.287   9.324  14.069 -0.0154  0.0385  0.1676
30191W        W46325   6.897   1.587  13.396  0.1635  0.0318  0.2222
30192W        W46326  12.183   7.894   2.595 -0.0226  0.1310 -0.0129
30193W        W46327   8.172  14.457  10.840  0.2770  0.4465  0.0045
30194W        W46328   8.280   9.873   4.575 -0.0306 -0.1402 -0.0171
30195W        W46329   0.926  16.024  10.794 -0.0210 -0.2446  0.1206
30196W        W46330   1.396   5.306   4.525  0.2549 -0.3434 -0.3237
30197W        W46331   1.360  11.739  15.191 -0.1025 -0.1502  0.0898
30198W        W46332   6.085   3.263  15.297 -0.2222 -0.2504 -0.1140
30199W        W46333  14.176   0.753  13.531  0.2167 -0.3078 -0.0991
30200W        W46334  12.456  11.626   1.060 -0.0367 -0.1229  0.0593
30201W        W46335  14.214   1.679  11.287  0.0003  0.1409 -0.1298
30202W        W46336   4.584  12.282   1.543  0.0797 -0.0056 -0.2750
30203W        W46337  18.465   4.360  12.062 -0.0373 -0.1211 -0.1770
30204W        W46338   2.562   6.736  11.110  0.0768 -0.3013  0.3545
30205W        W46339   4.662  15.185   2.101  0.0779 -0.0197 -0.0892
30206W        W46340   4.774  12.060   5.045  0.0679 -0.1724  0.2754
30207W        W46341   5.174   8.528  14.077 -0.0735  0.1774  0.0841
30208W        W46342   5.370   4.131   1.117 -0.0976 -0.4169  0.2452
30209W        W46343   8.328   3.265  15.716  0.1715  0.3647 -0.1124
30210W        W46344  11.543   0.118  13.964 -0.1166 -0.2197 -0.1136
30211W        W46345   5.009   3.570   1.837 -0.1718 -0.2447 -0.2718
30212W        W46346   9.746  16.050  15.643 -0.0304  0.1620  0.1232
30213W        W46347  16.905  13.636  13.129 -0.2075 -0.2258  0.2648
30214W        W46348   4.321  11.433  11.553  0.0670  0.2303 -0.0347
30215W        W46349  13.727  14.374  12.844 -0.0037 -0.0395  0.0680
30216W        W46350   5.365   2.488   3.501 -0.1022  0.1537 -0.0063
30217W        W46351   0.387   5.997  12.252  0.1661  0.0744  0.5052
30218W        W46352  16.065  15.984  13.283  0.0406 -0.3299  0.3124
30219W        W46353   8.399  10.097  13.315 -0.0591 -0.1578  0.0701
30220W        W46354   3.922   6.122  13.666 -0.3246  0.0505  0.1414
30221W        W46355   7.051  16.303   0.307 -0.0953  0.0569 -0.0391
30222W        W46356   1.078  11.186  15.778  0.1985 -0.2604  0.0785
30223W        W46357  13.667  16.961  12.953  0.0957  0.0584 -0.0097
30224W        W46358   8.409  15.226   3.389 -0.1320 -0.2162 -0.0588
30225W        W46359  13.441   8.787  11.881 -0.0837  0.0655  0.2770
30226W        W46360  12.737   3.471   3.945 -0.3188 -0.1739 -0.0661
30227W        W46361   7.556  13.336  15.523 -0.1844 -0.1753 -0.0881
30228W        W46362   4.248   5.340  13.365  0.0490 -0.0347 -0.2072
30229W        W46363   0.104  12.451  10.972  0.2437  0.0999  0.0770
30230W        W46364  11.750   4.446  14.844  0.0900  0.1088  0.0159
30231W        W46365  12.752  14.474   6.079 -0.1805  0.1471 -0.2031
30232W        W46366  17.306  17.320  12.480 -0.1046  0.1325  0.3722
30233W        W46367   6.082  16.629   0.066 -0.0994  0.2945  0.2628
30234W        W46368  16.200  17.225  15.365 -0.1033 -0.0678 -0.1194
30235W        W46369   1.193   4.639  12.853  0.2194 -0.1248 -0.0654
30236W        W46370   6.764   3.658  12.539 -0.0314  0.2159  0.1986
30237W        W46371  16.220   4.424  12.085 -0.2407 -0.0524 -0.2561
30238W        W46372  16.945  10.670  11.910 -0.4433 -0.0634  0.0064
30239W        W46373   4.044  17.471  14.067 -0.1451  0.2843 -0.1268
30240W        W46374  15.978  12.407  15.124  0.2087 -0.0664 -0.1982
30241W        W46375   6.645  11.958  11.278 -0.0044 -0.2048 -0.1449
30242W        W46376   2.384  14.008  14.321 -0.2375 -0.0814  0.3614
30243W        W46377  14.376  12.306   5.432 -0.2358 -0.0370 -0.2322
30244W        W46378  16.226   7.775   2.580  0.1407  0.3201 -0.1480
30245W        W46379  17.111   1.952   2.165 -0.4437 -0.1704  0.0757
30246W        W46380   6.328   0.548  13.878 -0.0284 -0.1393  0.3596
30247W        W46381  14.581  11.983  15.084  0.2069  0.1644 -0.1311
30248W        W46382   6.505  12.200   4.748 -0.2176  0.4806 -0.2878
30249W        W46383   4.747   4.626   1.702 -0.0061 -0.2696  0.3480
30250W        W46384  11.119   2.027   1.675 -0.0030 -0.1020 -0.1191
30251W        W46385  17.955   2.542   0.869 -0.2265  0.1390  0.1154
30252W        W46386  10.345  16.751   0.415 -0.0034  0.2076 -0.0755
30253W        W46387  12.897  18.403  15.874  0.1821  0.1253 -0.1779
30254W        W46388  14.022   6.436  15.701  0.0423 -0.0314  0.0683
30255W        W46389  17.979   0.907  12.675 -0.0560 -0.2647  0.3190
30256W        W46390  12.459   9.469   1.417 -0.0015 -0.1034  0.0158
30257W        W46391   5.065   9.507   0.196  0.1239 -0.0706 -0.0955
30258W        W46392  16.086   9.826   2.666  0.0133 -0.1426 -0.2833
30259W        W46393  11.422   8.165  14.715 -0.1027  0.0473  0.0996
30260W        W46394   2.692  12.447  15.870 -0.3004 -0.0648 -0.0592
30261W        W46395   3.091  14.571   5.241  0.1479  0.3159 -0.0806
30262W        W46396   7.816   4.745  13.310 -0.1153 -0.1549  0.1102
30263W        W46397  13.880  16.552  15.279 -0.1401 -0.0146  0.2043
30264W        W46398  17.480  10.306   3.943  0.1453  0.1925 -0.0292
30265W        W46399  14.122   2.118   5.375  0.0265 -0.1029 -0.0438
30266W        W46400   9.868  10.305  15.166 -0.0959  0.1478 -0.0519
30267W        W46401   8.480  17.394   1.968 -0.2419  0.0734  0.0133
30268W        W46402   8.699  14.766  15.293  0.0294  0.1007 -0.2688
30269W        W46403   3.661   9.488  11.137 -0.4248 -0.0843 -0.0126
30270W        W46404   2.388   8.302   2.767 -0.0203  0.1575 -0.0220
30271W        W46405   7.494   3.017   1.554 -0.2884  0.0234  0.0845
30272W        W46406  12.318  14.158   0.816 -0.4089  0.1974  0.1689
30273W        W46407  13.531  13.556   3.535  0.0790  0.0515 -0.0775
30274W        W46408  10.101  16.213   3.877 -0.1233  0.2943 -0.0980
30275W        W46409  18.138   4.161   3.684  0.1730 -0.0523  0.2943
30276W        W46410   9.635   4.512   3.470  0.1095  0.1933 -0.4315
30277W        W46411   0.394  17.055  14.452 -0.1861 -0.1613  0.0871
30278W        W46412  14.869  14.874  11.886 -0.0073 -0.0351 -0.1836
30279W        W46413  12.221   4.088   3.880 -0.0750  0.1845 -0.0656
30280W        W46414  16.019  10.264   3.671 -0.0761  0.0590  0.1412
30281W        W46415   4.376   5.837   4.332 -0.1306 -0.1015 -0.0256
30282W        W46416   7.375   0.795  14.094  0.2054  0.1613  0.1738
30283W        W46417  14.830   3.089  14.543 -0.1170  0.2816  0.0075
30284W        W46418  11.815  16.953  13.470 -0.2716  0.2299  0.3666
30285W        W46419   1.425  13.335  12.292  0.2370 -0.0758  0.1231
30286W        W46420  17.155   8.593   4.534 -0.1937  0.0979  0.1383
30287W        W46421  10.118   1.488  15.669  0.1121 -0.0700 -0.0889
30288W        W46422   2.814   9.532  12.220 -0.3313 -0.0864  0.2336
30289W        W46423   6.133  16.785  13.512  0.0693  0.0613  0.0240
30290W        W46424  17.183  13.734   2.237 -0.0511 -0.0952 -0.0452
30291W        W46425   3.562  12.448   3.641 -0.2197  0.0514 -0.1404
30292W        W46426   6.436   3.148   3.765 -0.1627 -0.1193  0.0880
30293W        W46427   9.509   7.167   2.428 -0.2311 -0.0592 -0.2936
30294W        W46428   9.640  10.480   0.596  0.0381 -0.1700 -0.0297
30295W        W46429   1.156   1.610   4.308  0.0465 -0.2700  0.0088
30296W        W46430  10.065   0.994   1.667  0.0720 -0.0834  0.1423
30297W        W46431   4.379   6.490  11.505 -0.0593 -0.2761 -0.0189
30298W        W46432  16.991  11.352   0.023 -0.0578 -0.2035 -0.1644
30299W        W46433   5.758   9.592   1.486 -0.1462 -0.0544 -0.2479
30300W        W46434   9.042   6.596  13.897 -0.1412  0.1678 -0.2390
30301W        W46435   3.282  10.133   0.822 -0.1951 -0.0061  0.0187
30302W        W46436   5.964  10.957   2.784  0.0834 -0.0196  0.0874
30303W        W46437  14.907   1.950   2.515  0.2853  0.1911 -0.1700
30304W        W46438   3.329  10.474  14.232 -0.0403  0.2312  0.2556
30305W        W46439   0.955   1.735  13.525 -0.1167  0.2208 -0.3219
30306W        W46440   1.971   0.423  14.510 -0.0953 -0.1592  0.1805
30307W        W46441  10.795  12.617  15.817  0.1126 -0.0467 -0.0794
30308W        W46442  14.402   7.575   3.638 -0.1104 -0.1844  0.0006
30309W        W46443   8.497   7.561   4.025  0.1125  0.1961 -0.0888
30310W        W46444   1.578   5.575  15.529  0.3547 -0.1082  0.2475
30311W        W46445  15.126  17.383   4.090  0.0421 -0.0841 -0.0433
30312W        W46446  15.067   0.503  14.427  0.2688  0.0163 -0.1074
30313W        W46447   8.596   4.457  10.991 -0.0579  0.0294 -0.2523
30314W        W46448  14.619  11.903  12.290  0.1376 -0.1945 -0.1872
30315W        W46449   8.937  12.008   2.307 -0.1134 -0.2122  0.0580
30316W        W46450   6.727  10.503   4.991  0.1015  0.0141 -0.1071
30317W        W46451   4.338   2.813  13.709 -0.0433  0.1000  0.0192
30318W        W46452  12.901   4.900   5.274 -0.0976  0.1097  0.2965
30319W        W46453   0.657   3.303  11.046  0.1974 -0.1572 -0.1499
30320W        W46454  13.111   8.963  14.227  0.1077  0.3546 -0.0752
30321W        W46455   5.013   4.646  12.769  0.0905 -0.0938 -0.1333
30322W        W46456  17.250   4.062   3.390  0.2178  0.1686  0.0871
30323W        W46457  10.500  16.162  13.675 -0.0809  0.3108  0.1666
30324W        W46458   0.122   9.410  13.393 -0.3275  0.0954  0.0021
30325W        W46459  16.524   4.390  11.401 -0.0917 -0.1758 -0.0454
30326W        W46460  16.364   2.694  14.205  0.1074 -0.2709 -0.1130
30327W        W46461   8.849   6.075   1.728 -0.1714 -0.1063 -0.0558
30328W        W46462   0.393  17.972   4.819  0.2340 -0.3568  0.0813
30329W        W46463  11.586  12.647   1.528 -0.0402  0.0784  0.2103
30330W        W46464   6.066   9.441   5.637 -0.1036 -0.0600 -0.0839
30331W        W46465   0.932   3.264   3.502 -0.0785 -0.2295 -0.1786
30332W        W46466  14.984  11.348   1.475  0.2276  0.3328 -0.1353
30333W        W46467  14.968  10.464   0.921  0.0120  0.2224 -0.2477
30334W        W46468  14.262  17.370   3.972  0.3112 -0.2117  0.0044
30335W        W46469  10.423   8.218  15.762  0.0450 -0.1229 -0.1211
30336W        W46470  12.654   5.470   2.613 -0.0048 -0.1048 -0.0197
30337W        W46471  16.600   5.613  12.729  0.2808  0.0664  0.1420
30338W        W46472   6.488   1.630  13.706 -0.1854  0.1935  0.2138
30339W        W46473   6.527   6.800   4.208  0.0417 -0.1387 -0.0193
30340W        W46474   4.366   7.723  15.673 -0.2343  0.0373  0.2953
30341W        W46475  11.672   5.301  10.996  0.3221 -0.1710  0.0548
30342W        W46476   1.711  18.231  11.472 -0.1752  0.1180 -0.0277
30343W        W46477   6.151   6.174   1.758 -0.1548 -0.1698  0.1365
30344W        W46478  12.652   0.754   0.989  0.1959  0.0391  0.4896
30345W        W46479  16.434   4.525   5.062  0.1114  0.2205  0.0906
30346W        W46480   3.397  14.943  15.463  0.0813 -0.1600 -0.0251
30347W        W46481   7.420  13.126  10.646 -0.2165  0.3429  0.3145
30348W        W46482   9.155   2.536  11.222 -0.0856 -0.2700  0.4599
30349W        W46483  16.030   3.517   2.526 -0.0303  0.3682 -0.1492
30350W        W46484  10.710  14.533  11.386 -0.4327  0.1067 -0.0107
30351W        W46485   6.565   7.322  12.078  0.1082  0.0459  0.0237
30352W        W46486  14.607  12.744   5.342  0.0991  0.0999 -0.0507
30353W        W46487   9.219   1.530   0.164  0.1418 -0.0139 -0.0330
30354W        W46488   9.127   7.751   1.952 -0.0835  0.0601 -0.1729
30355W        W46489   9.138   1.921  15.789 -0.1951  0.1656 -0.1480
30356W        W46490  17.390  13.065  11.309  0.3478 -0.0621 -0.0763
30357W        W46491  17.193  15.767  10.848  0.0149 -0.0232 -0.1345
30358W        W46492  11.588  14.507   2.848 -0.2035  0.2386  0.1817
30359W        W46493  15.534   8.452  15.172  0.0184  0.1328  0.0497
30360W        W46494  16.808   7.767  15.462  0.0038  0.1825  0.0038
30361W        W46495  16.151   6.484  14.647  0.0232 -0.1182 -0.1054
30362W        W46496  14.558   2.040  11.150 -0.2865  0.1257  0.2381
30363W        W46497  10.837  17.348   2.012  0.0307  0.0347  0.1820
30364W        W46498   7.954  10.873   0.001  0.2536 -0.0339 -0.3932
30365W        W46499   2.590   4.085  12.711  0.2273 -0.0494 -0.1842
30366W        W46500   2.146   6.511  13.144 -0.4226  0.1183  0.2403
30367W        W46501  13.858  11.743   2.022 -0.3052 -0.0935  0.0481
30368W        W46502   5.050  12.683  11.820  0.0608 -0.3675 -0.0406
30369W        W46503  11.990  15.295   0.043 -0.2636  0.2036 -0.0339
30370W        W46504   7.576   1.599  14.990  0.0966  0.0310  0.2551
30371W        W46505   5.308   1.256   0.136 -0.2066 -0.0038  0.0765
30372W        W46506  14.118   8.284   5.654 -0.0162 -0.0855  0.4076
30373W        W46507   1.825   8.236  15.346 -0.0102 -0.2232 -0.1076
30374W        W46508  12.623   8.873   0.607 -0.0439  0.0095 -0.1525
30375W        W46509   9.798  10.900   5.682 -0.0932 -0.1399 -0.1390
30376W        W46510  10.334   5.061   3.932  0.2908  0.1750  0.0363
30377W        W46511   7.197  13.702  14.576 -0.1355  0.0099  0.1070
30378W        W46512   5.580   9.162   3.033 -0.3102  0.0719 -0.1378
30379W        W46513  13.628   5.354   3.279 -0.0017 -0.0537 -0.1199
30380W        W46514   9.067   9.581  11.609 -0.2301 -0.1941  0.1559
30381W        W46515   6.038   1.893   4.931  0.1077 -0.2279  0.1500
30382W        W46516   2.189   4.397  15.910  0.0811 -0.2181  0.1250
30383W        W46517   4.546  17.257  11.532 -0.0384  0.2895  0.1643
30384W        W46518   0.707  10.528  13.736 -0.0004  0.1125  0.3046
30385W        W46519  12.151   3.576   3.944  0.1198  0.0277  0.1974
30386W        W46520   3.747   4.467  11.413 -0.2190 -0.1351 -0.0489
30387W        W46521   7.720  11.700   2.644 -0.2470 -0.0694 -0.0620
30388W        W46522  15.297  10.210  12.170 -0.0625 -0.0104  0.4701
30389W        W46523  11.964  12.441   4.566 -0.1389  0.1988 -0.0458
30390W        W46524   3.791   1.114   2.356 -0.0910  0.0588  0.0332
30391W        W46525   3.718  11.264  12.631  0.1316 -0.2177 -0.1518
30392W        W46526  11.981   1.330   5.175 -0.1072  0.1460  0.0985
30393W        W46527   7.562   6.235   2.691  0.1773 -0.0070  0.0178
30394W        W46528   5.732  16.546   3.964  0.0868  0.0238  0.3601
30395W        W46529   9.611   4.830   3.088  0.1609  0.1204 -0.2022
30396W        W46530   1.457   6.915   0.341 -0.0492 -0.2573 -0.2683
30397W        W46531  12.192  13.286  11.367  0.0054  0.0791 -0.3945
30398W        W46532  15.237   5.805  15.361 -0.2318 -0.0072 -0.1003
30399W        W46533  16.397   2.616   5.713  0.1663  0.2317  0.0352
30400W        W46534   9.638   2.842  15.708  0.0881 -0.1202 -0.2958
30401W        W46535   0.292  14.118   1.712  0.1416  0.1470  0.2627
30402W        W46536   2.660   1.960   3.098  0.0263 -0.0401  0.1623
30403W        W46537  11.622   5.713  14.590  0.0565  0.0539  0.1952
30404W        W46538  11.177   0.446   0.950  0.2551 -0.0664 -0.1481
30405W        W46539  18.199  18.154   4.053 -0.0248 -0.0018  0.1872
30406W        W46540   5.079  18.247  14.625  0.1825  0.2324  0.1150
30407W        W46541  12.814  17.052   3.255 -0.0539  0.0707 -0.0762
30408W        W46542  15.203   8.750   0.932  0.1319  0.0601  0.0932
30409W        W46543   3.622   7.371   0.115 -0.1552  0.1595 -0.1138
30410W        W46544  17.961   1.289   1.070  0.0322 -0.0335  0.3151
30411W        W46545  14.953  18.044   4.773 -0.3025 -0.1179  0.1361
30412W        W46546  11.982  10.305   3.256 -0.0881 -0.2628 -0.3846
30413W        W46547  13.575   7.126   1.376 -0.2264  0.0365  0.1760
30414W        W46548   8.362   8.976   4.970  0.0391 -0.0353  0.1121
30415W        W46549   3.666  17.775  11.362  0.2036 -0.0594  0.1713
30416W        W46550   8.001   5.543  13.128 -0.1471 -0.1100 -0.1585
30417W        W46551  14.860   1.793   1.599  0.2437 -0.2280  0.2370
30418W        W46552   5.781  14.475  15.561 -0.1306 -0.3064 -0.1863
30419W        W46553   0.597  13.800   3.734 -0.2529 -0.1360 -0.3901
30420W        W46554   1.132   8.823  15.550  0.0786  0.1199  0.0214
30421W        W46555   3.257  13.110  13.712 -0.4126  0.1008 -0.1441
30422W        W46556   4.620   1.628  15.258  0.0721 -0.2325 -0.0804
30423W        W46557  10.842  14.685   4.007  0.1723 -0.2698 -0.4097
30424W        W46558   4.886   7.036   0.897 -0.0665 -0.1377 -0.2591
30425W        W46559  13.654  14.879  10.059 -0.4199 -0.0015 -0.2651
30426W        W46560   2.819   9.131   2.110  0.0289  0.0953  0.0096
30427W        W46561   4.701   8.383   3.569 -0.1626  0.3072 -0.1035
30428W        W46562   9.137  17.008  14.557 -0.0866 -0.1114  0.1052
30429W        W46563  11.668   7.808   0.492  0.2513  0.0586 -0.0548
30430W        W46564   8.409  14.850   4.498  0.2431 -0.4759  0.0844
30431W        W46565   7.908   8.848   2.160 -0.0503 -0.0524  0.0924
30432W        W46566   1.899   8.193  14.846 -0.0279 -0.0188  0.1263
30433W        W46567  15.832  14.639   0.914 -0.0829  0.2838  0.1969
30434W        W46568  11.529   4.800   3.718  0.1111 -0.0464 -0.1920
30435W        W46569  17.656   8.293  11.470  0.1130 -0.1330 -0.0137
30436W        W46570  18.356  14.279   0.903  0.1559 -0.1049  0.0758
30437W        W46571  10.598   4.897  11.122  0.0052  0.0230 -0.1041
30438W        W46572   2.584   0.090   1.890  0.0993  0.1726  0.1744
30439W        W46573  17.390   2.842   3.404 -0.0848 -0.1284 -0.1616
30440W        W46574   1.615  12.142  14.417  0.2271 -0.3483  0.0791
30441W        W46575  13.345   9.858  12.712  0.2282 -0.2683  0.2456
30442W        W46576   3.910   9.602  10.247 -0.0547 -0.0095  0.2048
30443W        W46577  17.099   3.394   4.352 -0.0285 -0.1333  0.0289
30444W        W46578   8.314   4.119  14.715  0.6749  0.0455  0.1024
30445W        W46579   9.385   6.385   4.970 -0.1431  0.3849  0.0049
30446W        W46580   5.438  13.870  14.813 -0.0898 -0.1542  0.2752
30447W        W46581   1.744   4.934  14.645 -0.1416 -0.0145 -0.1192
30448W        W46582   7.183  12.112   1.954 -0.4011  0.0358 -0.1860
30449W        W46583   4.929   2.968   3.636  0.0875  0.1686 -0.2786
30450W        W46584  17.976   3.503   3.166  0.0478  0.0893 -0.0659
30451W        W46585   2.549   8.042  14.211  0.0961 -0.0510 -0.1034
30452W        W46586   3.053  16.474  12.801 -0.1644 -0.0438 -0.0963
30453W        W46587   9.252  10.788   0.773 -0.2286  0.3025  0.2329
30454W        W46588  12.718   6.208  13.582  0.0083  0.0599  0.3426
30455W        W46589  11.812  15.353   4.489 -0.0060 -0.1429 -0.1689
30456W        W46590   6.365  11.275   3.056 -0.2436 -0.0893  0.3984
30457W        W46591   7.807   1.955   5.359  0.1109 -0.0185  0.3584
30458W        W46592  18.007  10.937   4.344  0.0123  0.1284 -0.1111
30459W        W46593  17.621  18.387  13.577 -0.1206 -0.2289  0.1209
30460W        W46594   3.079   7.529  14.648  0.0882 -0.0170  0.2471
30461W        W46595  10.318  13.828   5.503  0.0279  0.2737  0.0092
30462W        W46596   7.846  10.736   5.512  0.1213 -0.2071  0.3328
30463W        W46597  16.777  10.206  11.964  0.1841 -0.2808  0.1529
30464W        W46598   6.106  12.736   1.994  0.0782  0.0707  0.1434
30465W        W46599  13.112   4.781   4.840  0.0672 -0.0050 -0.2000
30466W        W46600  12.471  10.722  15.297 -0.1333 -0.2146 -0.1274
30467W        W46601   5.378   6.820   2.397  0.2018  0.1104 -0.0208
30468W        W46602  11.421   7.027  14.102 -0.0406 -0.0868  0.1154
30469W        W46603  10.861  13.634  11.358 -0.2045 -0.2711 -0.2273
30470W        W46604  14.871  16.960  11.265 -0.0955 -0.1682  0.2245
30471W        W46605   7.264  11.553   3.663  0.1383 -0.0072 -0.2931
30472W        W46606  17.995  13.877  11.123  0.1029  0.2044 -0.2127
30473W        W46607   5.196  14.967  11.544  0.0522  0.1355 -0.0225
30474W        W46608   0.212  17.521   0.697  0.1662 -0.1360  0.2010
30475W        W46609  15.279  12.312  12.479  0.0058 -0.0136  0.0644
30476W        W46610   0.812  17.278   5.486 -0.0669  0.1940 -0.1813
30477W        W46611   7.740  11.249   5.701 -0.1488  0.0100 -0.3094
30478W        W46612  16.794  11.267  11.120  0.1277  0.2064 -0.0366
30479W        W46613  16.605   3.732   1.476  0.2441 -0.3454 -0.2820
30480W        W46614  17.902   8.845   2.390 -0.2611 -0.0208 -0.2492
30481W        W46615   7.821   7.338   2.128 -0.0115  0.2036  0.3625
30482W        W46616  15.155   0.633  13.458 -0.0754 -0.0480  0.1793
30483W        W46617  12.620   7.842   3.830 -0.0747  0.3119 -0.0163
30484W        W46618   7.366  15.220   2.906  0.1396  0.0256 -0.3242
30485W        W46619  16.517  14.331  10.217 -0.2449 -0.0753 -0.1152
30486W        W46620   7.740  18.465  15.549  0.1642  0.0552  0.4412
30487W        W46621  13.596   6.543   0.753  0.2159  0.0823 -0.1057
30488W        W46622  16.687  15.209   2.392  0.2211 -0.0647 -0.0861
30489W        W46623  12.800   5.627   4.489 -0.1092 -0.1390  0.0958
30490W        W46624   3.287   9.113  12.782 -0.1196 -0.1204  0.2007
30491W        W46625  17.498   8.426  13.268  0.1892 -0.1437 -0.1254
30492W        W46626   1.673   3.943  14.384  0.1121  0.3312  0.3672
30493W        W46627  14.416   5.093   2.769  0.0572 -0.1137  0.0483
30494W        W46628   2.584  14.260   4.436  0.2151  0.2081  0.0310
30495W        W46629   5.486  10.206   4.434 -0.1136  0.1010  0.0166
30496W        W46630  12.731  10.355  14.419 -0.2267  0.1066 -0.2065
30497W        W46631   0.586   8.739   1.743  0.1990  0.1438 -0.4088
30498W        W46632   3.435   6.151  12.289 -0.1200  0.1619  0.3019
30499W        W46633   0.917  13.162  11.314 -0.1097  0.1388  0.2827
30500W        W46634   3.321   3.773   4.482 -0.1864 -0.1089  0.3275
30501W        W46635   6.707  13.360  10.747  0.0758 -0.1534  0.0549
30502W        W46636  17.463   9.017  10.633 -0.2365 -0.1377 -0.0407
30503W        W46637  16.312   2.880   4.132 -0.2889 -0.0991 -0.2051
30504W        W46638  18.435   6.195   1.770 -0.0958 -0.1191  0.3696
30505W        W46639  13.768  15.326  13.403  0.4572  0.3327 -0.0684
30506W        W46640  11.569   4.046   0.238  0.0412  0.0420  0.0545
30507W        W46641  13.165   1.301   3.013  0.0038  0.1855 -0.1913
30508W        W46642   1.607   0.431   0.798 -0.2902 -0.2002 -0.0238
30509W        W46643  10.403   8.024   4.374 -0.2092 -0.1326 -0.2078
30510W        W46644   0.990  11.558  15.413  0.2122  0.0169  0.1332
30511W        W46645  15.134   9.827  12.537 -0.0175  0.0982  0.4818
30512W        W46646   3.039  10.416  12.439  0.0615 -0.2342 -0.4467
30513W        W46647  11.233   1.016   4.418 -0.4303  0.1805  0.5471
30514W        W46648  14.168   8.193   2.131  0.1481  0.0166 -0.1878
30515W        W46649  12.414   7.419  12.054  0.1358  0.1156 -0.2007
30516W        W46650   3.261   0.425  15.010  0.0123  0.0050 -0.4551
30517W        W46651  12.129   9.000   0.696  0.1467 -0.0688 -0.3009
30518W        W46652   6.995   1.074   4.075 -0.1067 -0.0993  0.0058
30519W        W46653   1.966  13.037  14.277 -0.2408 -0.0718 -0.1331
30520W        W46654   7.855  16.409  13.156 -0.0349 -0.0450  0.2506
30521W        W46655  18.081   5.498  14.263  0.3704  0.1629 -0.1282
30522W        W46656  15.347   2.077   3.581 -0.2498 -0.0270  0.0511
30523W        W46657   0.599   5.311   2.695  0.2047 -0.0063 -0.1602
30524W        W46658   5.814  10.295   0.126  0.2011  0.0297  0.0782
30525W        W46659   6.482   1.088   2.036 -0.0089 -0.1317  0.0961
30526W        W46660   6.963  16.321  11.883 -0.0837  0.0722  0.1854
30527W        W46661  14.107   4.473   1.755  0.1101  0.0442  0.1165
30528W        W46662   3.738  14.178   1.485 -0.5566 -0.2496  0.0765
30529W        W46663   1.065  15.752  13.627 -0.0155  0.1274  0.0277
30530W        W46664  14.152   0.744  12.963 -0.1285 -0.0327 -0.0910
30531W        W46665   5.039  12.433  15.338  0.0226  0.0552  0.0386
30532W        W46666  17.040  17.324   2.629  0.0807 -0.1481 -0.2328
30533W        W46667  12.999  10.504   3.743  0.1155 -0.3154  0.2134
30534W        W46668  18.406   4.969  10.687 -0.2533  0.0536 -0.0365
30535W        W46669   3.426  16.643   3.770  0.0786 -0.2195 -0.3615
30536W        W46670  17.251  12.982   1.236  0.0197 -0.2756  0.3246
30537W        W46671   6.677   9.713   0.633 -0.1080  0.0995  0.2567
30538W        W46672   9.295  15.640  13.434  0.1042 -0.3089  0.1409
30539W        W46673  14.293   3.038  12.299  0.1526 -0.2364 -0.0211
30540W        W46674  10.446  17.171   1.285 -0.1247  0.0888 -0.0670
30541W        W46675   3.259   4.678   2.585 -0.2943 -0.2097  0.1527
30542W        W46676   3.030   4.379   2.145  0.1332 -0.1677  0.0570
30543W        W46677   7.988   9.327  11.678 -0.0618 -0.3972  0.0502
30544W        W46678   1.350  13.259   2.952  0.2250  0.0025 -0.0611
30545W        W46679  13.900  13.615   4.186  0.0991 -0.0257 -0.3142
30546W        W46680  15.778   5.045  11.454  0.0796 -0.0972 -0.2746
30547W        W46681   2.355   8.071  11.006 -0.1453 -0.1668 -0.3122
30548W        W46682  13.927   6.310   1.130 -0.2770  0.1265 -0.1162
30549W        W46683   3.005  13.081   4.789 -0.0460 -0.0078 -0.0731
30550W        W46684   3.182   4.617  12.139  0.2403 -0.1279 -0.0319
30551W        W46685  10.006  16.985  13.570 -0.2965  0.2660 -0.2500
30552W        W46686  16.596  10.310  15.345  0.1470 -0.1672 -0.2882
30553W        W46687  11.390   5.250  12.763  0.0294 -0.2938  0.0458
30554W        W46688   2.288   5.985  13.040 -0.1617  0.3763  0.0460
30555W        W46689   6.870  11.604   4.013 -0.0646  0.3932 -0.4400
30556W        W46690  15.274   0.340   0.623 -0.0414 -0.1567 -0.0875
30557W        W46691   2.126  12.195  14.629  0.1857  0.2042 -0.0408
30558W        W46692  11.032  12.719   1.983  0.2243  0.1627  0.1681
30559W        W46693   9.948  12.059   2.202  0.0907 -0.0609  0.0246
30560W        W46694   0.761   1.128  13.177  0.2168 -0.2068  0.2646
30561W        W46695   7.516  10.236   0.713  0.0734  0.2984 -0.3340
30562W        W46696   3.001   2.723  15.474  0.0512 -0.0734  0.0827
30563W        W46697  16.938   0.069  12.325  0.1114  0.0622  0.1700
30564W        W46698  12.333   5.660   2.120 -0.2535 -0.0813 -0.0041
30565W        W46699   7.721   3.629   5.272 -0.2433 -0.0713 -0.1417
30566W        W46700  11.330  12.734  10.833 -0.0388 -0.1388  0.0162
30567W        W46701  15.362   5.385   0.687  0.0823  0.3161 -0.1185
30568W        W46702   0.304  10.168   3.043 -0.0699 -0.0231 -0.1249
30569W        W46703   3.951  15.516  13.223 -0.1766 -0.2370 -0.2612
30570W        W46704  16.017   9.247   4.680  0.1237 -0.0685 -0.1665
30571W        W46705  17.681  15.811   1.562 -0.0186 -0.1606 -0.0647
30572W        W46706   4.314   0.081   0.753 -0.0283 -0.0473 -0.1049
30573W        W46707  16.655  15.259   0.122 -0.0279 -0.3308 -0.0139
30574W        W46708  13.442   4.161   1.768 -0.2977  0.2079  0.3440
30575W        W46709   6.305   3.534  12.851  0.1411 -0.2108  0.2611
30576W        W46710  15.425   0.475  10.566 -0.0125 -0.1800 -0.2459
30577W        W46711   6.032   5.414   2.352 -0.2789  0.3213  0.4195
30578W        W46712  17.543   8.280   2.216 -0.4898  0.3457  0.1181
30579W        W46713   4.309   4.004   3.942  0.3757  0.0476  0.1494
30580W        W46714   7.413   3.656   2.165 -0.4773  0.0985 -0.2292
30581W        W46715   3.944   2.483  10.094  0.1590 -0.0824 -0.1200
30582W        W46716  11.663  12.235   1.302 -0.0365 -0.0358 -0.2998
30583W        W46717   6.096   6.212   0.767 -0.0728 -0.0473  0.1901
30584W        W46718   6.497  16.102  15.243 -0.0175  0.2760 -0.3289
30585W        W46719  11.510  14.616   5.941  0.1248  0.0482  0.0443
30586W        W46720   5.590   8.753  14.376  0.0347 -0.3047  0.3985
30587W        W46721  10.816   5.579   1.756 -0.2286 -0.2585 -0.4438
30588W        W46722  15.602   7.144   2.105 -0.0167  0.0437 -0.3367
30589W        W46723  18.246   5.817   4.165 -0.3506 -0.2440 -0.2131
30590W        W46724  17.533   4.070  15.380  0.1247 -0.1842  0.0532
30591W        W46725  16.616  11.102  15.061  0.1641 -0.0901  0.1379
30592W        W46726   4.948   2.585   6.534 -0.0040  0.2027  0.3001
30593W        W46727  14.332   7.811  12.532  0.0314 -0.0464  0.0347
30594W        W46728   4.540   8.325   1.332  0.0052  0.0066 -0.1950
30595W        W46729  15.917   2.920   2.423 -0.0197  0.2390  0.0298
30596W        W46730   3.642   0.557   0.877 -0.0890 -0.3329  0.0606
30597W        W46731   8.906   2.554  15.051 -0.0130  0.0237  0.1620
30598W        W46732  15.700   1.204   5.684 -0.0812 -0.2421 -0.0382
30599W        W46733  14.501   4.205  14.637  0.0125  0.1364 -0.1420
30600W        W46734  13.255  13.897   3.189 -0.0836  0.0824  0.0438
30601W        W46735  14.436   0.296   3.365 -0.4576 -0.0977 -0.4217
30602W        W46736   5.902   2.015  14.163 -0.2318 -0.0331 -0.1836
30603W        W46737  16.356  14.747  15.344 -0.2025  0.2337 -0.0456
30604W        W46738   2.432  10.450   2.352  0.1458  0.1423 -0.2363
30605W        W46739  14.885   7.510  13.290 -0.1325  0.5261  0.2717
30606W        W46740  11.940   3.581  15.146 -0.1702  0.0787  0.3893
30607W        W46741   6.553  16.955   3.035  0.1867 -0.0165 -0.3164
30608W        W46742   7.664  10.552  11.561 -0.1260 -0.0333  0.4556
30609W        W46743   4.934   7.863   1.267  0.2790  0.0717  0.3723
30610W        W46744   9.797  17.323  15.374  0.0008 -0.1670  0.0022
30611W        W46745  10.401   1.388  13.579  0.1100  0.1381 -0.0842
30612W        W46746   9.251  18.031   2.590  0.2669  0.1546 -0.1289
30613W        W46747  12.472   6.132  11.387  0.0174  0.1057 -0.0204
30614W        W46748   4.241  18.317  15.365 -0.0611  0.0643 -0.0484
30615W        W46749   7.028  17.494   4.013  0.0710  0.1080 -0.1002
30616W        W46750   7.506  17.352  12.020  0.1989  0.0990  0.0548
30617W        W46751   7.047   7.301  14.284 -0.1608 -0.0571  0.0468
30618W        W46752   5.759   2.354   1.830  0.0912  0.2171  0.2025
30619W        W46753   1.845  17.554   4.563 -0.0224 -0.0516 -0.0765
30620W        W46754  16.269   8.213  15.429  0.1612 -0.0003 -0.0208
30621W        W46755  13.277  11.190   1.690 -0.0196 -0.0330 -0.0019
30622W        W46756   2.534  12.467  14.825  0.0825  0.1013 -0.1169
30623W        W46757   6.644   2.056  12.183  0.1074  0.1403 -0.0921
30624W        W46758   8.887   5.429  14.205  0.0296 -0.3186 -0.1393
30625W        W46759  18.100   8.288  11.744  0.0102 -0.0451  0.1296
30626W        W46760   2.514   9.209   0.117  0.0513 -0.3296 -0.3549
30627W        W46761  15.496  17.754   4.241  0.1153 -0.0954  0.1637
30628W        W46762   4.856   3.312   1.375  0.0312 -0.0098 -0.1254
30629W        W46763   8.020   7.162  13.029  0.2020  0.0836 -0.0889
30630W        W46764   9.349  11.433  11.469  0.1114  0.0015  0.3694
30631W        W46765  16.783   0.065  15.902 -0.2711  0.0678  0.0272
30632W        W46766  11.400  13.090  11.168  0.1624 -0.1298 -0.4867
30633W        W46767   2.921  16.462  13.254 -0.0686 -0.1786 -0.2896
30634W        W46768   5.053   7.669  13.708 -0.3462 -0.4620  0.2260
30635W        W46769  14.533  11.810   5.610 -0.0209  0.0301  0.2032
30636W        W46770   8.663  18.447   3.617  0.3277 -0.2552 -0.2249
30637W        W46771  11.521  17.248  11.578  0.1070  0.2761  0.0940
30638W        W46772  14.602   8.926   2.654  0.0812  0.1915 -0.3094
30639W        W46773  10.987  12.665  13.206  0.0362  0.1007 -0.1144
30640W        W46774   0.613   6.276   4.449  0.0607  0.1222 -0.0497
30641W        W46775   1.611   6.115  13.704 -0.1566 -0.3084 -0.0611
30642W        W46776  17.667  11.471   3.506 -0.0131 -0.1068  0.1181
30643W        W46777  18.237  18.063  15.461  0.0641 -0.0436  0.0272
30644W        W46778  11.328  13.060   1.704  0.1256 -0.3585  0.0029
30645W        W46779   7.698  12.469  13.387  0.0819 -0.2179  0.1210
30646W        W46780   8.107   7.544   4.337  0.3271  0.2108 -0.0112
30647W        W46781  10.221   8.686  11.334  0.0314 -0.1968  0.1022
30648W        W46782  12.972  13.992  14.154  0.3943 -0.1466  0.0513
30649W        W46783  17.618   7.962  13.241 -0.0891  0.0009 -0.0027
30650W        W46784  15.050   3.697   4.504 -0.2632  0.1059 -0.0778
30651W        W46785  11.908  11.244  12.158  0.0183  0.2295  0.2021
30652W        W46786  15.632  10.014  13.484 -0.2235  0.2964 -0.2739
30653W        W46787   5.271  15.941   0.294 -0.2796 -0.1245 -0.1034
30654W        W46788   7.078   4.979  15.394  0.0591  0.4032 -0.2005
30655W        W46789   6.840   1.318   2.356 -0.0090  0.0734 -0.1640
30656W        W46790  13.644   0.425  15.783 -0.1679 -0.2228  0.0775
30657W        W46791  14.194   7.242   3.260 -0.1103  0.3452  0.1952
30658W        W46792  12.047  13.115   2.745 -0.1678 -0.3632 -0.1273
30659W        W46793   1.346   6.987   4.135  0.0890  0.2894  0.0042
30660W        W46794  11.863   0.133   3.677  0.0018 -0.3092 -0.0969
30661W        W46795   1.408   1.442   0.983  0.1443  0.1406 -0.0785
30662W        W46796   4.366  16.850  14.569  0.1660  0.2272 -0.3561
30663W        W46797  17.548   7.497  15.809  0.1171  0.0599 -0.1823
30664W        W46798   5.537   7.625  13.833  0.0219 -0.1960  0.6070
30665W        W46799  14.255   0.564  11.076 -0.2393 -0.1682  0.0425
30666W        W46800  15.954   0.903  13.460  0.2081  0.0618  0.0674
30667W        W46801  17.964  15.021   0.299  0.0816 -0.2272  0.1162
30668W        W46802   7.810  10.092   2.308  0.0287  0.0541  0.1249
30669W        W46803  15.372  18.296  14.178 -0.0956 -0.2379  0.0290
30670W        W46804   9.188   0.453   3.118 -0.1085  0.2632  0.2527
30671W        W46805  13.526   6.576   5.140 -0.0850  0.0845  0.0625
30672W        W46806  10.995   6.519  11.107 -0.2211  0.0265 -0.1745
30673W        W46807  10.537  16.951  14.245 -0.0014 -0.1515  0.2823
30674W        W46808  16.046   3.507   0.653 -0.0802  0.1224 -0.0959
30675W        W46809   6.110  15.955  11.421 -0.0910 -0.1515  0.1439
30676W        W46810  15.058   4.719   1.119 -0.4839  0.4017 -0.3685
30677W        W46811   0.790   4.851   2.583  0.2408 -0.1700  0.1912
30678W        W46812   9.995   9.168   4.084  0.0129  0.1061 -0.0754
30679W        W46813   9.834   0.430   0.126  0.1043  0.2364 -0.1476
30680W        W46814   5.797   2.955   0.110 -0.0606 -0.2145  0.0739
30681W        W46815  15.714   4.742   4.384  0.0833  0.0035  0.0722
30682W        W46816  15.207   9.467  12.894  0.0234 -0.0875  0.1376
30683W        W46817  11.095   9.905   4.019 -0.0396  0.0399  0.0867
30684W        W46818   0.726  13.154  13.946 -0.2231 -0.1945  0.4309
30685W        W46819   3.814   8.929   4.591 -0.1039  0.3885 -0.4087
30686W        W46820   5.335  17.834  13.205 -0.0257  0.3113  0.0676
30687W        W46821  15.880  14.493   1.767 -0.2155 -0.1863  0.0086
30688W        W46822  16.992   9.613  14.687 -0.2151  0.0788 -0.1867
30689W        W46823   2.428  10.945   3.351 -0.1624  0.1434  0.2050
30690W        W46824   1.075   1.766  12.215  0.1544  0.0286 -0.5727
30691W        W46825   3.493   3.932   1.547 -0.3115 -0.0907  0.2913
30692W        W46826  15.826   5.162   5.009 -0.1052  0.1325  0.0315
30693W        W46827   1.651  13.921   4.120  0.0316 -0.0677  0.1436
30694W        W46828  17.174   7.273   3.436 -0.1544  0.1981  0.2113
30695W        W46829   3.095   8.643  13.721 -0.2914  0.1654  0.3154
30696W        W46830  13.831   5.306  13.233 -0.0266  0.0698  0.0369
30697W        W46831  15.408  12.829   3.682  0.0516 -0.0397 -0.2064
30698W        W46832  16.725   6.494   4.501 -0.3956  0.3234 -0.0937
30699W        W46833   5.463  10.971   5.084 -0.1172 -0.0970  0.3253
30700W        W46834   6.699  11.141  15.109 -0.0205  0.1773 -0.1150
30701W        W46835   5.143  17.309  12.108 -0.1856 -0.1649  0.2465
30702W        W46836   8.081   9.885  14.612 -0.0074 -0.0475 -0.1087
30703W        W46837  11.245  13.108  13.350 -0.0459 -0.0335  0.0334
30704W        W46838   7.511   9.489   1.502  0.0540 -0.0631 -0.2824
30705W        W46839   9.071  12.829   2.308 -0.1419  0.1545 -0.2652
30706W        W46840   7.207  16.609   0.715  0.1825  0.1763  0.0300
30707W        W46841  18.159  11.961  12.560  0.0439  0.0609  0.0422
30708W        W46842   2.859  17.183   3.051 -0.1473  0.2008 -0.1622
30709W        W46843   8.447   6.871  12.028  0.0232 -0.3636 -0.0223
30710W        W46844   9.222   3.970   4.470  0.1457  0.2390  0.2146
30711W        W46845   9.258  14.499  14.291  0.2976 -0.0099 -0.0740
30712W        W46846   6.522   5.142   1.441 -0.0612 -0.0446  0.0550
30713W        W46847   8.096   0.492   4.385  0.0111  0.0189  0.3373
30714W        W46848   7.659  14.218   2.645 -0.0536  0.1444  0.1699
30715W        W46849   0.684   5.349  15.320 -0.0559 -0.2408  0.4211
30716W        W46850   5.815   4.395   3.657  0.4194 -0.0414  0.1021
30717W        W46851   7.782   6.713   0.591 -0.2620 -0.0070  0.0136
30718W        W46852  18.426   5.129   5.062 -0.2461  0.0493  0.1951
30719W        W46853   7.679   4.012   0.355  0.1056  0.0101  0.3225
30720W        W46854   3.915   1.623  15.754  0.0048  0.3555 -0.0761
30721W        W46855   8.499  14.414  11.222  0.1400 -0.0000 -0.2884
30722W        W46856   7.110  15.029  11.382  0.1466  0.1306 -0.0977
30723W        W46857  14.435   6.876  11.640  0.1425  0.0141 -0.3155
30724W        W46858   7.348   5.118  11.677 -0.1934 -0.1903 -0.3026
30725W        W46859   5.283  11.434   2.757  0.0589 -0.0255 -0.2207
30726W        W46860  17.429   8.210   1.688 -0.2785  0.0605  0.2305
30727W        W46861   3.350  10.098  14.620 -0.3639 -0.0695 -0.4062
30728W        W46862   3.211   1.011   4.979  0.1345  0.1250  0.0496
30729W        W46863   9.977  10.191   4.773 -0.0750 -0.1624 -0.3148
30730W        W46864  11.812   4.967   5.482  0.3478  0.0081  0.3331
30731W        W46865   8.085  15.216  14.426  0.3602 -0.5116  0.0339
30732W        W46866   2.218   0.416  14.927  0.2223  0.0477  0.0952
30733W        W46867   5.320   8.107   2.784 -0.0367  0.1601  0.1681
30734W        W46868   9.299   5.003  13.926  0.0995  0.1899 -0.2377
30735W        W46869   4.558   9.087   0.114 -0.0281 -0.2975 -0.0268
30736W        W46870  15.722  10.857   5.725 -0.0958 -0.0168  0.1242
30737W        W46871  14.953   1.312   0.790 -0.4166  0.1949  0.1608
30738W        W46872   8.731   9.998   1.533  0.3846 -0.2355  0.1862
30739W        W46873  17.198   5.686  13.373  0.1771  0.4632 -0.1989
30740W        W46874   6.629  12.480   4.286  0.0478  0.0166  0.0229
30741W        W46875   8.946   2.460  12.302  0.2252  0.2372  0.2743
30742W        W46876   6.289  17.834   2.916  0.0306  0.2292 -0.0536
30743W        W46877  10.594   9.547   1.861 -0.1608  0.0415  0.1562
30744W        W46878  17.253  14.753  14.464  0.2119  0.1880 -0.1044
30745W        W46879  10.975  17.848   2.017 -0.2219 -0.1615  0.1758
30746W        W46880  12.158  12.886   0.224  0.0386  0.0569 -0.2277
30747W        W46881   1.183   2.676  11.872  0.0568 -0.1372  0.0834
30748W        W46882   0.345   5.168  11.343  0.1444 -0.2845 -0.2308
30749W        W46883   1.141   1.652  12.672  0.0134  0.2813  0.0289
30750W        W46884   8.681  15.247   2.918 -0.1248  0.1262  0.0500
30751W        W46885   4.471   0.150   0.282  0.2718  0.0527  0.0926
30752W        W46886   0.020   7.058  11.756  0.0956  0.1464 -0.4252
30753W        W46887  11.997   4.374   2.075 -0.1956  0.1550 -0.0796
30754W        W46888  12.878   6.294  13.062  0.0795  0.3088 -0.1113
30755W        W46889  11.786   9.548  11.535 -0.0022  0.0368 -0.1003
30756W        W46890  11.291  17.987  12.655  0.1437 -0.0942 -0.2658
30757W        W46891  14.951  15.822   4.060  0.0935 -0.0092  0.0053
30758W        W46892   6.151   8.644   0.358 -0.0984  0.0843  0.1328
30759W        W46893   2.473   6.465  13.548  0.1962 -0.1927 -0.2030
30760W        W46894  15.139  15.559  11.032  0.0454 -0.1864 -0.3053
30761W        W46895  12.799   6.806  13.163  0.0311  0.3324 -0.1706
30762W        W46896   7.771   5.390   3.149  0.0290 -0.1297 -0.0972
30763W        W46897  13.889   1.181   4.199  0.2582 -0.2280  0.3633
30764W        W46898  15.652  10.988   3.380  0.2726  0.0574  0.0420
30765W        W46899  12.377   8.554   5.471  0.2510 -0.3038  0.0949
30766W        W46900  16.358   0.348   0.017 -0.1050  0.0518  0.3839
30767W        W46901  12.182   6.173   0.289 -0.0867 -0.2354  0.2698
30768W        W46902  15.188   8.759  11.041 -0.5469  0.0633  0.0712
30769W        W46903  17.945   8.143  14.719  0.2837  0.0801 -0.0909
30770W        W46904   1.766   3.434  14.307 -0.0096 -0.0305  0.3727
30771W        W46905  13.114  13.076  13.811  0.3578  0.3232  0.1202
30772W        W46906   1.664  14.524   3.358 -0.1484  0.1429  0.1158
30773W        W46907   1.274   8.724  10.339  0.4922 -0.0600 -0.2211
30774W        W46908   6.604   4.262  11.616  0.0344  0.0741 -0.1655
30775W        W46909   1.912  16.381   4.934 -0.0862  0.2795 -0.2033
30776W        W46910   7.673  11.880  13.425  0.2759  0.0288 -0.0976
30777W        W46911  13.169   7.625  12.416  0.1689  0.0867  0.2716
30778W        W46912  12.322   9.137  15.329 -0.2405  0.1063 -0.0512
30779W        W46913   0.423   7.760  10.725  0.3661 -0.3110  0.3351
30780W        W46914  17.187   8.965  15.469  0.1905 -0.0311  0.3840
30781W        W46915   1.975   6.047   4.942  0.0571 -0.0534 -0.4865
30782W        W46916  15.941   0.331  13.912  0.1094  0.1279 -0.1264
30783W        W46917  10.115   7.702   5.299  0.0861  0.0846 -0.0393
30784W        W46918   8.218  17.941  15.170  0.2019 -0.1944 -0.1980
30785W        W46919  16.292  16.796   4.718 -0.2165  0.0928 -0.1685
30786W        W46920   2.291  12.046  15.142 -0.0741 -0.0210 -0.0927
30787W        W46921  15.648  13.032   1.069  0.1686 -0.0027 -0.2170
30788W        W46922   8.863   8.923  13.274 -0.1546 -0.2891 -0.1022
30789W        W46923  17.844   3.602  15.884 -0.0715  0.3447 -0.2206
30790W        W46924  13.627   6.689  13.270  0.0397  0.3511  0.0559
30791W        W46925   5.307  15.079  13.635  0.1044 -0.0966  0.0393
30792W        W46926   0.129   6.506   4.776  0.0596 -0.1261 -0.0360
30793W        W46927  14.130   8.195  11.359 -0.3792 -0.0888  0.2837
30794W        W46928  16.420   6.898   3.193  0.3147  0.3845 -0.0112
30795W        W46929  10.152   9.101  10.624 -0.0545 -0.2663 -0.4220
30796W        W46930  10.039  13.593   3.009 -0.0016 -0.1642  0.0684
30797W        W46931  14.992  16.394   4.812 -0.0610 -0.1794 -0.2725
30798W        W46932   1.925   1.265   3.985  0.4696  0.0090 -0.0549
30799W        W46933   0.115   4.367   2.464  0.0959 -0.0842  0.0539
30800W        W46934  15.578  12.111  12.891 -0.0699  0.0659 -0.0305
30801W        W46935   6.374   3.003   2.859  0.0826  0.2268 -0.1648
30802W        W46936   8.449   3.473   4.226  0.3826  0.3122  0.0756
30803W        W46937  15.818  13.322  12.207 -0.0725  0.2450  0.0308
30804W        W46938   6.584   5.581   5.159 -0.2439 -0.2494 -0.2976
30805W        W46939   5.112   4.038  13.570  0.1557 -0.0892 -0.1111
30806W        W46940  16.761   1.809   0.299 -0.1753 -0.1389 -0.1485
30807W        W46941   2.409  10.940   2.416  0.1386 -0.2410 -0.1489
30808W        W46942   7.799   7.580  11.823 -0.2504  0.0348 -0.2208
30809W        W46943  12.783   6.961   3.233 -0.1104  0.2009  0.2470
30810W        W46944   4.238   5.831   2.901  0.0687 -0.0822 -0.1823
30811W        W46945   2.174  13.469   3.500 -0.0709 -0.0984 -0.0944
30812W        W46946   3.151   6.000   0.689  0.2188  0.0491 -0.0964
30813W        W46947   0.386  11.163   3.441 -0.3150  0.0404 -0.0780
30814W        W46948  14.680  17.223  11.628 -0.0694  0.0229  0.0847
30815W        W46949  12.742   6.938  12.199  0.1780  0.4221  0.1418
30816W        W46950   2.164   2.239   2.837 -0.0104 -0.0357  0.2604
30817W        W46951   6.839   4.219  12.701 -0.2775 -0.3634 -0.2817
30818W        W46952   7.937  13.181   0.364 -0.0645  0.2722 -0.1708
30819W        W46953  18.282  10.653  10.339 -0.0945 -0.0307  0.2166
30820W        W46954  13.172   5.344  14.674 -0.2049  0.1392  0.2525
30821W        W46955   4.162   0.139   2.296 -0.1830  0.2538  0.0008
30822W        W46956   8.976  11.024  14.603  0.3131  0.2081  0.0219
30823W        W46957   0.807   4.702  10.705  0.3142 -0.2460 -0.3453
30824W        W46958   4.739   7.122   9.778 -0.1604  0.0005 -0.2298
30825W        W46959   6.163   0.723   3.823 -0.0108  0.0198  0.1245
30826W        W46960   9.504  11.669  14.049 -0.1042 -0.3009  0.2087
30827W        W46961   0.094  17.842  14.278  0.2494 -0.1129  0.0946
30828W        W46962  13.147   3.924   4.219 -0.2238 -0.0381  0.0084
30829W        W46963   6.763   4.996   4.068 -0.2369 -0.0368 -0.0019
30830W        W46964   6.612  13.384   5.285  0.1211 -0.2402  0.0224
30831W        W46965  15.123   3.457  12.598 -0.1439  0.0330  0.1094
30832W        W46966  17.240  10.477   3.522  0.1480 -0.0524  0.3742
30833W        W46967   8.925   8.648   3.534 -0.0323  0.0312 -0.0454
30834W        W46968   2.564  10.340  11.020 -0.1963 -0.2159 -0.1167
30835W        W46969  14.506   3.759   3.543  0.0671 -0.5221 -0.1074
30836W        W46970  16.856   5.654   2.559 -0.3321  0.2449  0.1545
30837W        W46971  10.993  13.846   2.886 -0.2056  0.0906 -0.0819
30838W        W46972  15.379   1.859   1.650  0.3262  0.0770 -0.0889
30839W        W46973  11.909  15.218  12.147  0.0536 -0.1732 -0.1819
30840W        W46974  11.884   9.203  15.843 -0.0456 -0.3716  0.0214
30841W        W46975  14.338  10.954   0.892 -0.2403 -0.0401 -0.2248
30842W        W46976  11.935  13.516   4.422 -0.1943  0.0563  0.1161
30843W        W46977  14.215   4.393  14.282  0.3091 -0.3871 -0.3152
30844W        W46978   4.330  15.676  15.758  0.1453  0.1175 -0.1489
30845W        W46979  11.326  12.118  13.668  0.1155 -0.0813  0.2395
30846W        W46980  12.429   3.129   3.614  0.3793 -0.3713 -0.1204
30847W        W46981   4.388  11.862   2.438  0.0457  0.0043  0.2109
30848W        W46982   1.627  16.953   5.343 -0.0211  0.0291  0.4013
30849W        W46983   2.866   2.177  15.306  0.1673  0.1012  0.2732
30850W        W46984   2.874  17.962   0.794 -0.1380 -0.1366  0.2293
30851W        W46985   6.440   6.118   3.107  0.0480  0.2534 -0.0331
30852W        W46986   6.109  14.337   1.548 -0.0628 -0.2889 -0.1722
30853W        W46987  12.248  15.824   5.384  0.0029 -0.2230 -0.2670
30854W        W46988   8.312   5.903  13.826  0.0745 -0.0063 -0.1707
30855W        W46989  17.749  10.347  15.195 -0.0619  0.1449  0.3052
30856W        W46990   4.033  16.640  13.974  0.1418 -0.0821 -0.1003
30857W        W46991   7.454   8.513  12.382 -0.0471 -0.0674 -0.1886
30858W        W46992   3.254   7.572   1.837  0.2539 -0.0811  0.0616
30859W        W46993   8.024   1.110   2.997  0.0691 -0.0332  0.1225
30860W        W46994   8.875  16.809   0.398  0.2423  0.0014  0.1937
30861W        W46995   6.195  10.360  12.396 -0.2099 -0.0534 -0.0655
30862W        W46996   9.373  12.321   5.227 -0.0584 -0.3338 -0.1196
30863W        W46997   2.153   5.685   4.672  0.0706  0.2301 -0.2286
30864W        W46998  10.128  16.441   0.899 -0.0698 -0.1266  0.1771
30865W        W46999  17.560   6.937   4.225  0.1828  0.1470 -0.4545
30866W        W47000   5.005  13.908   3.549 -0.1213  0.1364 -0.1526
30867W        W47001   2.237  10.576  13.506  0.1665  0.1433 -0.1757
30868W        W47002  13.305  18.405   5.105 -0.0757 -0.2144  0.0176
30869W        W47003   1.810  14.910  14.717 -0.0803 -0.1447 -0.3267
30870W        W47004  17.068   0.521   2.008  0.1307  0.2044 -0.2073
30871W        W47005  12.019   2.263  10.182  0.1191  0.1622  0.2826
30872W        W47006  12.839   3.832   3.334  0.0124 -0.0637 -0.3492
30873W        W47007   2.001  15.869   0.332 -0.0317 -0.1327  0.3570
30874W        W47008   7.138   0.291   0.197  0.2282 -0.3067 -0.2230
30875W        W47009   3.876  13.550   5.099  0.1847 -0.0130  0.2095
30876W        W47010  10.004   8.065   1.677  0.4944  0.0623 -0.1512
30877W        W47011   9.558   0.384  12.372  0.2722  0.1668  0.2679
30878W        W47012   6.395   9.545   3.450 -0.2226  0.0766 -0.2181
30879W        W47013   0.433   3.498   0.478  0.0013 -0.1390 -0.1311
30880W        W47014  17.432   0.566   1.233  0.1527  0.0324  0.0495
30881W        W47015   1.561   8.084  11.978  0.0766  0.3143  0.1187
30882W        W47016  12.900  16.572   5.299 -0.1583 -0.1265  0.1749
30883W        W47017   8.165   4.529   0.553 -0.0330  0.2079 -0.6757
30884W        W47018   7.404  10.883  11.257 -0.3360  0.0901 -0.0202
30885W        W47019  15.788  13.113  13.803  0.2692 -0.2212  0.1727
30886W        W47020   1.610  13.231   3.564  0.2536  0.2622 -0.0581
30887W        W47021   2.677  13.410   4.676 -0.0428  0.0505 -0.0539
30888W        W47022   4.022   8.258   2.460 -0.1617 -0.0876  0.0064
30889W        W47023   0.042   5.307   1.733 -0.1359  0.1661 -0.3377
30890W        W47024   8.332   9.496   2.774 -0.0450 -0.0699  0.2976
30891W        W47025  15.161   7.055   1.296  0.0544  0.1645  0.1029
30892W        W47026  11.029  17.068  14.056 -0.0014  0.0587  0.0257
30893W        W47027   6.215   5.342  14.956 -0.1434  0.1105 -0.0832
30894W        W47028   4.330  11.304  10.099  0.2285 -0.1000 -0.2444
30895W        W47029   2.437   2.150  11.977  0.1111  0.3645 -0.2400
30896W        W47030   4.284  12.802   4.673  0.0950  0.0297  0.0725
30897W        W47031   9.453   9.196   1.185  0.0722  0.0895 -0.2337
30898W        W47032   4.276   8.980  11.287  0.1893  0.0728  0.1001
30899W        W47033  14.027   1.650  12.998  0.2010  0.2068 -0.1093
30900W        W47034  11.972  10.766   5.246 -0.3687  0.0280 -0.0307
30901W        W47035   6.416   6.614   0.834 -0.3351  0.4294 -0.1575
30902W        W47036  14.050   0.335  12.679  0.2031 -0.1673  0.0390
30903W        W47037   2.558  15.999  11.407 -0.2479  0.2426 -0.3997
30904W        W47038   2.357  11.701   1.920 -0.3543 -0.0091  0.1047
30905W        W47039   1.440  14.042   5.043  0.1066  0.2168 -0.0609
30906W        W47040  10.272  14.675   0.317  0.7404  0.2101  0.0921
30907W        W47041   2.968   3.163  14.758  0.1169 -0.1915  0.1588
30908W        W47042   5.753  12.932  11.222 -0.5557 -0.1055  0.0831
30909W        W47043   4.877  16.070   1.845  0.1080  0.0909 -0.2764
30910W        W47044  10.050  18.162  15.540  0.0259  0.1415  0.2743
30911W        W47045   1.118   0.155   5.088 -0.0194  0.0323  0.0064
30912W        W47046   8.449   4.172  14.216 -0.2367 -0.1599 -0.0819
30913W        W47047   0.385  16.690  15.210  0.0021 -0.0365 -0.0671
30914W        W47048  10.993   7.925  15.624 -0.0562 -0.0183 -0.2070
30915W        W47049   1.978   5.402   2.426  0.2658 -0.1462 -0.1942
30916W        W47050   6.949   7.016   4.313  0.0477  0.0805 -0.0098
30917W        W47051   0.333  12.179   2.723  0.1926  0.1441 -0.2424
30918W        W47052  11.505   7.177   1.023 -0.1354  0.0098 -0.1614
30919W        W47053   3.679  14.237  14.711 -0.0827 -0.0585 -0.0328
30920W        W47054  13.899   4.155  12.455 -0.0822  0.0459  0.2448
30921W        W47055  17.261  14.011   3.231  0.2572  0.1935  0.1622
30922W        W47056  13.103   7.173  14.752  0.0288 -0.1878 -0.1291
30923W        W47057   9.635  12.026  15.307  0.0200  0.1791 -0.0914
30924W        W47058  17.544   6.106  11.418  0.1712  0.4147  0.0323
30925W        W47059  12.738   2.696   1.703 -0.2435  0.1248  0.1311
30926W        W47060  16.030   9.620  14.454  0.2348  0.0164 -0.1398
30927W        W47061  10.453  17.406  15.061 -0.2290 -0.1676  0.3083
30928W        W47062   8.750  16.392   5.889 -0.0566 -0.1560 -0.0704
30929W        W47063  15.542   0.885  10.872  0.0159  0.0715 -0.5134
30930W        W47064  12.273  13.981   1.619 -0.0771  0.0168 -0.0815
30931W        W47065   5.693  16.938  12.128 -0.2399  0.4341 -0.1163
30932W        W47066   4.237   3.327   2.390 -0.1006  0.0924  0.0139
30933W        W47067  12.794   2.813   0.935  0.0214  0.2501  0.1854
30934W        W47068  16.617   8.106  13.774  0.0548  0.0195 -0.1703
30935W        W47069   6.334   2.790  14.520 -0.2896 -0.1251 -0.3617
30936W        W47070   1.216  13.146   2.477 -0.1964 -0.0320  0.2741
30937W        W47071  16.829  10.154   3.448 -0.0465  0.2336 -0.1753
30938W        W47072  10.980   1.658   0.625 -0.0626 -0.0652  0.0909
30939W        W47073   8.478   5.046  11.094  0.0991 -0.1080 -0.5372
30940W        W47074   8.381   3.576  14.849 -0.2180 -0.2197 -0.0261
30941W        W47075  17.909  11.932   3.651  0.1686 -0.1135  0.0714
30942W        W47076  16.853   2.320  11.211  0.1269  0.1527 -0.0889
30943W        W47077  14.009   6.214   3.541 -0.0724 -0.1795 -0.0197
30944W        W47078   6.495  16.997  15.007 -0.0540 -0.1832 -0.1375
30945W        W47079  14.540  12.387  11.233  0.3133 -0.2406  0.4304
30946W        W47080   8.051  13.018   1.944 -0.1084  0.0401 -0.1355
30947W        W47081  11.042   9.131   3.834  0.1764 -0.1283  0.1183
30948W        W47082   1.220   5.120  12.962 -0.0914  0.0041 -0.0597
30949W        W47083  10.172   5.252   0.011 -0.0085  0.1392  0.3294
30950W        W47084   1.588  15.132   4.250  0.0659  0.0111 -0.1182
30951W        W47085  10.544   1.626   4.438 -0.0049  0.0378 -0.1935
30952W        W47086  11.843   7.580  14.685 -0.0294  0.1625  0.4106
30953W        W47087  11.164   6.439  12.130 -0.0514 -0.2117  0.0456
30954W        W47088   0.618  14.390   4.922 -0.1861 -0.1752 -0.0122
30955W        W47089   2.313  11.532  10.689 -0.1157 -0.2490 -0.0676
30956W        W47090  12.120  16.764   2.167  0.0990  0.1650 -0.2377
30957W        W47091   0.931   4.946  14.452 -0.0559  0.2639 -0.0525
30958W        W47092   5.782  16.362   3.486 -0.0480 -0.0356  0.0120
30959W        W47093   3.467  15.034   0.949  0.0443 -0.1369 -0.0524
30960W        W47094  11.370  16.726   2.689 -0.0145  0.1638 -0.0478
30961W        W47095  11.943   6.644   1.700  0.2062 -0.1466  0.0802
30962W        W47096  11.985   3.024   3.969  0.2763 -0.0402  0.0366
30963W        W47097   5.675   4.977   1.604 -0.0031 -0.1703  0.1257
30964W        W47098  15.474   0.302   4.955 -0.0151  0.0883 -0.1091
30965W        W47099  15.486  10.342  15.164 -0.2441  0.1585 -0.1304
30966W        W47100  15.361   0.166  12.948  0.3047  0.3663  0.1172
30967W        W47101   5.017   0.784   0.436  0.2233  0.1345 -0.2139
30968W        W47102   6.700  13.415   1.337 -0.0643  0.1729  0.1705
30969W        W47103  14.786  11.600   0.992  0.0318  0.1018  0.0713
30970W        W47104  16.534   1.284   2.787 -0.0369  0.1782 -0.1283
30971W        W47105   7.968  11.199   2.072  0.2451  0.0243 -0.2796
30972W        W47106   2.273   0.481  11.649 -0.0344  0.1129 -0.0128
30973W        W47107   0.623  12.935   0.314  0.0009  0.0532 -0.1300
30974W        W47108   9.452   2.083   1.684 -0.2413 -0.0719 -0.1798
30975W        W47109  12.852   9.819   3.112 -0.2878  0.1272 -0.4073
30976W        W47110  15.447   5.297   3.818  0.0811 -0.0247 -0.0274
30977W        W47111  16.158   9.935   1.537 -0.0573 -0.0387  0.1886
30978W        W47112  11.574   5.324   1.307  0.0684  0.0736 -0.2351
30979W        W47113  14.899   1.517  15.704 -0.1443 -0.0647  0.3309
30980W        W47114   0.523   6.017   1.431 -0.0040  0.5203  0.0836
30981W        W47115  14.241   1.708   9.865  0.0385 -0.1214  0.0481
30982W        W47116  15.987  13.188   2.618 -0.0899 -0.0874 -0.1439
30983W        W47117  16.640   9.796   5.415  0.1714  0.0596  0.2017
30984W        W47118   0.724   0.202  15.855  0.1613 -0.0233 -0.0698
30985W        W47119  11.510   6.008   5.611  0.2297  0.0283 -0.2556
30986W        W47120  18.091  14.837   4.115 -0.0093 -0.0288  0.0037
30987W        W47121   9.674   5.742  14.637 -0.1594 -0.1610 -0.1394
30988W        W47122  15.029  16.779   5.713 -0.2362 -0.1337 -0.0372
30989W        W47123   5.522  16.312   4.446  0.0673  0.1100 -0.1061
30990W        W47124   6.651  14.970  14.177  0.1007 -0.3052  0.0031
30991W        W47125   9.061  11.249   3.397  0.2804 -0.1530 -0.2062
30992W        W47126   2.030   6.356  13.691  0.0546 -0.3086 -0.4150
30993W        W47127   5.868  14.085  14.128  0.1484  0.1372 -0.0867
30994W        W47128   3.026  11.244  11.838 -0.0633 -0.3299  0.2580
30995W        W47129  16.392   1.524  13.309  0.2741  0.1945  0.2826
30996W        W47130   2.591   4.029  14.711 -0.2016 -0.2791 -0.1537
30997W        W47131  12.356   2.574   5.264  0.2831 -0.1677  0.0201
30998W        W47132   3.917   7.932  11.884 -0.1804 -0.0863  0.1224
30999W        W47133  15.877  17.782  12.740  0.1608  0.2670 -0.4370
31000W        W47134  15.606   9.126  11.349  0.2244  0.1124 -0.2254
31001W        W47135   5.700   6.265  12.473  0.2043  0.0025 -0.0715
31002W        W47136  10.097  14.848  13.812  0.1319 -0.1597 -0.2582
31003W        W47137  11.543  11.964   3.099  0.3416 -0.3118 -0.1007
31004W        W47138  14.205  17.672  10.924 -0.2575 -0.1822 -0.1549
31005W        W47139  14.813   2.163  14.335  0.2236  0.1662 -0.0857
31006W        W47140   3.705  11.199   2.009  0.0119 -0.2585  0.0242
31007W        W47141   6.274   1.707  11.241  0.4393  0.2525 -0.1481
31008W        W47142  10.575  15.066  13.801 -0.2473  0.1098  0.1742
31009W        W47143   3.286   3.396   2.082  0.1340 -0.1523  0.1014
31010W        W47144   6.412  10.881  15.511  0.2377  0.1131  0.2564
31011W        W47145  13.990   2.162   1.995  0.1590  0.2179  0.2040
31012W        W47146  16.116  15.300   0.062  0.1387 -0.1474 -0.1609
31013W        W47147   9.070   6.490   2.447 -0.0462  0.1757 -0.0691
31014W        W47148   4.345  15.591   4.355  0.7476  0.0410 -0.2054
31015W        W47149   2.440   1.632  13.508  0.0300  0.1262  0.0577
31016W        W47150  10.922   2.361  14.601  0.1035 -0.0503  0.2379
31017W        W47151   3.854   8.497  10.829 -0.1265  0.0918  0.1282
31018W        W47152  10.498   7.047  10.801  0.3713 -0.0957  0.0260
31019W        W47153  11.914  14.905   1.718  0.0782 -0.1072 -0.3130
31020W        W47154  16.258  13.104   3.000 -0.1608  0.0347  0.1588
31021W        W47155   8.727   5.385   3.192  0.0835  0.4340  0.2329
31022W        W47156   6.836  10.116  15.222 -0.0813 -0.0716  0.0109
31023W        W47157  17.469   1.107  12.318 -0.0840 -0.2447 -0.2387
31024W        W47158   8.223   6.401   1.230  0.0815 -0.0966 -0.1108
31025W        W47159   4.423  18.026   1.406 -0.4281 -0.1671 -0.1784
31026W        W47160  14.325   8.665  11.529  0.2271  0.2716  0.1076
31027W        W47161  10.302  14.081   5.954 -0.0657  0.0715  0.0779
31028W        W47162   0.429   4.478   2.951  0.2302 -0.0192 -0.0341
31029W        W47163  17.349   8.553  13.884  0.0657 -0.3769  0.0221
31030W        W47164  16.608   8.912   3.694 -0.1034  0.4099 -0.0423
31031W        W47165   8.728  11.436   1.651 -0.0024  0.2942 -0.5321
31032W        W47166   3.846   9.088   1.428  0.0488 -0.4605  0.0548
31033W        W47167  17.882  16.887  14.162  0.1030  0.0746  0.1726
31034W        W47168  10.427  12.365   2.904  0.0314  0.2173  0.1293
31035W        W47169   5.089  12.747  12.380  0.3333  0.0117 -0.4248
31036W        W47170   9.978   8.507   3.310  0.1131  0.0029 -0.2058
31037W        W47171  16.525   2.429   2.926 -0.0783 -0.0665 -0.3044
31038W        W47172   2.555   1.562   0.501  0.0968  0.0425 -0.2360
31039W        W47173  13.122  11.507   2.817  0.0557  0.3403 -0.0314
31040W        W47174   7.055  15.319  15.252  0.1751 -0.1899  0.4084
31041W        W47175   8.044  14.369   2.021 -0.2358  0.1305  0.0437
31042W        W47176  11.027   2.371   1.359 -0.2307  0.2773 -0.0466
31043W        W47177   4.967  16.467  13.729 -0.3151 -0.2576 -0.0206
31044W        W47178  15.819   7.654  15.525  0.0660 -0.2380 -0.1506
31045W        W47179  18.277   2.783   3.865  0.1078 -0.2066 -0.0882
31046W        W47180   0.024   3.102  12.467  0.3034  0.1250  0.0938
31047W        W47181  11.358  12.650   0.485 -0.2014  0.0483 -0.3308
31048W        W47182  15.114  11.141  12.010 -0.2062 -0.0069 -0.0247
31049W        W47183  13.647  10.979  11.155  0.0650 -0.1614 -0.1678
31050W        W47184   8.113  10.656   5.122 -0.1073 -0.0984 -0.1782
31051W        W47185  13.909   7.793   3.049 -0.1231 -0.1851  0.5000
31052W        W47186   4.234  13.359   2.414  0.2709 -0.3435 -0.1160
31053W        W47187   0.989  12.260   0.558  0.1269 -0.0289 -0.0308
31054W        W47188   4.962  12.097  11.839  0.0372 -0.0536 -0.1853
31055W        W47189   2.469  11.375   3.626  0.2223  0.1589  0.0293
31056W        W47190  13.454   1.934  14.151  0.1706  0.2585  0.2463
31057W        W47191  17.788   4.405  13.259 -0.4427  0.0046  0.1098
31058W        W47192   7.431   7.503   3.002  0.0375 -0.1497 -0.1524
31059W        W47193   6.960   7.800  14.417 -0.0944  0.1329 -0.1315
31060W        W47194  12.553  17.053  14.498 -0.0339  0.1244  0.0478
31061W        W47195   4.729   5.384  13.555 -0.1480 -0.2352  0.1980
31062W        W47196   7.084   1.853   3.289 -0.4316 -0.3348  0.1754
31063W        W47197   8.159   1.336   3.820 -0.2600 -0.0602  0.2349
31064W        W47198   5.364  14.915   1.730  0.1239 -0.4210 -0.0715
31065W        W47199   2.680  12.908   3.706 -0.1062  0.0598 -0.2293
31066W        W47200   0.153  12.570  15.455 -0.2472  0.0051  0.0806
31067W        W47201   1.277   7.480   4.205  0.0364 -0.1272  0.1376
31068W        W47202   5.292  16.646   5.853 -0.0567 -0.1557 -0.0807
31069W        W47203   1.637  12.716   0.725  0.0209 -0.2268 -0.2247
31070W        W47204   0.488  12.369   3.599 -0.0202  0.1947  0.0438
31071W        W47205  18.431  12.924   2.422 -0.0829 -0.1721  0.2243
31072W        W47206   5.151   3.167   2.204  0.0407  0.1772 -0.1326
31073W        W47207   2.704   5.895  14.827  0.1724 -0.0068 -0.0732
31074W        W47208  14.069  13.396   5.845  0.1065 -0.0519 -0.0048
31075W        W47209  14.930   5.270   1.065 -0.0902 -0.0076 -0.1258
31076W        W47210   2.336  16.765   0.556  0.0907  0.3790 -0.2355
31077W        W47211  11.400   5.744   3.344  0.3172  0.0485 -0.2562
31078W        W47212   6.206  13.228  11.241  0.0984  0.1616  0.0786
31079W        W47213   1.982  15.494  14.057  0.2608 -0.0945  0.1342
31080W        W47214   9.473  11.603  15.055 -0.4300 -0.0363 -0.1030
31081W        W47215  14.233   5.644  10.744  0.1180 -0.2162  0.1924
31082W        W47216  14.967   6.803  11.680  0.0896 -0.0692 -0.0078
31083W        W47217   3.312  13.910  14.403 -0.0475 -0.0826  0.3438
31084W        W47218   3.951  14.618  13.069  0.0722 -0.1030 -0.3509
31085W        W47219   7.505   3.795   1.678 -0.2483  0.0021 -0.2364
31086W        W47220  15.180   7.942   2.275  0.1728  0.0019  0.1895
31087W        W47221  18.279  10.953   0.398 -0.1182  0.3435  0.0430
31088W        W47222  13.534  11.095   0.721  0.2227  0.1638 -0.0467
31089W        W47223  12.396  11.725  12.689 -0.0251 -0.1940 -0.1566
31090W        W47224   6.773   7.923   2.909  0.1016  0.0781 -0.1966
31091W        W47225  17.489  14.783   1.388  0.1007 -0.2492 -0.1202
31092W        W47226   2.195  14.344  13.553 -0.2264 -0.2037 -0.1818
31093W        W47227  10.760  10.536  13.422 -0.0582 -0.1216 -0.0273
31094W        W47228  17.077   8.683  14.954 -0.1410 -0.2028 -0.0695
31095W        W47229   2.135   7.132   1.232  0.2467 -0.0955  0.1915
31096W        W47230   5.429  14.164  15.506 -0.0776 -0.1712  0.0295
31097W        W47231  15.513   9.038   1.195  0.0454 -0.2035  0.0082
31098W        W47232   7.120   1.457  14.733 -0.1091  0.1081 -0.1420
31099W        W47233  16.170  11.617  15.622  0.2551  0.2551  0.1958
31100W        W47234  18.144  15.400  15.292 -0.1624  0.1042 -0.2720
31101W        W47235   4.889   0.974  11.205 -0.1537 -0.1158  0.0488
31102W        W47236   1.014  17.670  15.903  0.1576  0.0993  0.1280
31103W        W47237  13.710   1.675  12.166  0.1631 -0.1100  0.1550
31104W        W47238   0.271   2.665   4.043  0.2010 -0.1367 -0.2031
31105W        W47239   2.043   4.804  13.366  0.2369  0.0928 -0.1581
31106W        W47240   3.228   2.305   1.557 -0.2132  0.1054 -0.0672
31107W        W47241   6.371   9.844   4.824 -0.1625  0.0293 -0.2240
31108W        W47242   3.065  12.948   3.052  0.0159  0.3319  0.0627
31109W        W47243   9.702   3.230  13.198 -0.0947 -0.2475  0.0685
31110W        W47244   0.576   6.318  14.877  0.1764 -0.0670  0.2883
31111W        W47245  16.445  11.414   4.551 -0.3474  0.0133  0.1446
31112W        W47246  16.803  11.394  12.445 -0.1594  0.0401 -0.0061
31113W        W47247   2.618  14.212  12.300 -0.2135  0.0770  0.2734
31114W        W47248   2.452   8.020  10.008  0.2839  0.2233 -0.3026
31115W        W47249   0.658  17.909  13.698  0.0797  0.0843  0.1176
31116W        W47250  15.664  16.218   1.683  0.2856 -0.1063  0.0273
31117W        W47251   6.730  10.525  15.657  0.0691  0.0192 -0.1491
31118W        W47252   4.253  13.512   3.835 -0.0878 -0.1935 -0.0057
31119W        W47253  14.224  14.643   2.494 -0.2194 -0.2169 -0.2205
31120W        W47254  13.500   1.730   0.728  0.3384  0.0459 -0.4163
31121W        W47255  13.094   9.251   2.286 -0.2705 -0.0476 -0.3027
31122W        W47256   2.494  15.834  13.860  0.0632 -0.0313 -0.1987
31123W        W47257  14.472   2.239  15.046 -0.2464  0.1304 -0.1496
31124W        W47258  15.039   6.554   3.903 -0.3833  0.0925 -0.0690
31125W        W47259   1.885   6.715   0.495  0.0088  0.0434  0.4165
31126W        W47260   2.925  14.896   1.884 -0.0360 -0.0222 -0.3733
31127W        W47261  15.821   0.061   5.160 -0.2473 -0.2017  0.1428
31128W        W47262   3.933   9.584   3.069 -0.1331  0.3826  0.0360
31129W        W47263  15.278   9.504  11.439 -0.0182 -0.1832 -0.0395
31130W        W47264   8.422   1.145  11.787 -0.2022 -0.2002  0.1256
31131W        W47265   0.239  17.083   2.491  0.0364  0.0484  0.1681
31132W        W47266  13.303  15.114   2.178 -0.0861 -0.0952  0.0659
31133W        W47267   8.166  12.914   4.931 -0.1998  0.1232  0.2659
31134W        W47268  11.284   6.932   5.044 -0.0146  0.1721 -0.0244
31135W        W47269   8.039   0.978  13.306  0.0853  0.1582 -0.0646
31136W        W47270   8.892   5.032   5.099  0.3134 -0.2833  0.0965
31137W        W47271   2.601   1.689  14.487 -0.0479 -0.2258  0.0669
31138W        W47272  14.667   3.796  11.911 -0.0850  0.4808  0.0682
31139W        W47273  14.663  13.852  12.124 -0.0152  0.1426 -0.0687
31140W        W47274  11.007  15.965   0.156  0.0835 -0.1636  0.0517
31141W        W47275  10.455  17.473   4.012 -0.0991  0.1300 -0.1197
31142W        W47276  10.869   6.632   1.333  0.1131  0.0155  0.1234
31143W        W47277  18.433  16.630  12.272  0.0355  0.0275  0.2826
31144W        W47278  17.471  11.813  15.799  0.1352 -0.1134 -0.0097
31145W        W47279  13.198   5.975   3.903  0.1359  0.0847 -0.0380
31146W        W47280   4.906   1.201   5.436 -0.2122 -0.2148  0.0015
31147W        W47281   6.865  17.049   0.579  0.3850 -0.0813 -0.2232
31148W        W47282   8.538  16.384   4.427 -0.1011 -0.1213  0.1581
31149W        W47283   5.331   8.510   0.064  0.0789  0.2380  0.0191
31150W        W47284   3.857   2.885  12.806 -0.0669 -0.0943  0.0688
31151W        W47285   9.905   3.034  12.745 -0.0600 -0.0128  0.2658
31152W        W47286  16.060   6.924   0.938  0.0696 -0.2063 -0.2045
31153W        W47287  11.736  16.994   5.230  0.1904 -0.0103 -0.1513
31154W        W47288   7.820  11.712  14.700  0.0149  0.2117  0.2056
31155W        W47289   2.946   9.161  10.683 -0.3433  0.4220 -0.4013
31156W        W47290  16.437  18.430   3.218 -0.1924  0.0298  0.2017
31157W        W47291  11.545  11.003   4.369  0.1015 -0.1474  0.0025
31158W        W47292  14.992   6.486  12.326 -0.0312 -0.1018 -0.0460
31159W        W47293   8.381  13.622   3.023  0.0062  0.0267 -0.0456
31160W        W47294   3.051  11.998  13.550  0.1846 -0.2206 -0.2505
31161W        W47295   7.815  15.137   3.735  0.2922 -0.3734  0.1850
31162W        W47296   1.870   9.003   9.268 -0.0384  0.1343 -0.1366
31163W        W47297   2.726  13.335  12.671  0.0349  0.2515  0.0730
31164W        W47298   6.664   2.988   3.359 -0.0045  0.1411 -0.0015
31165W        W47299  11.744   6.903   2.519  0.0270 -0.0699  0.0265
31166W        W47300  16.396   2.176   0.143 -0.0521 -0.3854 -0.3042
31167W        W47301   2.825   2.240   0.100  0.0083 -0.0132 -0.0261
31168W        W47302  12.561   1.799  14.747  0.0202 -0.0122 -0.2712
31169W        W47303   9.865  13.935  15.802  0.0694  0.0192  0.1530
31170W        W47304   8.226   2.675   3.536  0.3289 -0.0450 -0.0557
31171W        W47305  15.665   2.431   1.027  0.1122 -0.1272 -0.0783
31172W        W47306  10.017  17.051   1.549 -0.2566  0.1188 -0.0706
31173W        W47307   8.284  12.635   0.493 -0.1960 -0.2334 -0.0441
31174W        W47308  12.741  17.594   4.851 -0.0501 -0.0829  0.2197
31175W        W47309   7.997   6.125  12.873 -0.2786  0.2177 -0.0465
31176W        W47310  12.844   6.889   1.349  0.0747  0.0428  0.4495
31177W        W47311   7.327  15.786  13.418 -0.0992 -0.2469 -0.0968
31178W        W47312   2.027  14.892   4.212 -0.1209 -0.1020 -0.2664
31179W        W47313  12.594   2.006  14.291  0.2146 -0.2235 -0.0431
31180W        W47314   2.879  15.107  13.792  0.0452  0.1959 -0.0871
31181W        W47315  16.182   0.563  11.778 -0.3055 -0.1964 -0.0287
31182W        W47316   5.388  13.770  11.056  0.0917  0.3016 -0.1706
31183W        W47317   6.769  10.974  14.223 -0.1475  0.2820  0.0647
31184W        W47318  15.227  13.712  12.639 -0.3749 -0.1732  0.0429
31185W        W47319   3.625  10.646  13.405  0.1902  0.1907 -0.1356
31186W        W47320   8.399  10.126  11.477  0.0318  0.0162  0.1198
31187W        W47321  17.292  13.486   4.795  0.1775 -0.1696 -0.1318
31188W        W47322   2.876   1.084   4.559 -0.3245 -0.1027  0.1709
31189W        W47323  12.953   6.165   2.856 -0.1374 -0.0127  0.1066
31190W        W47324  14.982   9.118  13.908 -0.0346 -0.2447 -0.2336
31191W        W47325  17.258  10.171   5.214 -0.0444 -0.3405 -0.2098
31192W        W47326  15.000  16.300   0.291 -0.1286 -0.0073  0.1497
31193W        W47327  12.480   6.994  14.008 -0.1689 -0.2101  0.4891
31194W        W47328   4.346   5.938  14.840  0.1247  0.1229 -0.1364
31195W        W47329   1.147   9.412   5.989 -0.0204  0.0838  0.0855
31196W        W47330  17.731   7.336  12.789  0.2247  0.2649 -0.2047
31197W        W47331   4.826   5.920   1.451 -0.0347 -0.1373 -0.0449
31198W        W47332   1.121  16.193  11.223 -0.0194  0.0772 -0.2155
31199W        W47333  15.030   6.400  14.630 -0.0640 -0.0170  0.0995
31200W        W47334  17.828  14.456  15.137  0.2828 -0.0614 -0.1794
31201W        W47335   6.069   7.787   0.028 -0.0415 -0.3544  0.0612
31202W        W47336  17.691  12.625  14.461 -0.1328  0.1701  0.0154
31203W        W47337  18.360   9.822   4.746  0.0406 -0.0196 -0.0136
31204W        W47338  18.255   9.469  14.964 -0.4302  0.1738  0.1025
31205W        W47339   8.735   2.906  12.074  0.0656  0.0008  0.0868
31206W        W47340  10.508   9.471   2.819 -0.3164 -0.0564  0.1182
31207W        W47341   6.753  15.903  12.098 -0.1470  0.1098 -0.3252
31208W        W47342  17.644   7.431   3.684 -0.2257 -0.0490 -0.2093
31209W        W47343   4.025   1.559   2.103  0.2469  0.2023  0.2095
31210W        W47344   3.759   4.526   3.626 -0.0253 -0.0968 -0.0012
31211W        W47345  15.606   3.435  11.474  0.1267  0.1743 -0.0593
31212W        W47346  11.287  12.196  11.104 -0.1464  0.0406  0.1928
31213W        W47347   7.514   5.148  14.621 -0.0686 -0.1787  0.1103
31214W        W47348  17.819   7.885   5.184  0.0357 -0.4214  0.2613
31215W        W47349   4.071   4.264   0.102 -0.2803 -0.1897  0.1450
31216W        W47350  14.134   2.598  10.788 -0.0622  0.0353 -0.3981
31217W        W47351  13.801   3.408  11.910 -0.4132  0.0622 -0.1068
31218W        W47352  12.898   8.761   4.149 -0.0148  0.0013  0.0336
31219W        W47353  17.126   5.408  10.003  0.0658 -0.1611 -0.0562
31220W        W47354  13.314   8.335  11.782 -0.2911 -0.0970 -0.1475
31221W        W47355  10.559  16.683  12.442 -0.2303 -0.3605 -0.0512
31222W        W47356  18.355   6.190  10.629  0.0762 -0.0451 -0.1866
31223W        W47357   2.343  13.101   1.766  0.0273  0.1344  0.2090
31224W        W47358  10.026   6.850  15.448  0.3043 -0.0347  0.2450
31225W        W47359  11.485   7.757  14.345  0.0654  0.0610 -0.3138
31226W        W47360   2.931   8.679  10.455 -0.2659 -0.1608 -0.0048
31227W        W47361   3.378  12.639   2.614  0.0824  0.2852  0.1310
31228W        W47362   8.630  12.586  13.818  0.2023 -0.0654  0.1191
31229W        W47363   5.584   1.922   2.738  0.2636 -0.0746 -0.0103
31230W        W47364   3.701  10.728  15.168 -0.3576 -0.1407 -0.1226
31231W        W47365   6.803  10.049  14.159  0.2545 -0.1296  0.1677
31232W        W47366   6.017  11.849   0.449 -0.0988  0.3877  0.2010
31233W        W47367  16.192  10.193  12.061 -0.1407  0.0301 -0.0191
31234W        W47368   6.240   6.916  12.940  0.2305  0.1399 -0.3811
31235W        W47369  18.297  12.699   3.553 -0.1261  0.2052  0.0171
31236W        W47370   8.719   1.920   5.224 -0.0429  0.1363 -0.0355
31237W        W47371   3.350  13.035   0.807 -0.0052  0.0535  0.0582
31238W        W47372  16.345  10.191   3.375 -0.2005  0.0325  0.1203
31239W        W47373  13.543   2.096  14.620 -0.1013  0.1479  0.0828
31240W        W47374  15.986  15.946  14.899  0.1707  0.0305 -0.1865
31241W        W47375  12.357  14.422   2.595  0.0704  0.2864 -0.1570
31242W        W47376  16.838  15.557  13.944  0.2424 -0.0799  0.2887
31243W        W47377  13.198   6.565   5.547  0.0375 -0.0044  0.1417
31244W        W47378  10.941   6.519   3.707 -0.2169 -0.1058 -0.3683
31245W        W47379  11.244   9.178  13.847 -0.0422  0.1248 -0.2192
31246W        W47380   6.776  16.567  13.520 -0.2531  0.2867 -0.1086
31247W        W47381  11.014  15.100  12.417  0.0698  0.0623  0.1808
31248W        W47382   5.461  13.644   1.936  0.2778 -0.3759 -0.0915
31249W        W47383   1.175  13.099   1.917 -0.0341  0.1262  0.1307
31250W        W47384  15.732   2.797  10.256 -0.2396  0.0691  0.0171
31251W        W47385  12.641  15.100   2.914  0.2384 -0.2134 -0.0567
31252W        W47386   6.605   7.934   4.752  0.3269  0.0719 -0.1249
31253W        W47387   6.170   5.797   2.863 -0.0604 -0.1870 -0.1546
31254W        W47388   7.671  14.860  14.486  0.0208 -0.0127  0.2750
31255W        W47389  14.028   9.423   4.130  0.4084 -0.3436 -0.1330
31256W        W47390   2.798  11.554   0.671 -0.0520  0.2595 -0.2214
31257W        W47391   2.603   5.612  13.247  0.2211 -0.0984  0.4424
31258W        W47392   9.194   2.375   2.624  0.1886 -0.3762 -0.0793
31259W        W47393   4.984   6.393  11.168  0.2140 -0.3385  0.4047
31260W        W47394  16.233   3.631  10.818  0.2815  0.1136  0.2494
31261W        W47395   8.195   2.727  12.934  0.0262 -0.1230  0.0380
31262W        W47396  17.643  11.555  10.036  0.1750  0.1615  0.3643
31263W        W47397  18.048   4.864  12.006  0.0563 -0.0504  0.2863
31264W        W47398  13.822  14.847   1.681  0.3745  0.0557 -0.0617
31265W        W47399   2.396   6.600  10.653 -0.3340  0.0338 -0.2599
31266W        W47400   3.994   3.344   4.404  0.0682  0.1420  0.1580
31267W        W47401   1.854   3.649  15.855 -0.0426  0.0010 -0.0518
31268W        W47402   7.517   9.534   4.001  0.0920  0.2213  0.1236
31269W        W47403  14.955   8.676   5.343  0.1650 -0.0552 -0.0241
31270W        W47404   3.355   8.352   1.875 -0.4550  0.2249 -0.0249
31271W        W47405  15.053   5.564   4.020  0.2271 -0.0112 -0.1684
31272W        W47406   8.890   5.805   0.611  0.0936 -0.0061  0.0974
31273W        W47407   3.828  13.082  15.463 -0.0356 -0.1471  0.0920
31274W        W47408   9.065  10.457  11.952 -0.1578 -0.2735 -0.1443
31275W        W47409  13.220  18.238   3.406 -0.1870 -0.1517 -0.2152
31276W        W47410   3.062  17.340  10.049  0.2506 -0.0405 -0.3754
31277W        W47411  10.366  14.918   1.641 -0.0945  0.0111  0.0016
31278W        W47412  14.033  11.134   5.959 -0.2576 -0.3675  0.0004
31279W        W47413   6.771   5.021   4.558  0.2856 -0.0163 -0.0924
31280W        W47414  11.460   8.773  13.429  0.0848 -0.0236  0.1647
31281W        W47415  12.831   5.547  15.048  0.3802 -0.0506 -0.3531
31282W        W47416  16.978   0.327  14.957 -0.0939 -0.1760 -0.0903
31283W        W47417  12.243  12.307  14.847  0.0476  0.2585  0.0524
31284W        W47418  13.414   2.481  14.163  0.2409 -0.1695  0.1304
31285W        W47419   1.530  12.787   2.166 -0.1227  0.0702 -0.1234
31286W        W47420  11.118  17.481  13.718 -0.2079  0.1450 -0.0264
31287W        W47421  11.232   1.219   0.674 -0.0026  0.0665 -0.1664
31288W        W47422   1.411  14.936   3.133 -0.1947  0.0603 -0.0022
31289W        W47423   0.875  13.964   2.882  0.1823 -0.0797 -0.1802
31290W        W47424  10.768  16.406  14.868  0.2225  0.0649 -0.0671
31291W        W47425   8.499  11.388   1.168  0.0160 -0.0058 -0.1493
31292W        W47426   9.849   9.158   6.008  0.0405 -0.1591 -0.2224
31293W        W47427   5.864   4.150   5.219 -0.1756  0.0831 -0.0795
31294W        W47428  14.877   4.203   2.547 -0.3404 -0.1284 -0.0848
31295W        W47429   4.203  15.325  10.854 -0.1786 -0.2171 -0.1915
31296W        W47430   4.937   8.796   3.309  0.1084  0.0772  0.0784
31297W        W47431   7.349  16.019   0.668 -0.3226  0.0621  0.2037
31298W        W47432   3.862   9.132  11.553  0.1534  0.0407  0.1687
31299W        W47433  15.421  17.505  11.368  0.1276 -0.2018 -0.2060
31300W        W47434   5.335  11.661   3.820 -0.0839  0.1103  0.1129
31301W        W47435   1.542  17.895  13.209 -0.1819  0.3618 -0.0705
31302W        W47436  14.794  14.043   1.887 -0.0955 -0.1945  0.0259
31303W        W47437  18.309  10.530  11.128 -0.2115  0.1284 -0.0596
31304W        W47438   7.190  11.512   5.098  0.2586  0.1862 -0.1084
31305W        W47439   0.370  14.186   2.730 -0.0381  0.2722  0.2235
31306W        W47440   6.211   3.640   1.446  0.0413 -0.1364  0.0518
31307W        W47441  17.043  17.074  10.956  0.3939  0.0708  0.3234
31308W        W47442   5.315   6.824   5.349  0.3767 -0.0445  0.1408
31309W        W47443   5.713   1.315  11.687 -0.2114  0.0012 -0.3164
31310W        W47444   9.502  11.650   1.034  0.1216  0.0011 -0.0100
31311W        W47445   8.854   3.540   3.834  0.0893 -0.1167  0.1291
31312W        W47446   4.457  13.131  11.048 -0.1054  0.0806  0.2952
31313W        W47447  12.085   0.402   0.247  0.1002  0.3213 -0.2490
31314W        W47448   1.337   0.027   1.105  0.0068  0.0082  0.0179
31315W        W47449   8.812   2.156  14.769 -0.0715 -0.1401 -0.0675
31316W        W47450  11.530  16.058   5.822  0.1354  0.0809  0.0429
31317W        W47451   5.914   4.514   1.897  0.0237  0.0901 -0.1097
31318W        W47452  17.253  12.856   2.213 -0.1607  0.1946  0.1959
31319W        W47453  12.410  16.140   1.522 -0.0375  0.1284 -0.1452
31320W        W47454  14.583   0.931  13.169  0.1184  0.1873 -0.0588
31321W        W47455   4.216   6.846   0.049  0.1712  0.1301  0.0374
31322W        W47456  11.713   0.066  14.451 -0.0210 -0.3377 -0.1459
31323W        W47457   1.914   9.104  14.874  0.0019 -0.0504  0.0649
31324W        W47458   2.138   4.325  13.442  0.1018  0.1627  0.1392
31325W        W47459   9.744   1.178  15.629 -0.0604 -0.2217 -0.2081
31326W        W47460   7.902  15.369   0.195 -0.1800 -0.4663 -0.0062
31327W        W47461   1.742  14.753   3.850 -0.3397  0.0171 -0.2737
31328W        W47462   4.438   2.787   0.985  0.2222 -0.2329  0.1284
31329W        W47463   5.172   0.236   2.493  0.1786 -0.0373 -0.0781
31330W        W47464   5.339  15.960   4.714 -0.0636 -0.0899  0.1578
31331W        W47465   3.930  12.215   1.576  0.0624 -0.3085  0.3296
31332W        W47466   3.369   5.143  14.399  0.0463  0.1910 -0.0197
31333W        W47467  14.795   8.465  14.709  0.0562 -0.1543  0.1929
31334W        W47468   7.601   6.390   3.388 -0.2634  0.1376  0.0317
31335W        W47469   5.484   5.709  13.964 -0.2122  0.1352 -0.0144
31336W        W47470   1.832   7.813   4.355  0.1318 -0.1929 -0.1391
31337W        W47471   0.403   2.374   4.511 -0.1669 -0.0520 -0.0216
31338W        W47472   7.032  12.365   0.987  0.2302  0.0045 -0.1278
31339W        W47473   6.428   7.038  11.168  0.1329 -0.0721  0.2758
31340W        W47474  13.111   1.373   0.492  0.3853  0.0222  0.0811
31341W        W47475  16.519   7.483  14.207 -0.2115  0.0427 -0.0277
31342W        W47476  15.826  10.973  15.571  0.0065  0.2165 -0.2557
31343W        W47477   4.750   5.672   2.963  0.0737  0.1915  0.1825
31344W        W47478   3.908   9.631  11.551 -0.2433  0.0786  0.0663
31345W        W47479  18.452   8.300  12.165  0.0947 -0.0298 -0.2137
31346W        W47480  15.704   9.745   2.332 -0.0360  0.1157 -0.1086
31347W        W47481  13.257  18.271  11.730  0.1960 -0.1667  0.1576
31348W        W47482   5.152   7.246   2.422 -0.0448  0.0241 -0.2796
31349W        W47483   3.365  13.239   3.828 -0.1932 -0.1282  0.0078
31350W        W47484   7.819  12.245  15.624 -0.0584  0.2393 -0.1913
31351W        W47485  11.827   9.814   3.251  0.0635  0.1423 -0.2822
31352W        W47486  15.735   0.397  11.807  0.1208  0.0700 -0.0614
31353W        W47487  10.283  15.265   3.966 -0.0433  0.1358 -0.0548
31354W        W47488  15.129  15.046   3.389 -0.1110 -0.1505 -0.2849
31355W        W47489   7.487  10.443   5.767 -0.2028 -0.4898  0.0627
31356W        W47490   4.590   9.672  12.182 -0.5735  0.1892 -0.2886
31357W        W47491  16.515   1.021   3.178 -0.1354  0.0869  0.2918
31358W        W47492  15.702  12.826  11.183  0.1550  0.0866  0.2560
31359W        W47493   6.739  14.073   2.255 -0.3984 -0.0772  0.0410
31360W        W47494  12.958   9.261   3.970 -0.1328  0.1428  0.1659
31361W        W47495  15.852  14.074   2.576 -0.1485 -0.4021 -0.2430
31362W        W47496   1.656   2.309   4.664 -0.0020 -0.1138  0.0157
31363W        W47497  14.636   6.332  11.987  0.2136 -0.2413  0.1697
31364W        W47498   4.702   3.468   2.185 -0.1239 -0.4619 -0.1704
31365W        W47499  11.281   7.209   2.599  0.3163 -0.0984 -0.0296
31366W        W47500  12.713  14.420  11.915 -0.1442  0.2344 -0.0128
31367W        W47501  12.072   1.409  15.639 -0.1814  0.2186 -0.1911
31368W        W47502  15.461  15.876   1.233  0.1566  0.0121  0.1937
31369W        W47503   2.464  13.945  13.363 -0.1477  0.2516 -0.1601
31370W        W47504  13.043  18.323  14.661 -0.0882 -0.0987  0.2465
31371W        W47505   7.513  13.116   0.064  0.0461 -0.0427  0.1485
31372W        W47506  12.948  18.110   2.649 -0.0306  0.0861 -0.2051
31373W        W47507  17.032  10.570   0.648 -0.2682 -0.2432  0.0826
31374W        W47508  15.531  14.503   1.377 -0.1300 -0.1487  0.1554
31375W        W47509   5.940  11.161  12.947 -0.3138 -0.1600  0.1041
31376W        W47510  17.070  17.956   5.082  0.0453 -0.1316  0.3404
31377W        W47511  16.058   8.896  11.391  0.1281 -0.0470 -0.0912
31378W        W47512  12.690   6.429  14.155  0.0792 -0.4448 -0.0664
31379W        W47513   0.908   1.209  12.547  0.0476  0.1821  0.1690
31380W        W47514  16.469   8.595   4.097  0.3280  0.2223 -0.1785
31381W        W47515   0.223   4.691  15.033 -0.0339 -0.0280  0.2153
31382W        W47516  11.441   0.432   2.596  0.1424  0.0437 -0.1871
31383W        W47517  13.273   8.919   3.825 -0.2849  0.2117  0.2971
31384W        W47518  17.006   0.895  11.385 -0.0360  0.0718 -0.0495
31385W        W47519   8.640  10.449  13.607  0.2086  0.0675 -0.1973
31386W        W47520  17.553   7.510   2.554  0.0391 -0.1657  0.1323
31387W        W47521   5.683   5.744   4.923  0.2083 -0.1193  0.1209
31388W        W47522   0.244  11.805   5.104  0.1139  0.1574 -0.0248
31389W        W47523   4.178  14.329   3.561 -0.1720 -0.0087  0.2185
31390W        W47524   9.792   2.985   5.380  0.3754 -0.1049  0.1083
31391W        W47525   3.677   8.752   3.832  0.0373 -0.2207  0.1202
31392W        W47526  14.502  16.621   3.743  0.1011  0.0496  0.0216
31393W        W47527   0.388   5.156  12.978 -0.0829  0.1347 -0.0428
31394W        W47528   9.537   1.681   5.056  0.1979  0.0035  0.0564
31395W        W47529   6.396   4.935  13.351 -0.0866  0.0986  0.0918
31396W        W47530   7.638  17.791   2.777 -0.0166 -0.1277 -0.0770
31397W        W47531   9.044  10.051   4.471 -0.1839 -0.0850  0.0684
31398W        W47532   1.276   2.671   1.144  0.0511  0.0799 -0.1493
31399W        W47533   7.253   7.076   5.588 -0.1101  0.1347  0.0277
31400W        W47534   7.677   2.416  14.709 -0.2955 -0.1355  0.3942
31401W        W47535  17.052  11.220   0.937 -0.1075 -0.1273 -0.2319
31402W        W47536  15.240  12.585   4.123  0.0726  0.2292 -0.0829
31403W        W47537   6.494  17.121   6.024  0.2624  0.2920  0.1718
31404W        W47538  18.244   1.263  10.506  0.0954  0.2524  0.2648
31405W        W47539   0.144   3.400  10.777 -0.1071  0.0081 -0.1532
31406W        W47540   6.792   9.625   2.065  0.1346  0.2421 -0.2130
31407W        W47541   6.864   9.700  11.740  0.0870  0.1475  0.1271
31408W        W47542   0.490  14.018   3.280 -0.0876 -0.0229 -0.1575
31409W        W47543  12.569   8.109   0.198 -0.0621 -0.0716  0.2541
31410W        W47544  18.236   2.695   3.133 -0.1239  0.0841  0.0257
31411W        W47545   3.183   6.607   2.138  0.0157 -0.0845  0.0200
31412W        W47546  11.111   9.001  12.191  0.0383 -0.1978 -0.1381
31413W        W47547  10.434   9.834   3.601  0.2369  0.1726  0.0768
31414W        W47548  18.346  17.440   2.919  0.0982  0.0594 -0.1275
31415W        W47549   2.107   8.346   3.276 -0.0109 -0.3167 -0.1146
31416W        W47550   7.238   4.649  14.478 -0.0547  0.1965 -0.3418
31417W        W47551  18.009  15.334   4.674 -0.1857 -0.1246 -0.1916
31418W        W47552  15.317  10.004   0.291 -0.2948  0.1259  0.0174
31419W        W47553  14.189   3.208  15.818 -0.1994 -0.1646  0.0890
31420W        W47554  15.603  14.993   1.172  0.0283 -0.1289 -0.0802
31421W        W47555   7.287  16.336   2.533 -0.0439  0.0846 -0.1385
31422W        W47556   8.888  17.251   4.699  0.1556 -0.1268 -0.1516
31423W        W47557  14.863  14.357   4.773  0.2275 -0.2360  0.0220
31424W        W47558  14.304   6.886  14.723 -0.1512 -0.2561  0.0786
31425W        W47559  16.628   9.046  11.997 -0.0788  0.0296 -0.1370
31426W        W47560   1.252  11.390  14.060 -0.0903 -0.1661  0.1400
31427W        W47561  17.728  15.660  15.541  0.1400  0.1128 -0.1410
31428W        W47562   6.328   3.405   0.537  0.1313 -0.1535 -0.4917
31429W        W47563  13.215  11.520  13.017  0.2685 -0.0686  0.2445
31430W        W47564   9.966  11.000   1.846 -0.0890  0.1632  0.0127
31431W        W47565  12.914   0.009   4.485 -0.3167 -0.1342 -0.3008
31432W        W47566   0.698  13.261  15.789  0.2604  0.0099  0.0513
31433W        W47567  14.664  10.220  10.801 -0.2370  0.0094  0.0456
31434W        W47568  11.965   1.112   2.764 -0.0648  0.1447 -0.2190
31435W        W47569   2.909  13.460   0.816 -0.2869 -0.0311 -0.0011
31436W        W47570   1.623   7.619  12.354 -0.1926 -0.2471  0.0288
31437W        W47571  15.522  15.286  14.386 -0.4949 -0.2023 -0.1131
31438W        W47572   2.664   5.550   0.695  0.3140 -0.1743 -0.1306
31439W        W47573   9.680  10.287  11.990  0.2239  0.1558  0.3193
31440W        W47574  12.723   1.149  11.836 -0.2228  0.0051 -0.1347
31441W        W47575  14.306  15.219   4.820 -0.1667  0.0326 -0.1225
31442W        W47576   8.016   4.454   2.862  0.3355  0.0284 -0.0581
31443W        W47577  13.733   1.820  11.064 -0.1176  0.2114  0.2088
31444W        W47578  16.858  10.635   3.299  0.1095  0.0400  0.2772
31445W        W47579  18.349   6.963  13.993 -0.2015 -0.1146 -0.1299
31446W        W47580   2.661   1.147  14.644  0.2108 -0.0550 -0.0303
31447W        W47581  12.639  16.124   4.451  0.1764 -0.1410  0.0401
31448W        W47582  15.453   7.196   4.055  0.0287  0.1726 -0.0658
31449W        W47583   6.423   8.868   0.699  0.0026 -0.1165 -0.1453
31450W        W47584   9.524  16.177  15.155 -0.1080 -0.3822 -0.2634
31451W        W47585  14.170   8.171  15.524 -0.2431  0.0254 -0.0715
31452W        W47586   4.521  16.556   1.293 -0.1836  0.0411  0.0230
31453W        W47587  10.557  13.223  14.828  0.1973 -0.0974 -0.1435
31454W        W47588   7.423   0.299  12.367  0.3436 -0.2576 -0.0047
31455W        W47589   5.716   3.100   4.352  0.0667 -0.2211 -0.0478
31456W        W47590   2.464  10.633   2.835  0.0108 -0.2136  0.0715
31457W        W47591   9.334   8.948   5.655 -0.0804  0.3074  0.1563
31458W        W47592   0.103  14.866  13.802  0.2960  0.1089 -0.1776
31459W        W47593   3.695   3.355   1.116 -0.0790 -0.1203  0.0857
31460W        W47594   4.268   6.259  12.296 -0.0144 -0.2842  0.1544
31461W        W47595   9.728  14.607  12.935  0.3341  0.1384 -0.0835
31462W        W47596   8.692   2.751  14.601 -0.1567 -0.0383 -0.0101
31463W        W47597   8.733   9.913   2.850  0.0079  0.0520  0.1540
31464W        W47598  15.410  13.818   1.240  0.0502  0.1227  0.0115
31465W        W47599   5.365   9.569   1.159  0.1212 -0.0879 -0.0450
31466W        W47600  11.735  11.120   4.865  0.1111  0.1358 -0.2497
31467W        W47601   5.830   6.794   5.395 -0.1862  0.1091  0.0007
31468W        W47602  11.695  13.218  13.511  0.0944 -0.0694  0.1055
31469W        W47603   1.076   0.451  14.390 -0.1342  0.2712 -0.4210
31470W        W47604   5.713   5.538   1.077 -0.0605  0.0993 -0.2128
31471W        W47605   9.387   1.638  12.297 -0.0965 -0.1797 -0.0790
31472W        W47606  18.195  15.858  12.942  0.1320  0.2315 -0.0497
31473W        W47607   1.322   3.339   2.237 -0.0525 -0.0516  0.2339
31474W        W47608  14.904  14.044  15.751  0.0829  0.0958 -0.0275
31475W        W47609   1.385   9.509   2.002 -0.0191 -0.1769 -0.2540
31476W        W47610  13.825  15.346   3.719 -0.1716 -0.0205 -0.2078
31477W        W47611   0.700  10.494  10.711 -0.0211 -0.2168 -0.0035
31478W        W47612   2.180  16.570  12.663  0.1775 -0.1392 -0.1318
31479W        W47613   1.314  12.295  10.958 -0.0356 -0.1777 -0.0562
31480W        W47614   5.078  13.705  15.499  0.0476  0.0892  0.0579
31481W        W47615   8.529   4.082  12.044  0.1105 -0.0975  0.0687
31482W        W47616   3.957   4.543  15.568 -0.0989 -0.4385  0.0423
31483W        W47617  17.668   9.768  13.711 -0.1663 -0.0860  0.0621
31484W        W47618   1.915   2.926  11.561  0.0929  0.0145 -0.0703
31485W        W47619  17.458   9.785   2.030  0.0109 -0.4291  0.2662
31486W        W47620   5.053  14.504  14.830  0.0583 -0.3719  0.2126
31487W        W47621   1.094   4.090  12.634 -0.0293 -0.1047 -0.0102
31488W        W47622   9.737   3.976   0.474 -0.2681  0.0724  0.0791
31489W        W47623  13.002   8.385   0.115  0.2262 -0.0763 -0.0557
31490W        W47624  14.841   2.263   3.786  0.0199  0.0554  0.1610
31491W        W47625   9.675   9.915  12.330  0.0518 -0.3772  0.1495
31492W        W47626  10.363  10.621   1.886 -0.1856  0.0844  0.1708
31493W        W47627   2.732   7.405   4.174 -0.1933  0.1535 -0.0610
31494W        W47628   1.495   2.419  14.090  0.0224 -0.0532 -0.0351
31495W        W47629   9.908   3.525   2.874  0.0633  0.0050 -0.1308
31496W        W47630   9.839   0.766  12.087  0.1280  0.0823  0.1912
31497W        W47631   3.783  16.427  14.424 -0.4785 -0.0391 -0.0433
31498W        W47632   8.395  10.768  14.123  0.5131 -0.3728 -0.1397
31499W        W47633   2.132   0.035   1.985  0.3040 -0.1308  0.3503
31500W        W47634  11.197   6.248  13.746 -0.1127  0.1666  0.1116
31501W        W47635   6.601   4.696  15.695 -0.1865  0.0250 -0.0315
31502W        W47636  17.863   8.617   1.882 -0.2932 -0.3760 -0.1695
31503W        W47637  18.331   5.177  14.766  0.2715  0.0491  0.1351
31504W        W47638   8.175   1.862   1.324  0.1126 -0.0644 -0.1358
31505W        W47639   8.374  18.463  13.060 -0.0451  0.0289 -0.3077
31506W        W47640   4.710  11.372  14.617 -0.1043  0.0351 -0.2266
31507W        W47641   7.815   9.748   1.154 -0.0649 -0.0562  0.4359
31508W        W47642   5.510   1.242  14.525 -0.1811 -0.2334 -0.1348
31509W        W47643  16.971   9.961  15.557  0.0097 -0.0819  0.2148
31510W        W47644   3.495  17.067  15.148  0.0767  0.2164 -0.1232
31511W        W47645  17.120  14.421  14.853  0.2380  0.1400 -0.1319
31512W        W47646  16.695   6.004  12.414  0.1384 -0.0542 -0.0230
31513W        W47647   8.974  13.153  11.781 -0.3977  0.0554  0.0185
31514W        W47648  10.096  10.078  13.981 -0.0856  0.1236  0.0041
31515W        W47649   6.353  13.707  10.972 -0.2649 -0.1031 -0.0242
31516W        W47650   1.914  18.288   4.558 -0.1633  0.1351  0.0384
31517W        W47651  12.449   3.642  11.236 -0.0817  0.0235 -0.0515
31518W        W47652   1.293   4.734  13.364 -0.1101 -0.3480 -0.0328
31519W        W47653   6.648  18.087   1.062  0.2981  0.0861  0.0884
31520W        W47654  16.137  12.606   0.130 -0.0376 -0.0384 -0.0629
31521W        W47655   0.968  16.767   1.067 -0.0271 -0.0477  0.1540
31522W        W47656  17.699  13.052   2.339 -0.0618 -0.0453  0.2825
31523W        W47657   3.790   1.305   5.080 -0.1724 -0.0946 -0.0624
31524W        W47658  15.560  12.111   4.355  0.3951  0.1087  0.0658
31525W        W47659   8.249   8.550   0.446 -0.1860 -0.0888 -0.2470
31526W        W47660   1.339   1.820   2.388 -0.2360  0.2039  0.0685
31527W        W47661  11.191  10.258  15.443  0.3074  0.0394 -0.0690
31528W        W47662  11.533  14.188   5.079 -0.0906  0.1271  0.0950
31529W        W47663   3.967  18.346   1.446 -0.1062  0.3495 -0.0704
31530W        W47664  17.416   9.978   3.569 -0.2014 -0.0013  0.2851
31531W        W47665   6.093  16.435  13.929 -0.1038  0.2154  0.1700
31532W        W47666  18.041  12.010   4.510  0.0119  0.1361 -0.2391
31533W        W47667   4.857   2.765   5.507 -0.0767  0.1886  0.0900
31534W        W47668  18.240  14.257   1.670  0.4002  0.1492  0.0700
31535W        W47669  15.933   6.543  14.164  0.0082  0.0762 -0.1402
31536W        W47670   7.307  11.388   2.623 -0.0625  0.0107 -0.0709
31537W        W47671   3.638  11.015   4.197  0.0614  0.1605  0.0299
31538W        W47672  16.782  10.166   0.795  0.1674 -0.2246  0.2725
31539W        W47673   6.132   3.414   0.084  0.0812  0.0556  0.0767
31540W        W47674  17.760   1.054  11.907  0.0784  0.1181  0.1307
31541W        W47675  17.953   1.167  14.468 -0.2189  0.0951  0.1187
31542W        W47676  15.243   2.834  14.351  0.2505  0.2910  0.0364
31543W        W47677   1.054   2.397  15.281 -0.1429 -0.1042 -0.0215
31544W        W47678   4.916  14.909  11.063 -0.0546 -0.1000 -0.1702
31545W        W47679  13.906   3.816  13.679 -0.0911  0.1585 -0.0474
31546W        W47680  18.129   6.878  14.882 -0.3411  0.0033  0.0204
31547W        W47681  14.409  14.916  13.055 -0.2650 -0.1345 -0.1537
31548W        W47682  12.266  11.266  10.883  0.2746  0.0950  0.1608
31549W        W47683   2.043   9.485   2.136  0.1203 -0.1269 -0.2639
31550W        W47684  17.285  12.168  12.024  0.0958 -0.2555  0.1249
31551W        W47685  15.705   1.476  11.772 -0.0321  0.2204  0.2583
31552W        W47686   9.512   9.130  12.711  0.4058 -0.2720 -0.0549
31553W        W47687   4.529   1.395   1.778 -0.0769 -0.0564  0.0347
31554W        W47688   8.996  11.375   5.066  0.1994 -0.0337 -0.0899
31555W        W47689   8.372   2.625   0.493 -0.0077  0.1760  0.1849
31556W        W47690  18.387  13.539  11.041 -0.0505  0.2486  0.1432
31557W        W47691  12.383  10.664   1.283 -0.2790 -0.1957  0.0556
31558W        W47692  13.548   8.420  13.952  0.1453 -0.0004  0.2417
31559W        W47693  11.277   9.532   3.483 -0.0322 -0.0488  0.2063
31560W        W47694  10.703  12.398  12.895 -0.1606  0.0549 -0.0025
31561W        W47695   9.226   2.694   1.647 -0.2227  0.0902 -0.1926
31562W        W47696   8.863   7.954   0.315 -0.2640  0.0771  0.1594
31563W        W47697  11.351  13.697  11.177  0.0774  0.0920  0.1415
31564W        W47698   3.505  15.323  11.396 -0.2221  0.0830 -0.2258
31565W        W47699  14.787   7.400  15.446 -0.0945  0.0163 -0.0179
31566W        W47700   1.902   9.188   9.750  0.1865 -0.1953  0.1521
31567W        W47701  16.571  15.989  13.160  0.2557 -0.1850 -0.1234
31568W        W47702  14.296   4.583   2.940 -0.0885  0.0331 -0.0632
31569W        W47703   9.422   2.604  12.079 -0.3178  0.2403 -0.2828
31570W        W47704  16.359   4.257  15.631  0.1786 -0.0301 -0.0304
31571W        W47705  10.828   0.903  13.854 -0.2356 -0.0066  0.2478
31572W        W47706   4.648   0.056  15.146  0.1125 -0.3604 -0.1641
31573W        W47707  15.344   2.172  11.528  0.2549 -0.3178  0.0839
31574W        W47708   4.549  12.079  10.162 -0.0443 -0.2729 -0.1312
31575W        W47709   0.530  11.688   3.284  0.1034  0.1704  0.0752
31576W        W47710   2.229  15.950  15.762  0.1237  0.0786 -0.0094
31577W        W47711   7.069   7.935  11.811  0.0664 -0.1057  0.0566
31578W        W47712   0.718  17.662  13.008  0.2142  0.2188 -0.0740
31579W        W47713   1.540   5.630  13.469  0.0197 -0.1940  0.0657
31580W        W47714   2.492  18.307  14.119  0.0167 -0.1672  0.0724
31581W        W47715  13.177   7.581   4.939 -0.1266 -0.1378  0.2734
31582W        W47716   6.057  13.516  11.609 -0.1640 -0.0524 -0.2075
31583W        W47717  17.889   9.744  14.651  0.0919 -0.0905 -0.0248
31584W        W47718   9.340  17.854   3.648 -0.0888 -0.1454 -0.1475
31585W        W47719  13.253  12.214  13.062 -0.1019  0.0717  0.5313
31586W        W47720   2.169  12.929   2.720  0.2421  0.3168 -0.0573
31587W        W47721  15.369  10.385   3.714 -0.0618 -0.1891  0.1363
31588W        W47722  16.493   0.969  13.570  0.0748  0.0570  0.1270
31589W        W47723   0.796  12.325   1.562 -0.2684  0.0588  0.3031
31590W        W47724   5.256  11.629  12.657 -0.0396  0.0985 -0.1381
31591W        W47725   6.787  13.837  10.655 -0.3456 -0.2433 -0.1048
31592W        W47726   6.932  13.740   2.645 -0.0784 -0.2716 -0.1420
31593W        W47727  11.278  17.626   4.564 -0.0929 -0.1908  0.1393
31594W        W47728   9.523   5.833   2.320  0.1032 -0.0367  0.0903
31595W        W47729   8.105  17.729   0.179 -0.1478 -0.0180 -0.0627
31596W        W47730   6.480  17.905  12.437 -0.3401  0.1605 -0.1189
31597W        W47731  10.995  10.123   3.017 -0.1272  0.1535  0.1765
31598W        W47732  14.824   1.111   2.073  0.1420 -0.0045 -0.2428
31599W        W47733   6.975  17.374   1.705 -0.0210  0.0918  0.0444
31600W        W47734  15.783  11.953   0.561 -0.3791  0.2377 -0.3133
31601W        W47735  11.841   4.333  15.855 -0.2381  0.3765  0.0010
31602W        W47736  18.311   4.400   5.684 -0.2289  0.0214  0.0304
31603W        W47737  14.620   4.297   1.987  0.0660 -0.0483  0.1885
31604W        W47738   3.803  15.731   2.404  0.0651 -0.3516  0.1609
31605W        W47739  14.116   0.482  15.498  0.1767 -0.1951 -0.0827
31606W        W47740   1.118   7.619   2.530 -0.0734  0.1506  0.2676
31607W        W47741  18.000   2.201  12.125 -0.0026  0.1138 -0.0187
31608W        W47742  10.614   3.261  12.343 -0.0984 -0.0111 -0.3857
31609W        W47743  14.102  14.165   4.107  0.1246 -0.0061 -0.2541
31610W        W47744   3.907  17.940  11.757  0.1404  0.0849 -0.0231
31611W        W47745  17.770   9.196   1.243 -0.1928  0.2226 -0.3624
31612W        W47746   6.616  17.400  14.669 -0.2145 -0.3536  0.1134
31613W        W47747  13.929   5.798  14.115 -0.1239 -0.0651  0.0552
31614W        W47748   1.924   5.779   1.032 -0.2945  0.0172 -0.2058
31615W        W47749   8.515  16.874   5.754 -0.0140  0.0659  0.0200
31616W        W47750   2.042  14.975  14.166  0.2132  0.1928  0.1113
31617W        W47751   7.148   3.018  14.764 -0.0635  0.2554  0.2628
31618W        W47752  17.339   7.451  14.649 -0.3255  0.0344  0.4061
31619W        W47753  16.962   0.768  12.957 -0.2834  0.2790  0.1650
31620W        W47754   9.401  14.642   0.984 -0.1869  0.1194  0.1078
31621W        W47755   1.722   7.055  15.136 -0.2791 -0.2309  0.0198
31622W        W47756  14.268   9.600  11.653  0.0121  0.2285  0.1183
31623W        W47757   6.497  13.601  11.446 -0.0030  0.1219 -0.1992
31624W        W47758   9.302  12.971  15.372  0.0288  0.3016 -0.1464
31625W        W47759   5.734   5.070  14.349  0.1467 -0.0377 -0.0882
31626W        W47760   1.925   5.185  15.651 -0.1468 -0.0749 -0.2754
31627W        W47761   5.895   2.472  11.678 -0.1763 -0.3253  0.0215
31628W        W47762   4.969   3.618  10.986  0.1316 -0.0287 -0.0613
31629W        W47763   2.712   9.989   3.549 -0.1215 -0.0081 -0.2793
31630W        W47764  10.807   8.667   4.794  0.0086  0.0110 -0.0183
31631W        W47765  12.491  12.483  11.966 -0.3030  0.0225 -0.2818
31632W        W47766  17.527   2.828   3.878  0.1853 -0.1011 -0.0378
31633W        W47767   3.079  14.048   4.265  0.1062 -0.2456  0.0214
31634W        W47768  17.609  14.690   5.388 -0.0879 -0.0702 -0.2563
31635W        W47769   0.118   0.479   2.272 -0.1013 -0.1788 -0.0557
31636W        W47770   1.113  13.292   3.557  0.1389 -0.1643 -0.1425
31637W        W47771  14.898   4.226  12.052  0.0889 -0.0511 -0.1992
31638W        W47772   1.550   7.898   0.997 -0.1377 -0.3254 -0.0498
31639W        W47773  12.055   2.191  14.235  0.0227  0.0891  0.0200
31640W        W47774   2.494  14.644  12.597  0.0070 -0.0507 -0.1555
31641W        W47775  16.216   0.233  10.895 -0.0982 -0.2485 -0.1180
31642W        W47776   0.077   2.473   0.464  0.2739 -0.0960  0.0696
31643W        W47777   5.683  17.667  11.182  0.2825  0.1637  0.4359
31644W        W47778   7.408  11.399  12.597 -0.2984 -0.0871 -0.0535
31645W        W47779  13.797  11.656   4.244 -0.3353 -0.2047 -0.2532
31646W        W47780   4.851  12.651   4.479  0.1033 -0.1686  0.2982
31647W        W47781  16.209   1.083  13.011 -0.1023 -0.3920  0.0517
31648W        W47782  12.296  12.890  12.216  0.1258 -0.5165  0.0378
31649W        W47783   9.423  17.526   0.712  0.0079 -0.1416  0.0867
31650W        W47784   7.644  13.664   5.022  0.2774 -0.1651  0.1649
31651W        W47785  16.782  11.667  15.013  0.2561  0.2466  0.1011
31652W        W47786  14.835  18.455  11.126 -0.1880  0.1348 -0.0100
31653W        W47787   9.449   4.400   4.383 -0.1231 -0.0733  0.1445
31654W        W47788  13.395  15.236  10.965 -0.1290  0.2700  0.0398
31655W        W47789  12.546  13.773  13.970 -0.2632  0.1048 -0.1165
31656W        W47790   4.837  17.989   0.234 -0.0242  0.1460  0.0408
31657W        W47791   5.684   4.319  11.235 -0.2021 -0.1259 -0.3272
31658W        W47792   2.637   9.146   4.850  0.0418 -0.1073  0.0395
31659W        W47793   9.626   9.678  15.066  0.0679 -0.0520  0.1862
31660W        W47794  11.414  14.113  13.422  0.0695  0.0096 -0.3814
31661W        W47795   3.475  11.630   0.721  0.0301  0.0465 -0.1739
31662W        W47796   2.005  15.300  12.484  0.1233 -0.1299 -0.0891
31663W        W47797  12.909  11.450  15.783  0.0175 -0.5135  0.0189
31664W        W47798   1.191  11.468  12.506 -0.2448 -0.2404 -0.0984
31665W        W47799  17.687  13.733   2.417 -0.0168 -0.1314 -0.1737
31666W        W47800   3.451   5.468   4.616 -0.3807  0.3544 -0.3620
31667W        W47801  16.126   7.216   5.172  0.0584  0.2151  0.1013
31668W        W47802   7.502  18.307   1.782  0.1492  0.2859  0.2702
31669W        W47803   5.845  16.816   2.539  0.2898  0.1652 -0.0198
31670W        W47804   2.624  11.198   2.042 -0.1588  0.2055  0.1395
31671W        W47805   7.273  17.835  15.253 -0.0888  0.2238  0.0779
31672W        W47806  13.681   1.169  14.791 -0.0780  0.0291  0.2328
31673W        W47807  10.522  15.208  15.057  0.0050 -0.0760 -0.0765
31674W        W47808  16.601   7.902  12.852 -0.2408  0.0314  0.0277
31675W        W47809   7.915  14.466  12.783 -0.4634 -0.0718  0.1685
31676W        W47810  16.708   1.090   2.377 -0.0075  0.3712  0.0238
31677W        W47811   0.153  18.391   1.892  0.0841  0.0931 -0.0149
31678W        W47812  12.049  10.466  12.801  0.1004  0.1581  0.0177
31679W        W47813   6.171  17.296  15.757 -0.0052  0.0981  0.1968
31680W        W47814  10.739   1.949   3.651  0.1633  0.0440  0.1295
31681W        W47815  13.649   0.206  15.264  0.1044  0.2545 -0.0387
31682W        W47816  10.418   2.720   3.091  0.0816 -0.1575  0.0025
31683W        W47817   1.263   4.039   4.731 -0.0483 -0.1659 -0.0690
31684W        W47818  10.104   3.406  12.382 -0.0400 -0.2102  0.2164
31685W        W47819  13.786  11.939   2.516 -0.0906 -0.0444  0.4300
31686W        W47820  11.855   7.080  11.991  0.0141  0.2188  0.0258
31687W        W47821  11.458  15.713   5.097 -0.0892  0.0203  0.1291
31688W        W47822  17.566   9.078  14.203 -0.2758  0.2027 -0.1934
31689W        W47823   4.516  16.008   1.510  0.1092  0.0342 -0.0059
31690W        W47824   3.246   9.176  12.262 -0.1338 -0.4312 -0.1571
31691W        W47825   1.686  13.427   0.963 -0.2582  0.0733 -0.1647
31692W        W47826  10.766   6.052   2.072 -0.0854 -0.2503  0.2962
31693W        W47827   5.861  13.741  13.746  0.1142 -0.0230  0.1796
31694W        W47828  17.927   9.865  15.125 -0.0216 -0.3522 -0.1252
31695W        W47829  13.685   2.351  15.104 -0.2020  0.0162 -0.1211
31696W        W47830   4.332   5.706  13.687 -0.1880 -0.0306  0.1186
31697W        W47831   9.324   4.671  12.496 -0.0898  0.1996  0.0780
31698W        W47832  14.446  13.802  15.467  0.3312 -0.1855  0.2557
31699W        W47833   9.132   6.541  15.334  0.0079 -0.1830 -0.1567
31700W        W47834   0.333   6.669   4.348  0.1847 -0.0594  0.0375
31701W        W47835   1.907  11.963   3.086  0.0498 -0.0112 -0.0425
31702W        W47836   5.019   2.725  11.332  0.0436 -0.3209  0.0548
31703W        W47837   9.103   9.942   2.421 -0.0434 -0.0184 -0.1053
31704W        W47838   0.100   0.278  13.756 -0.2628 -0.1292  0.2956
31705W        W47839   1.200   7.837  12.287 -0.0193 -0.2759  0.3158
31706W        W47840  13.140  11.812  14.348  0.0833 -0.5475 -0.1341
31707W        W47841   3.415   9.334   0.205 -0.1678  0.1375 -0.0803
31708W        W47842  10.728   1.766   2.672 -0.0155 -0.0483  0.0624
31709W        W47843   2.337   9.521  15.624  0.1285 -0.0644  0.0283
31710W        W47844   6.208   9.603   1.828  0.0876  0.2174  0.4835
31711W        W47845   3.889   6.772   2.659  0.2072  0.0345 -0.1410
31712W        W47846   4.109   2.464  14.957  0.1360 -0.1367 -0.0975
31713W        W47847   9.772   0.089   3.528 -0.3119 -0.0220 -0.0977
31714W        W47848  12.291   7.579  14.992 -0.1435  0.0458 -0.0008
31715W        W47849   5.876  14.863   1.638 -0.1684 -0.1791 -0.0364
31716W        W47850  13.963  12.146   4.340 -0.1571 -0.2077  0.1253
31717W        W47851   7.888   1.964   0.412  0.4195 -0.2888 -0.0352
31718W        W47852  15.201   6.891  12.131 -0.0265 -0.1794 -0.3064
31719W        W47853   7.699  14.965  12.582  0.2374 -0.0241  0.0473
31720W        W47854  15.627   3.495  12.780  0.1266 -0.3464 -0.2588
31721W        W47855   8.324   1.065   0.196  0.1151 -0.1492 -0.6282
31722W        W47856   2.185   1.906  14.654 -0.0370  0.0717 -0.1689
31723W        W47857  17.522   3.011  14.054 -0.0040  0.1676  0.0969
31724W        W47858   7.302   6.369  15.489 -0.1372 -0.0227  0.0053
31725W        W47859   8.305  11.120   0.304 -0.2924 -0.4148 -0.0424
31726W        W47860  16.123   0.247   5.545 -0.0963 -0.0507 -0.0298
31727W        W47861  12.340   5.693  11.708 -0.1762 -0.1143 -0.1391
31728W        W47862  12.877   1.377  10.993 -0.4065  0.0324 -0.0009
31729W        W47863   3.776   8.523  14.426  0.3999  0.3480 -0.1174
31730W        W47864  13.704  17.253  13.958  0.1938 -0.1712  0.1516
31731W        W47865   1.522   4.897   4.812  0.0286  0.0870  0.2926
31732W        W47866  17.161   4.859   2.260 -0.2111 -0.1420  0.1943
31733W        W47867   3.049   4.313  10.538 -0.3441  0.1579 -0.0927
31734W        W47868  11.574   9.327   4.549 -0.0695 -0.3508 -0.4464
31735W        W47869  16.152  16.901  13.702 -0.0278 -0.2693  0.1950
31736W        W47870   1.024   8.766   3.424  0.0312 -0.2240  0.0167
31737W        W47871   8.190  15.861   3.765 -0.1543  0.3108 -0.0059
31738W        W47872   4.828  18.142  10.530  0.0082  0.3622 -0.1336
31739W        W47873  17.484   0.729  10.279  0.1293  0.0831 -0.1883
31740W        W47874   5.378  16.281   5.499 -0.1608  0.0958  0.1346
31741W        W47875   5.954   1.786  11.682  0.1117  0.3562 -0.0928
31742W        W47876   9.855  13.809  11.509 -0.2445  0.0431  0.1995
31743W        W47877   1.970  10.272   0.302  0.0694 -0.0247  0.2437
31744W        W47878   7.106  14.726   3.410  0.0838  0.3720 -0.1253
31745W        W47879   6.939   8.116  13.180 -0.2419  0.0105  0.2337
31746W        W47880   7.789   1.457  13.521  0.0939  0.0685 -0.1030
31747W        W47881  17.422  13.127   4.083 -0.0272 -0.3246  0.1113
31748W        W47882  14.444  17.566  11.331 -0.1315  0.1910  0.2481
31749W        W47883   1.810   3.472  13.255  0.0134 -0.0151 -0.0827
31750W        W47884   8.104   8.803  11.885  0.3087  0.1134 -0.2313
31751W        W47885  12.027  17.222  11.812 -0.0428  0.0179  0.2148
31752W        W47886   0.683  16.134   2.814 -0.0670 -0.1371 -0.0997
31753W        W47887   0.445   1.975   2.027 -0.2515  0.0240 -0.1375
31754W        W47888  11.326  17.298   1.856 -0.0864  0.1592  0.2190
31755W        W47889   8.443   7.829  14.495  0.1264 -0.0000  0.0340
31756W        W47890   4.380  14.612   1.818  0.1072 -0.0129 -0.2805
31757W        W47891   6.718   0.616  15.703  0.0113 -0.0362  0.0911
31758W        W47892   2.148  13.430   4.893  0.0352  0.0102 -0.2981
31759W        W47893   3.810  10.330  14.852  0.2379 -0.1146 -0.2473
31760W        W47894  18.172   6.365   0.590 -0.2663  0.0345  0.0057
31761W        W47895   2.918   1.475  11.615  0.2759 -0.0496  0.3068
31762W        W47896   6.866   7.599  13.944 -0.0765  0.0472 -0.0227
31763W        W47897  13.243   3.248  15.287 -0.2971 -0.2168  0.1765
31764W        W47898   3.940   9.915   5.026 -0.2179 -0.0475 -0.0522
31765W        W47899  10.584   2.665  13.692  0.0787 -0.1691  0.3241
31766W        W47900   2.008   7.815  13.504  0.2099 -0.2291 -0.0993
31767W        W47901   4.287  12.528   3.020  0.0508  0.1095  0.0583
31768W        W47902  13.877   0.563   2.532  0.1760 -0.3162 -0.1200
31769W        W47903  16.345   4.503  15.186  0.1136 -0.2365  0.2451
31770W        W47904   6.422  15.632  11.731  0.1064 -0.0529  0.0038
31771W        W47905  15.408   7.395  15.166 -0.0727 -0.0256  0.0636
31772W        W47906  15.029  17.330  12.933  0.2295 -0.2050 -0.0894
31773W        W47907   6.387   3.000   0.283  0.3265  0.1904 -0.2176
31774W        W47908   7.729   7.235  14.365 -0.0548  0.1024 -0.0801
31775W        W47909   8.230   8.685   2.852  0.0619 -0.2304 -0.2319
31776W        W47910   2.922   7.023   1.837  0.0051  0.0248  0.1034
31777W        W47911  16.792  14.942  13.828 -0.0931 -0.0032  0.0579
31778W        W47912   4.480   7.012   3.271 -0.1394 -0.2880  0.0077
31779W        W47913  14.232  14.616  12.619 -0.2025 -0.5006 -0.1984
31780W        W47914   8.634   7.403  15.670  0.2039  0.2648 -0.2807
31781W        W47915   3.709  16.256   0.918  0.3193 -0.1638  0.0314
31782W        W47916   2.723  16.522   1.518 -0.2161  0.0934  0.0211
31783W        W47917   0.527  11.814   1.215  0.1476  0.2707  0.0116
31784W        W47918  12.694   4.102  11.075 -0.0102  0.0706 -0.3580
31785W        W47919  17.330   6.994   3.803 -0.0941  0.0323  0.1133
31786W        W47920   3.468  13.217   1.573 -0.0342 -0.1938 -0.2654
31787W        W47921  11.714  16.576   1.117  0.1715 -0.0549  0.0772
31788W        W47922   9.826   5.651  12.125  0.0830 -0.1696 -0.0467
31789W        W47923   6.232  18.127  15.214  0.2053  0.0922 -0.0516
31790W        W47924  11.621  10.396  11.853  0.1250  0.1053 -0.3658
31791W        W47925  15.566   7.319  11.079 -0.1043  0.3110 -0.0425
31792W        W47926   1.611  16.243  15.499 -0.1300  0.1657  0.1773
31793W        W47927   7.537   0.335  15.239 -0.3463 -0.1778  0.2773
31794W        W47928   0.545   5.707   3.612  0.1175  0.0380  0.2790
31795W        W47929  10.674  17.968   2.851  0.0848  0.0733 -0.0571
31796W        W47930   4.102  17.424   0.240  0.1383 -0.4813 -0.0424
31797W        W47931  15.116  15.199   2.893  0.1673  0.1447 -0.2474
31798W        W47932   2.204  16.795  11.656 -0.1087  0.2118  0.0632
31799W        W47933  16.243  10.112  14.663  0.2078  0.2420  0.1712
31800W        W47934  17.557  12.965   1.703  0.1219 -0.1185  0.2296
31801W        W47935  14.684   1.804  13.756  0.2789 -0.0659 -0.1404
31802W        W47936  13.067   8.233   0.967  0.1896 -0.1480 -0.3712
31803W        W47937  13.716  16.380   1.021 -0.0077  0.0328 -0.1886
31804W        W47938   1.721   8.170   3.595 -0.0407 -0.1317 -0.2227
31805W        W47939   4.009  13.048   5.017 -0.0106  0.2214 -0.1520
31806W        W47940   3.635  14.803  12.733 -0.0289  0.0949  0.0715
31807W        W47941   0.986   8.796  11.385 -0.0594  0.0536 -0.1324
31808W        W47942   4.498  13.211   2.023  0.4397 -0.2858 -0.5631
31809W        W47943  15.772  14.734  12.311  0.3068 -0.0637  0.0372
31810W        W47944  15.304   3.398  14.156 -0.1340 -0.0141  0.1269
31811W        W47945   4.627   9.690   2.393  0.5199  0.1277 -0.0420
31812W        W47946  14.793  15.199  12.887  0.2583  0.0184 -0.0969
31813W        W47947  11.804  11.978   2.278  0.1100  0.1534  0.0039
31814W        W47948   3.319  17.122  14.482  0.0285  0.2050  0.3996
31815W        W47949   4.239  17.370  14.542 -0.0136 -0.0086 -0.2915
31816W        W47950   8.781   8.545  13.638 -0.0169 -0.1058 -0.1600
31817W        W47951  12.806   8.213   4.133 -0.1162 -0.0591  0.2998
31818W        W47952  12.473  13.284   4.192 -0.2696  0.1441 -0.0649
31819W        W47953   7.682   6.789  15.461  0.2620  0.2983 -0.1317
31820W        W47954  17.950   9.860   0.086 -0.1100  0.2435 -0.1413
31821W        W47955   0.183  15.824   4.136 -0.2163 -0.2226  0.0484
31822W        W47956   6.390  16.770   2.623 -0.0748 -0.0783  0.3323
31823W        W47957  14.387  10.749   3.142  0.2160 -0.1003  0.1155
31824W        W47958  14.671  15.156   3.532  0.1015 -0.0634 -0.2765
31825W        W47959   5.309  14.530   1.141 -0.2817  0.0520  0.2994
31826W        W47960   5.024  16.647   0.400 -0.0558  0.1319 -0.0569
31827W        W47961  11.673  13.519  14.857  0.0421 -0.0284 -0.1198
31828W        W47962  14.947  16.469  13.671 -0.1642  0.1723  0.0217
31829W        W47963   9.179  17.864   1.547 -0.3177  0.0326 -0.2094
31830W        W47964   3.284   3.404   0.660 -0.0457  0.4004  0.0647
31831W        W47965   1.133   5.396   3.602  0.0998  0.3202  0.0616
31832W        W47966  14.029  14.625   5.770 -0.4450  0.2548 -0.2575
31833W        W47967   9.961  15.981  11.170  0.0769  0.3528  0.0722
31834W        W47968   5.920   6.558  12.808  0.3042  0.2434  0.2780
31835W        W47969   3.489   2.786  11.265  0.1541  0.0710  0.0963
31836W        W47970   8.464   8.883   3.293 -0.1064  0.0841 -0.0557
31837W        W47971   6.713  12.565  14.036  0.0608  0.1807 -0.2852
31838W        W47972  11.033  10.403   0.786  0.0008 -0.0796  0.1663
31839W        W47973   4.825  10.357   0.179  0.2415 -0.0311  0.0275
31840W        W47974  18.073   5.609   3.763 -0.2337  0.0482 -0.0466
31841W        W47975  18.283  14.616  12.621 -0.0475 -0.0142 -0.2005
31842W        W47976  10.613   1.471  12.218  0.1458  0.0004  0.0515
31843W        W47977  16.402   7.434  13.241  0.1945 -0.0280  0.1418
31844W        W47978  13.271  17.966   0.694  0.1996 -0.3855  0.3447
31845W        W47979  15.328   4.445   4.207 -0.1014  0.0112 -0.0731
31846W        W47980   0.522   4.447   4.170  0.1183  0.1750 -0.1225
31847W        W47981   9.346   0.302  11.381 -0.0253 -0.4506 -0.0979
31848W        W47982   3.348  15.616   1.123  0.2094  0.1654 -0.2092
31849W        W47983   1.731   3.442   0.813 -0.2746 -0.0335 -0.0647
31850W        W47984  17.855  12.457  13.260 -0.1713 -0.0489 -0.0240
31851W        W47985   1.100  14.669   3.460  0.1101 -0.1010  0.0373
31852W        W47986   9.323   4.962   2.044  0.0659 -0.1308  0.2529
31853W        W47987  13.471   1.516  14.475 -0.3159  0.0306 -0.3308
31854W        W47988   5.793  14.524  14.403  0.0266  0.2659 -0.1087
31855W        W47989   4.754   0.502  13.857  0.4092 -0.1940  0.0140
31856W        W47990   5.134  13.532  11.477 -0.2452 -0.0268 -0.0648
31857W        W47991   5.367  10.287   2.840 -0.0418 -0.0218 -0.0269
31858W        W47992   8.691  17.757  15.268  0.3912  0.0255  0.2500
31859W        W47993  10.547  14.384   2.822 -0.1189 -0.2984  0.0239
31860W        W47994  13.419  17.891   3.748 -0.0402  0.1688 -0.1082
31861W        W47995  11.420  18.037  11.946  0.1718  0.0606 -0.2789
31862W        W47996   8.824   0.148   5.578  0.0548  0.0656 -0.1464
31863W        W47997   4.486   5.456  14.646 -0.1696 -0.3161  0.0756
31864W        W47998  15.967   5.490  14.202 -0.1142 -0.1297  0.1409
31865W        W47999   9.066   1.097   0.774  0.2792 -0.0901 -0.1784
31866W        W48000  16.020   1.897   2.151  0.0317 -0.0761 -0.0421
31867W        W48001  13.528  18.370  14.873 -0.0466  0.0993  0.1020
31868W        W48002  10.489  16.942  13.757 -0.0530  0.1659 -0.0380
31869W        W48003  11.570   3.438  14.205  0.3425  0.2789 -0.1893
31870W        W48004  10.902   1.952  12.961 -0.2579 -0.3450  0.0636
31871W        W48005   5.563  15.536  11.947  0.1098 -0.3583 -0.2863
31872W        W48006  15.123   6.289   4.442 -0.2871 -0.0232 -0.2215
31873W        W48007   0.826  15.756   3.822  0.2780  0.0360  0.0019
31874W        W48008  12.002   5.317  11.859 -0.0395  0.2548 -0.2908
31875W        W48009   2.506   2.153  14.267  0.0949 -0.2257 -0.1110
31876W        W48010  16.574   3.273  12.593 -0.0367 -0.3303 -0.0398
31877W        W48011  14.763   4.520   4.795  0.0196 -0.4076 -0.0160
31878W        W48012   5.347  18.180   2.431 -0.0592 -0.0364  0.1779
31879W        W48013   9.537  13.108   4.689  0.0003 -0.0538  0.0326
31880W        W48014  15.440  12.457   1.514  0.1568 -0.0233 -0.2316
31881W        W48015  16.728  15.290  10.964  0.0051  0.0370  0.2912
31882W        W48016   5.983   8.235   1.253 -0.0919  0.2106 -0.0286
31883W        W48017  13.220  16.953   2.538  0.1340 -0.1036 -0.3131
31884W        W48018   0.084   8.972  14.196 -0.3058 -0.1223 -0.0799
31885W        W48019  11.352   7.689   0.924 -0.0051 -0.1688 -0.3205
31886W        W48020   3.237  15.206   0.031 -0.1614 -0.1814  0.3610
31887W        W48021   1.220  15.213   1.197 -0.0260 -0.0361 -0.1568
31888W        W48022   8.899  10.025   0.101  0.4504 -0.0409  0.1087
31889W        W48023   5.852  17.335  13.537 -0.0478 -0.1564  0.0598
31890W        W48024  17.577   1.447   3.676 -0.0873  0.0685 -0.3921
31891W        W48025   5.665  11.173  14.748 -0.0104  0.0275  0.2404
31892W        W48026  17.113  17.429   4.821 -0.4081 -0.2286  0.2343
31893W        W48027  16.041   6.235   0.413  0.3233  0.0068 -0.0449
31894W        W48028   5.299   3.728   4.073  0.2255  0.2740  0.1619
31895W        W48029   1.961  11.620   1.621 -0.0610 -0.0375  0.4256
31896W        W48030   3.087   8.824   0.998  0.3812  0.2703  0.1025
31897W        W48031  12.118  11.502  15.466  0.0626 -0.0817  0.0335
31898W        W48032   4.414  16.725  15.104 -0.0675 -0.3691 -0.0738
31899W        W48033   8.780  11.388  11.789  0.2312  0.0182 -0.1299
31900W        W48034   6.903   6.455   4.624 -0.1210  0.3259 -0.2654
31901W        W48035  18.303   0.035  15.847  0.1003  0.0040 -0.2024
31902W        W48036  14.395   5.316   5.839 -0.0685 -0.0503 -0.0429
31903W        W48037   6.750  15.069  11.729  0.3069  0.2393  0.1716
31904W        W48038   9.450   0.011   3.083 -0.2828  0.1944  0.2885
31905W        W48039   8.798  12.500   5.055  0.3450  0.1837  0.0285
31906W        W48040   9.158  10.976  11.558  0.0665  0.0540 -0.0634
31907W        W48041  17.574  13.456  14.450 -0.1595 -0.0333 -0.0192
31908W        W48042   7.735   2.572   2.853 -0.0203 -0.0888 -0.3116
31909W        W48043  15.679  11.766  11.660 -0.2920 -0.2836 -0.2709
31910W        W48044   2.491   4.583   5.145 -0.0318  0.2620  0.0774
31911W        W48045   1.754   2.154  11.422  0.0583  0.0029  0.0325
31912W        W48046  17.179  10.107  12.747 -0.0456  0.2720 -0.2507
31913W        W48047   0.478  12.005   2.260  0.4190  0.2095  0.0308
31914W        W48048   7.921   7.205   3.749  0.0036 -0.0990 -0.1622
31915W        W48049  17.829   0.818  15.858  0.2636  0.1131  0.1566
31916W        W48050  10.634   3.813  12.458 -0.0059  0.1033 -0.0408
31917W        W48051   1.766   4.505  15.054 -0.3439 -0.0949  0.0254
31918W        W48052   7.423   0.761  10.253 -0.2032  0.2634 -0.2222
31919W        W48053  15.585   2.937  14.013 -0.1787 -0.2202  0.1154
31920W        W48054   3.017  10.169   2.168 -0.0255 -0.0998  0.1154
31921W        W48055   4.347   2.085  13.250 -0.2869  0.0137  0.2894
31922W        W48056   8.913  15.422  13.638 -0.1334 -0.0519  0.1059
31923W        W48057  11.600  17.965   4.635 -0.3935 -0.1083 -0.0301
31924W        W48058   3.479   5.184   0.600  0.0916 -0.0982 -0.0667
31925W        W48059  14.147   8.156   3.586 -0.0231 -0.4207  0.1625
31926W        W48060   7.977   1.736   3.487 -0.0760  0.2706 -0.0028
31927W        W48061  16.595   8.028  14.368 -0.1653  0.0813 -0.3543
31928W        W48062  15.018  14.756   2.197  0.1698  0.0453 -0.0773
31929W        W48063  17.226  11.935   3.088  0.0710 -0.1354 -0.1499
31930W        W48064   7.924  13.347   4.736  0.0383  0.1970  0.2697
31931W        W48065   5.621  13.355   2.869  0.0843 -0.0234 -0.0625
31932W        W48066   9.928  16.432  13.661  0.0506  0.3622 -0.3153
31933W        W48067  17.331  15.810   2.137  0.3048 -0.3534  0.2999
31934W        W48068  11.380   4.458  13.331  0.0004  0.1974  0.0431
31935W        W48069  13.143  16.920  14.861  0.2609 -0.2332 -0.0660
31936W        W48070   3.361   7.737  11.107 -0.1193 -0.0436 -0.0410
31937W        W48071   5.006   9.084  13.179  0.0816  0.0149 -0.0036
31938W        W48072  16.186  18.067   5.377 -0.0421  0.1653  0.0463
31939W        W48073   0.339   6.003  13.187  0.0261  0.1060 -0.0387
31940W        W48074  14.738   8.158   2.842  0.1042 -0.1557  0.2551
31941W        W48075   1.889  12.318   0.259  0.3766  0.1026  0.0895
31942W        W48076  15.931  11.502  14.659  0.0083 -0.3573  0.1416
31943W        W48077   3.722   1.096   0.643 -0.0215  0.0653  0.1593
31944W        W48078   1.287   9.618   3.165  0.0689 -0.4595  0.0000
31945W        W48079  11.960   2.351   2.200  0.0127 -0.3008 -0.2381
31946W        W48080  16.811  14.143  14.538  0.2154 -0.0294  0.1833
31947W        W48081  18.163   8.133  15.238  0.0003  0.3252 -0.1295
31948W        W48082  10.941  14.568   3.207  0.3426 -0.4078 -0.3502
31949W        W48083   6.427  11.130  12.170  0.2295  0.0388 -0.0915
31950W        W48084  16.554   3.342  15.687 -0.4212  0.1392  0.2347
31951W        W48085  17.167  17.823   3.486 -0.4218 -0.0240 -0.0815
31952W        W48086   5.106   3.556   5.733  0.4102  0.0385  0.1554
31953W        W48087  18.072   8.566  10.806  0.2858  0.1463  0.2276
31954W        W48088  12.739   4.641   0.466  0.0570 -0.0356  0.1257
31955W        W48089  11.185  13.876   2.274  0.0407  0.1664 -0.1823
31956W        W48090   5.397   9.281   4.892  0.1961  0.0492 -0.0437
31957W        W48091   7.922   3.118   5.424  0.1804  0.0957  0.3672
31958W        W48092  14.373   2.585   1.465  0.1370 -0.3352  0.0854
31959W        W48093  17.782   7.763  13.826  0.2831  0.0463 -0.3746
31960W        W48094  17.359   9.159   2.737 -0.2744  0.1070  0.0252
31961W        W48095   8.815  16.724  13.876 -0.2313 -0.0980 -0.1182
31962W        W48096   7.800   8.315   2.016 -0.0258  0.0535  0.1907
31963W        W48097   2.824   7.351  11.609  0.0103  0.1566 -0.2177
31964W        W48098   1.901   9.665  12.309  0.2747 -0.4291  0.1668
31965W        W48099  16.315  15.683  15.614 -0.1163  0.3772 -0.2332
31966W        W48100  17.087   3.258  14.283 -0.1437  0.1131  0.0479
31967W        W48101   0.193   9.442   2.724  0.0727 -0.2253 -0.0329
31968W        W48102  15.107   6.752   0.294  0.0201 -0.0297  0.1517
31969W        W48103  13.669  16.907   0.241  0.0279  0.1456 -0.2585
31970W        W48104   9.393  14.268   5.123  0.2689 -0.0528  0.1379
31971W        W48105   8.436   5.762   0.121  0.2774  0.2009 -0.1099
31972W        W48106   9.959  13.688   1.893 -0.1845  0.3208 -0.0624
31973W        W48107   8.222  17.957  12.918 -0.1788 -0.1428 -0.2292
31974W        W48108  10.536   0.898   0.218 -0.1789  0.1900  0.0224
31975W        W48109   1.126   7.038   1.393 -0.2490  0.0649 -0.0781
31976W        W48110  17.696  13.459   3.319 -0.0416  0.1375 -0.0834
31977W        W48111   8.174  11.083  15.403  0.0503 -0.0260 -0.0785
31978W        W48112   1.554   1.544  15.209 -0.3280  0.1299  0.1250
31979W        W48113  11.022   7.863   3.643  0.0724  0.0709 -0.2190
31980W        W48114  10.178   3.732  13.923  0.1654 -0.0773  0.0397
31981W        W48115   8.142  10.835   1.815 -0.0581  0.1350  0.0165
31982W        W48116   4.596  11.973  15.223  0.4868 -0.0093  0.0809
31983W        W48117  15.772   9.558   1.382 -0.2715 -0.3185  0.1324
31984W        W48118   9.518  18.171  13.307 -0.0081 -0.1414  0.3068
31985W        W48119   8.574   5.131   2.361  0.2908  0.2395 -0.1728
31986W        W48120  14.828   6.954   1.748 -0.1769  0.3066 -0.0676
31987W        W48121   7.197  13.639  12.541 -0.0076 -0.3034 -0.2613
31988W        W48122  13.673  17.990   1.968  0.1027  0.1860 -0.1248
31989W        W48123   0.996   0.785  14.817  0.0710 -0.3182 -0.2305
31990W        W48124   8.067  18.252   1.094 -0.0629  0.2197 -0.1439
31991W        W48125  17.660  16.891  13.671  0.0141  0.0638 -0.1101
31992W        W48126   5.388  11.097  12.976  0.4244  0.1649  0.3217
31993W        W48127   8.162  14.052  12.481 -0.0616 -0.1660  0.1320
31994W        W48128   9.630   0.588   4.598 -0.0786  0.0460  0.2837
31995W        W48129   0.997   6.264   4.035  0.2076  0.1214 -0.0501
31996W        W48130  11.761   6.442   2.712 -0.0575  0.0643  0.0234
31997W        W48131   8.697   9.096  15.213  0.1230  0.1239  0.0012
31998W        W48132   7.978   5.873   0.512  0.0399  0.0571  0.0007
31999W        W48133  15.201  11.632  11.725 -0.4217  0.0182 -0.4120
32000W        W48134   1.912   7.415  14.256  0.0587 -0.4263 -0.2269
32001W        W48135  16.319   0.093   5.103  0.0548  0.0341 -0.0424
32002W        W48136  13.379  10.379  15.411 -0.0027 -0.2725 -0.1527
32003W        W48137   1.115  10.138  12.934 -0.2583  0.2587 -0.1204
32004W        W48138   9.968   0.788   1.040  0.0536 -0.4298 -0.0219
32005W        W48139   1.362   1.478  13.665  0.2095 -0.1757 -0.1577
32006W        W48140   2.596  11.735   0.177  0.1303  0.0121 -0.2050
32007W        W48141   0.559   5.566  11.049 -0.1700  0.1349 -0.1299
32008W        W48142   3.362  17.702   2.549 -0.1631  0.1390  0.0491
32009W        W48143  12.499   5.538   0.977  0.2022 -0.1589 -0.1406
32010W        W48144   1.057  17.496  12.237  0.0140  0.1035 -0.0109
32011W        W48145   9.201   3.788   2.356 -0.0863 -0.0208  0.0271
32012W        W48146  16.135   8.309  12.478 -0.1386 -0.2332  0.2056
32013W        W48147   7.256   6.836  15.692  0.0160 -0.0524  0.0384
32014W        W48148  16.161  17.035   2.581 -0.1633 -0.1054 -0.1433
32015W        W48149  10.377  17.343   2.748  0.0602 -0.2578 -0.0818
32016W        W48150  14.690   4.994  14.879 -0.0084  0.0568  0.0393
32017W        W48151   7.020  14.221   3.442  0.1570  0.0868 -0.0930
32018W        W48152   2.019   0.939  15.891  0.0080  0.0398 -0.2387
32019W        W48153   4.395   4.472   5.007  0.1133  0.2120  0.1297
32020W        W48154   0.898  12.378  13.738 -0.0636 -0.2103  0.2059
32021W        W48155  18.453   4.648   2.855  0.0073 -0.0747  0.1710
32022W        W48156  12.550  14.032  11.184  0.1625  0.0815 -0.0029
32023W        W48157  16.743   8.755  14.230  0.1122  0.2687 -0.2749
32024W        W48158  18.275  10.044   2.928  0.0122  0.1745 -0.1294
32025W        W48159  10.980  11.930   6.139  0.0239 -0.1911 -0.2490
32026W        W48160  13.100   6.430   4.182  0.0538  0.0483 -0.1665
32027W        W48161   1.013  18.343  11.274  0.2702  0.0214  0.0197
32028W        W48162   4.034  14.902  13.826  0.0093 -0.1151 -0.3422
32029W        W48163  16.244  10.963   2.086 -0.1530 -0.0072 -0.4256
32030W        W48164  11.490  13.083  11.942 -0.2002 -0.0257 -0.0391
32031W        W48165  13.939   1.107   2.305  0.0669 -0.1385 -0.2410
32032W        W48166  16.385  14.972   3.721  0.3010  0.3992  0.1390
32033W        W48167  13.028  13.520   1.870  0.1267  0.1034  0.0029
32034W        W48168   3.489   7.814  12.173 -0.0529  0.2070 -0.1592
32035W        W48169   4.116   0.410   3.844  0.1740  0.0876  0.2555
32036W        W48170   4.322   3.851  15.614 -0.0221  0.0065 -0.1998
32037W        W48171  16.723  10.948  15.585  0.0288  0.0926 -0.0593
32038W        W48172   7.444  11.290   2.059  0.3434 -0.3131  0.3277
32039W        W48173  10.266   9.814  14.478 -0.1107 -0.0762  0.2055
32040W        W48174   7.980  17.464   4.184 -0.0255  0.0497  0.2176
32041W        W48175   0.256   0.176  10.106  0.3858 -0.1513 -0.0315
32042W        W48176   7.968   1.993   1.745  0.0050 -0.0040 -0.4296
32043W        W48177  11.955  16.938   3.296  0.2529  0.0825 -0.0214
32044W        W48178  16.338  17.599   5.586  0.2109 -0.1464  0.0446
32045W        W48179  12.168  11.886   4.413 -0.0478  0.0252 -0.1125
32046W        W48180  11.730  10.631  10.392 -0.2440  0.0787 -0.0006
32047W        W48181  11.327   7.673  14.791  0.2996 -0.1016  0.1659
32048W        W48182  11.218  13.682   3.856 -0.0312 -0.3017  0.2444
32049W        W48183  14.617   9.418   5.038 -0.0023  0.2373  0.1621
32050W        W48184  12.488  15.255  13.184 -0.0472  0.1068 -0.0921
32051W        W48185   9.321  16.332  13.942  0.2761  0.1613 -0.0852
32052W        W48186  13.591   1.792  15.745 -0.3342  0.1203  0.2017
32053W        W48187   5.546   7.209   5.635 -0.3475 -0.0254 -0.4907
32054W        W48188   2.816   0.121   5.505 -0.1304 -0.0927  0.0871
32055W        W48189   1.074  12.030  15.542 -0.2389 -0.1054 -0.0446
32056W        W48190   3.450   6.812  11.405  0.1682  0.0947  0.2975
32057W        W48191  17.580  14.661   2.166  0.0914  0.1188  0.3776
32058W        W48192   0.648   6.317   1.047  0.1612 -0.1282 -0.1899
32059W        W48193   7.520  12.763   5.261 -0.0461  0.0262 -0.2602
32060W        W48194  15.040  16.323   3.849 -0.1170 -0.0408  0.0285
32061W        W48195  15.087  10.641  12.357  0.2786  0.0898  0.0982
32062W        W48196  14.432  18.019   4.703 -0.2647  0.0724 -0.0006
32063W        W48197   3.785  16.915   2.947  0.1813 -0.0752 -0.0428
32064W        W48198  13.006   4.478  13.411 -0.1185 -0.0114 -0.0094
32065W        W48199  10.680  10.943  15.298 -0.3192  0.1705 -0.3008
32066W        W48200   9.476   2.438  11.599  0.2210 -0.0306  0.0900
32067W        W48201   5.306  16.058  12.600 -0.0628  0.0668  0.2703
32068W        W48202   8.565  17.383  13.788  0.0553 -0.1338 -0.0300
32069W        W48203   7.502  11.337   4.785  0.0394 -0.0563  0.0440
32070W        W48204  14.156   1.284  14.987  0.0221 -0.0885  0.0410
32071W        W48205  11.074  14.624   2.009 -0.1358  0.1537 -0.0007
32072W        W48206   5.725   0.001   5.697  0.1026 -0.0030  0.1679
32073W        W48207  17.770  11.106  13.263  0.0939 -0.0112 -0.1738
32074W        W48208   1.655   6.665  11.245 -0.0244  0.0314 -0.4668
32075W        W48209  18.349   2.902   5.502  0.3314 -0.0973  0.0511
32076W        W48210   2.045   9.692  13.406  0.4533  0.0255 -0.2842
32077W        W48211  11.642   8.986   1.397  0.2758 -0.0486 -0.2055
32078W        W48212   9.743  17.797  15.477  0.1229  0.3374  0.0845
32079W        W48213   0.877  15.404  14.743  0.2203 -0.0349 -0.1565
32080W        W48214  10.346   6.700   5.908 -0.3120  0.0234 -0.1552
32081W        W48215  17.112   2.841  13.817  0.0503  0.1639  0.1587
32082W        W48216   5.222   3.740   3.097  0.1524 -0.1910  0.0537
32083W        W48217  15.158   5.182   4.306  0.1814 -0.2351  0.1559
32084W        W48218   6.442   0.120   1.127  0.2011  0.1099  0.1255
32085W        W48219   7.426  13.830   3.995 -0.0818 -0.1060  0.1255
32086W        W48220   4.134   4.125  14.967  0.1060 -0.2300  0.1278
32087W        W48221  13.451   4.396  13.134 -0.0442  0.1453  0.1094
32088W        W48222   4.123  15.577   3.392 -0.1576  0.3506 -0.0823
32089W        W48223  17.306   4.407   5.048 -0.0229  0.5493 -0.2392
32090W        W48224   4.023  16.700  15.362 -0.1983 -0.0756 -0.1497
32091W        W48225   9.765  15.173  14.254  0.1094 -0.2034 -0.0235
32092W        W48226  12.142   5.292  10.831  0.1881  0.0804  0.0191
32093W        W48227   6.317   4.831   4.399 -0.0141 -0.0268  0.1824
32094W        W48228  17.362   1.390  11.862 -0.2926 -0.1372 -0.0154
32095W        W48229  13.809   5.232   0.988 -0.0320 -0.1525 -0.2423
32096W        W48230  10.852   6.295   0.905 -0.1406  0.0748  0.2124
32097W        W48231  17.773  10.286  11.675  0.1018 -0.0826 -0.1591
32098W        W48232   6.726  16.146  13.210 -0.0320 -0.0222  0.1993
32099W        W48233   8.665   4.431   2.770  0.0981  0.0723  0.0111
32100W        W48234  17.221   7.038   1.332 -0.1027 -0.2586 -0.1838
32101W        W48235  16.421   9.934  13.453  0.0299 -0.0472  0.2459
32102W        W48236   4.945  10.554   2.682  0.0272 -0.0570  0.3927
32103W        W48237   7.528   7.394  12.977 -0.0309  0.0951  0.2144
32104W        W48238  17.634  14.375   1.699 -0.2697 -0.1903  0.2089
32105W        W48239   9.150   8.960  12.364  0.1125 -0.0830 -0.0269
32106W        W48240   2.905  13.223   1.585  0.0183 -0.1187  0.0930
32107W        W48241   3.756  13.389   2.363 -0.2205  0.0611 -0.1434
32108W        W48242   6.120   9.482  12.229 -0.1626  0.1012 -0.1596
32109W        W48243  11.583   8.689  14.777  0.0571  0.0957  0.4146
32110W        W48244  12.900   5.767   4.988 -0.2863  0.1432 -0.1542
32111W        W48245   3.910   1.875   5.081 -0.0893 -0.0098  0.3175
32112W        W48246  12.622   7.635   0.454  0.1314 -0.2099 -0.3624
32113W        W48247  11.091   7.349   4.855 -0.0446  0.2336  0.1091
32114W        W48248  12.167   8.628  14.010 -0.0403  0.2228  0.2489
32115W        W48249  17.286   5.163  14.580 -0.1039 -0.0097 -0.3433
32116W        W48250  13.892   9.953   2.972  0.0815  0.3072 -0.1977
32117W        W48251  18.421   3.729   3.951  0.4015 -0.0089 -0.0154
32118W        W48252  15.689   9.556  11.690 -0.2657  0.0247  0.1768
32119W        W48253   9.099  10.419   4.074  0.1292 -0.1452 -0.2603
32120W        W48254   1.429  12.331  11.542 -0.0793 -0.2277  0.0365
32121W        W48255   9.515   1.913   0.246 -0.2371  0.0466 -0.0882
32122W        W48256  10.631   6.189   1.547 -0.0958 -0.0087 -0.1102
32123W        W48257   3.218  16.722   1.610  0.0144 -0.2292 -0.2714
32124W        W48258  10.529  14.183   3.250 -0.0888  0.1580 -0.0806
32125W        W48259   7.645   1.091  11.981 -0.1215 -0.0397  0.1082
32126W        W48260   6.397  15.645   1.477  0.1897  0.0516  0.0560
32127W        W48261   0.698   8.573   3.784  0.0197 -0.0487 -0.0311
32128W        W48262  14.490   5.853   5.832  0.0129 -0.0349 -0.0264
32129W        W48263   8.888   1.541  15.666  0.2156 -0.0177 -0.0837
32130W        W48264   4.291   6.693  11.993 -0.1238  0.1627  0.3603
32131W        W48265   9.935  14.790  10.989  0.0230  0.0271 -0.3077
32132W        W48266  14.699  13.120   1.451 -0.0900 -0.1285  0.3941
32133W        W48267   5.630   2.842   1.614  0.2021  0.1631  0.0888
32134W        W48268  15.009  12.201   1.711 -0.2142 -0.0669  0.1403
32135W        W48269  17.401   5.210   5.025 -0.3423 -0.1743  0.2766
32136W        W48270   6.535  17.223  11.719 -0.1030 -0.5927  0.0469
32137W        W48271  15.940  10.627   0.342 -0.0566 -0.2248  0.0223
32138W        W48272  15.345   0.659   3.654  0.3408  0.2240  0.0967
32139W        W48273   2.640  11.468  11.561 -0.0924  0.1892 -0.0569
32140W        W48274   4.484   3.403   1.697 -0.0617 -0.3883  0.0580
32141W        W48275  11.957  15.761  15.474  0.1996 -0.0862  0.0551
32142W        W48276  12.787  13.791  11.779  0.1924  0.2047  0.2272
32143W        W48277   2.695  12.344  11.063  0.1195  0.4002 -0.3126
32144W        W48278  10.156   7.436  10.878  0.1568 -0.0422  0.3379
32145W        W48279  16.412   0.558   3.300 -0.0947 -0.0937  0.0340
32146W        W48280   7.448  11.368  14.706 -0.1512  0.2485 -0.1769
32147W        W48281  12.076   6.274   1.997  0.0671 -0.0282  0.1063
32148W        W48282   1.851  18.106   5.702  0.2108  0.0456 -0.0600
32149W        W48283   6.686   9.080  13.582 -0.2970 -0.0705  0.0544
32150W        W48284  15.577   8.941  10.116 -0.1543 -0.2650  0.0490
32151W        W48285  12.658  17.635  15.592 -0.3286 -0.1437 -0.0716
32152W        W48286  10.371  17.889  13.424 -0.0659  0.3499 -0.3631
32153W        W48287   3.155   3.731  14.020  0.1895  0.1839  0.2146
32154W        W48288   3.726   5.833  10.983  0.0950  0.0544  0.2935
32155W        W48289   0.777   6.191   3.625  0.3602  0.0483  0.0768
32156W        W48290   1.954   4.484  14.599 -0.1707 -0.1996  0.0228
32157W        W48291   3.245  15.869   4.867 -0.2121  0.0681 -0.0846
32158W        W48292   7.632   9.520  11.370  0.1153 -0.1583 -0.1415
32159W        W48293   0.320  14.560  12.881 -0.1268 -0.0483 -0.3496
32160W        W48294   5.359   8.061   1.137 -0.0677 -0.2344  0.0286
32161W        W48295  18.214   6.991   3.415 -0.2418 -0.1613  0.5176
32162W        W48296   7.093   6.046   2.721  0.0209  0.2274 -0.0297
32163W        W48297   6.660  16.585   0.510 -0.1135  0.2670  0.2551
32164W        W48298   3.360  11.258   0.490  0.1813  0.0951  0.0973
32165W        W48299   9.999   5.755   0.210 -0.0371 -0.2140 -0.1165
32166W        W48300  15.505  15.065  13.888 -0.2851  0.0301  0.1279
32167W        W48301   4.918   2.385   1.787 -0.3650 -0.3699  0.2064
32168W        W48302   7.813  13.692   0.939  0.1262  0.1914  0.3073
32169W        W48303  10.094   4.844   0.298  0.0091  0.1965 -0.0263
32170W        W48304   9.748   1.804  10.572 -0.0173 -0.0861  0.3642
32171W        W48305   5.856   3.499  12.599  0.1464  0.2660  0.1334
32172W        W48306   7.090  13.944   1.212  0.1208  0.1625  0.1826
32173W        W48307  18.364   3.551   0.558  0.0879  0.0662  0.0651
32174W        W48308   5.908   4.526   4.300 -0.2158  0.0811 -0.1255
32175W        W48309  11.285  11.591  14.227 -0.2427 -0.1390  0.2022
32176W        W48310  14.481   5.578   0.223  0.1363  0.2459 -0.1335
32177W        W48311   6.257  12.805  15.555 -0.0207 -0.3456 -0.2894
32178W        W48312   3.279  13.250  10.022 -0.0858 -0.2753 -0.0272
32179W        W48313   2.375  11.077  15.103 -0.2254  0.1752 -0.2476
32180W        W48314  16.986   8.066   2.921 -0.0155  0.1231 -0.0268
32181W        W48315   3.853  18.314  12.095 -0.1140 -0.0281  0.0055
32182W        W48316  15.740  10.451   0.798 -0.0587  0.0307 -0.0778
32183W        W48317   0.587   3.647   2.317  0.0647 -0.0417 -0.3338
32184W        W48318   3.959   1.952  11.234 -0.0998 -0.0915  0.0607
32185W        W48319   1.007   8.924   0.476  0.1956 -0.2516 -0.0141
32186W        W48320   2.991  11.491   3.612 -0.1645 -0.1042 -0.2703
32187W        W48321  16.847   4.535  14.793 -0.0577 -0.1531 -0.0146
32188W        W48322   4.353   0.719  13.022 -0.0912  0.1150  0.0171
32189W        W48323   3.031   0.230   1.060 -0.0594 -0.0545 -0.0265
32190W        W48324  15.634   0.206   1.531 -0.0546 -0.0279  0.3377
32191W        W48325   7.941   6.649   3.702  0.4152  0.0036  0.1189
32192W        W48326   7.500  15.986   3.311 -0.0459 -0.1794  0.2256
32193W        W48327   3.076  11.730  11.980 -0.0856 -0.0966 -0.0561
32194W        W48328  14.802  10.255  12.537 -0.2044 -0.2551  0.0482
32195W        W48329   8.245   9.412  12.112  0.0985 -0.0937  0.1795
32196W        W48330  14.221   5.091   0.317  0.0687  0.1660  0.1746
32197W        W48331  17.571   6.696  11.063 -0.0692 -0.2521  0.0615
32198W        W48332  17.761  16.362   2.769  0.1288 -0.1903 -0.1019
32199W        W48333   9.542   0.984   3.766  0.0983 -0.0892 -0.0753
32200W        W48334  14.284  14.827  14.252  0.1196 -0.2948 -0.1099
32201W        W48335   6.449   1.971  11.687  0.4782 -0.3641  0.2049
32202W        W48336   8.896  13.870  11.945 -0.0499 -0.0351  0.0485
32203W        W48337   8.802   4.014   3.442 -0.0548  0.0207 -0.0080
32204W        W48338   5.133   0.503  11.598 -0.0820 -0.1127  0.1256
32205W        W48339   6.267   3.622  14.480  0.1371 -0.0527  0.2194
32206W        W48340  15.511  16.524   5.036  0.1121  0.0489  0.2738
32207W        W48341  11.250  12.501   4.017  0.1880  0.0387  0.0026
32208W        W48342   3.359   1.494  15.453  0.1310  0.1130 -0.0854
32209W        W48343   7.862   1.223  14.867 -0.0906  0.0233 -0.1189
32210W        W48344  17.312   2.271   4.778 -0.0221 -0.3118 -0.0307
32211W        W48345  13.918  17.699   1.660 -0.2226 -0.5990  0.1094
32212W        W48346  16.894  14.199   1.196  0.1217  0.1267 -0.0042
32213W        W48347   4.217  16.989   2.682  0.1323 -0.1885 -0.0061
32214W        W48348  16.953  13.958  14.987  0.0843  0.0211 -0.0749
32215W        W48349   2.729  15.531  14.554  0.2823 -0.2292 -0.0179
32216W        W48350   1.416   7.898   4.635  0.1510 -0.1987  0.0800
32217W        W48351   9.502   7.426   4.425  0.0715 -0.0072  0.1887
32218W        W48352  12.845   5.626  13.614 -0.2455 -0.1016  0.0304
32219W        W48353  17.519   8.100  11.047 -0.0983 -0.0427  0.2263
32220W        W48354  17.433  16.378  15.556  0.2212 -0.2095  0.1245
32221W        W48355  15.110  15.575  14.640  0.0184  0.3346  0.0843
32222W        W48356  13.812   1.376  12.592 -0.2473 -0.2450  0.0151
32223W        W48357   3.128  15.371   3.041 -0.2282  0.0192  0.1253
32224W        W48358   3.990  15.819   5.539 -0.0901  0.0689  0.0705
32225W        W48359   0.716  11.262   2.957  0.3843  0.0503  0.1876
32226W        W48360   6.099   6.027  15.634  0.1697 -0.1867 -0.0983
32227W        W48361   8.658   1.375   5.426  0.1112  0.3121 -0.0620
32228W        W48362  16.411  13.277  12.089 -0.0248 -0.3846 -0.0200
32229W        W48363   6.824   2.989  15.670  0.0650  0.2111  0.1311
32230W        W48364  17.031  16.598   3.604 -0.0940 -0.1030 -0.0605
32231W        W48365  16.617  11.551  12.884  0.0521  0.0142  0.0570
32232W        W48366  14.469  15.512   1.200 -0.0347 -0.0290  0.0337
32233W        W48367   1.192  16.766   0.564  0.0730 -0.0711 -0.1445
32234W        W48368   5.811  13.708   0.923 -0.0826 -0.0875  0.2045
32235W        W48369  17.084   9.174   3.748  0.0492  0.1030 -0.6078
32236W        W48370  15.983   5.988   1.829  0.0143 -0.1761  0.0087
32237W        W48371  17.118  10.471  14.585  0.0352 -0.4799 -0.1061
32238W        W48372   4.370  14.064  11.165  0.0748  0.1438 -0.1846
32239W        W48373   7.808  11.894   3.082 -0.1081 -0.2990  0.2657
32240W        W48374  14.599  15.223  12.259  0.0992  0.2904  0.3503
32241W        W48375  15.914   5.734  12.158  0.1909  0.1925 -0.0900
32242W        W48376   3.833   3.228   4.987 -0.0463  0.0609 -0.0378
32243W        W48377   4.264  12.462  10.058 -0.1627  0.0567 -0.1244
32244W        W48378  17.561   1.886  12.905  0.0058  0.0111  0.0226
32245W        W48379   7.480   8.086   0.221  0.1369  0.0790 -0.0309
32246W        W48380   5.040  11.765   5.446 -0.0197  0.1119 -0.0797
32247W        W48381  17.269   2.783  11.510  0.0808 -0.0166  0.2396
32248W        W48382   5.631   4.102   4.140  0.0544 -0.0698  0.0747
32249W        W48383   7.462   0.193  14.142  0.0027  0.2270 -0.0275
32250W        W48384  14.705   0.465   2.644 -0.1190  0.1834  0.2184
32251W        W48385   1.352   4.926   3.205  0.1146 -0.2559 -0.2349
32252W        W48386   7.064  15.327   1.153 -0.1660 -0.1284  0.1045
32253W        W48387  17.445   8.316  12.751 -0.0558 -0.0604 -0.0165
32254W        W48388   9.559  16.098  11.867  0.3268 -0.3537 -0.0621
32255W        W48389  10.162   4.556  10.541  0.1781 -0.1840  0.4171
32256W        W48390  12.003   8.483   4.290  0.2063 -0.1969 -0.0763
32257W        W48391  11.310   1.513   4.355 -0.0346  0.0706 -0.0714
32258W        W48392   7.225  18.340   3.256  0.1496  0.0379 -0.3471
32259W        W48393  18.083  15.449  13.945  0.0438 -0.0702 -0.0365
32260W        W48394   8.403  18.030   3.568  0.0742 -0.3612 -0.0954
32261W        W48395  11.028  17.927   1.208  0.1655 -0.0489  0.1246
32262W        W48396   0.687   5.060  13.476  0.2262  0.1546 -0.3182
32263W        W48397   6.702   5.722   2.785 -0.3372 -0.2197 -0.1142
32264W        W48398  10.587  15.232   4.356  0.1292  0.2907  0.0762
32265W        W48399   7.907   6.967  13.999 -0.0665 -0.2516  0.2010
32266W        W48400   6.482  10.006  13.785  0.0287 -0.1958  0.1252
32267W        W48401   5.308   0.485   3.839  0.4145  0.1659  0.1665
32268W        W48402   1.241  15.467  14.360 -0.1263 -0.0417  0.0384
32269W        W48403   7.372  15.152   0.803  0.2373 -0.0221  0.3501
32270W        W48404   0.619  17.621   1.491  0.0239  0.1063  0.2758
32271W        W48405  10.079   3.293  11.098  0.1407  0.2481  0.0009
32272W        W48406  10.298  15.031   4.751  0.1080 -0.3835  0.2129
32273W        W48407  17.055   7.402   0.815 -0.0329 -0.1205  0.1710
32274W        W48408   5.538   3.859   2.197  0.3505 -0.1594  0.1657
32275W        W48409   3.068   4.994  12.462 -0.2514 -0.0611 -0.0237
32276W        W48410  13.026  14.691   4.840 -0.0553  0.0570 -0.0890
32277W        W48411   6.366  16.829   4.548  0.1959  0.0813 -0.1151
32278W        W48412  15.787   7.995  12.671 -0.2098 -0.1313 -0.1876
32279W        W48413   5.174  15.682  12.291 -0.3895  0.0540  0.1720
32280W        W48414   7.655  14.664  10.685  0.0181 -0.0822 -0.3568
32281W        W48415   2.703   3.212   4.984 -0.0551 -0.2547  0.2935
32282W        W48416  14.311   6.123   0.906 -0.3312 -0.0862 -0.1045
32283W        W48417   7.757   1.948  13.776 -0.0348  0.0292  0.0525
32284W        W48418   3.719   4.072   1.115  0.0657  0.3960  0.1168
32285W        W48419   0.458  11.679  11.994  0.1528 -0.2378  0.0543
32286W        W48420  14.014  12.426  14.587  0.3577 -0.0356  0.0137
32287W        W48421   1.977  13.826   2.758  0.2223 -0.2020  0.1627
32288W        W48422  11.001   9.703   5.016  0.2657  0.2285  0.0118
32289W        W48423  11.604   7.318  15.081 -0.2528 -0.0592 -0.1660
32290W        W48424   0.548   0.817   4.205 -0.2215  0.2410  0.0383
32291W        W48425   1.119   7.630   3.717  0.2544 -0.0993 -0.2303
32292W        W48426  18.139   2.718   1.807  0.0631 -0.0039 -0.1035
32293W        W48427   2.089   4.722   2.226 -0.4705 -0.0397  0.0062
32294W        W48428   4.402  14.397  13.011  0.1787 -0.0934 -0.0257
32295W        W48429   8.314  13.664  13.252  0.1506 -0.1783  0.2649
32296W        W48430  13.329  15.670   1.798  0.0169 -0.2844  0.0596
32297W        W48431  11.545   0.900  12.583  0.2618  0.0119  0.2662
32298W        W48432   7.534  11.109   5.244  0.1504  0.0702 -0.0031
32299W        W48433   5.930   0.872  11.442  0.0853  0.2038  0.2178
32300W        W48434  15.585   8.720   0.506  0.6271  0.3297 -0.2732
32301W        W48435   5.279  10.236   0.503 -0.0546 -0.1793  0.0009
32302W        W48436  12.803  14.788   9.668  0.0631  0.3447 -0.1676
32303W        W48437   6.420   0.605   1.305  0.1251 -0.0471 -0.2091
32304W        W48438  17.788   6.247  13.724  0.3492  0.0874 -0.0202
32305W        W48439  16.364   4.673   3.561 -0.0971 -0.1490  0.1492
32306W        W48440  11.753   0.034   2.377 -0.1746 -0.0582 -0.1530
32307W        W48441   3.659   0.119   3.990 -0.2251 -0.2643  0.0154
32308W        W48442  14.140  17.037   1.532  0.1391  0.0579 -0.0242
32309W        W48443  13.306  12.419   3.094  0.3050  0.0605  0.1721
32310W        W48444  12.639  13.986  13.177  0.1724 -0.0599  0.1622
32311W        W48445   2.622  15.425  14.063 -0.3010  0.1631  0.0603
32312W        W48446  12.621  11.491   2.826 -0.0901  0.0728  0.4522
32313W        W48447  11.036   3.591   0.342  0.0022 -0.0391 -0.1669
32314W        W48448  12.148   8.867  12.265  0.1320 -0.0491 -0.1032
32315W        W48449  10.187   4.725  13.178 -0.1968  0.0116 -0.0418
32316W        W48450   3.435   4.347   4.840 -0.0005  0.2045  0.2333
32317W        W48451  16.459   4.803  14.412  0.2983 -0.2402  0.0557
32318W        W48452   8.636  17.651  14.167 -0.1042 -0.0733  0.1347
32319W        W48453  15.020   0.282   4.910 -0.0811  0.0449  0.0111
32320W        W48454   7.333   7.741   1.365 -0.2535  0.2278  0.1424
32321W        W48455  15.596   3.681   3.853  0.0330 -0.2914  0.1527
32322W        W48456   7.902  10.962   4.684  0.3080 -0.0992  0.0461
32323W        W48457  17.525   1.285  15.098  0.2760  0.1789  0.1762
32324W        W48458   8.636  12.762   6.286 -0.1827  0.0268 -0.0748
32325W        W48459   5.351   5.355  15.832 -0.2273 -0.1704  0.0400
32326W        W48460  18.157  15.974  14.734 -0.2010  0.0877 -0.0217
32327W        W48461   6.890   8.496  12.396 -0.0348 -0.1218 -0.0288
32328W        W48462   8.812  11.499   2.146  0.2073  0.0037  0.1431
32329W        W48463   4.222   9.988  13.692  0.0848 -0.2516 -0.1027
32330W        W48464   1.702   5.473  14.411 -0.1774 -0.1254  0.1969
32331W        W48465  14.591  14.886  15.069  0.4498 -0.3631  0.4634
32332W        W48466   5.860  12.647  15.268  0.3168 -0.2250 -0.1596
32333W        W48467   0.280   0.447   3.232 -0.3008  0.3074  0.3807
32334W        W48468  13.801   4.603   3.192 -0.0156 -0.2694  0.0626
32335W        W48469   0.875  10.786   4.343 -0.0622  0.1426 -0.0887
32336W        W48470   7.383  13.072   1.900  0.2004 -0.2188 -0.1485
32337W        W48471   7.393  18.178  12.343  0.0705  0.1353 -0.0177
32338W        W48472  16.951   7.798  14.866 -0.2857 -0.0880  0.2467
32339W        W48473  11.485   5.780  11.230  0.0151 -0.1579 -0.0544
32340W        W48474   8.722   2.553   4.357 -0.1222 -0.0199  0.1425
32341W        W48475   1.696  11.764   4.134  0.2380 -0.1667  0.0160
32342W        W48476  15.853  11.894   3.099  0.0511  0.1128  0.0016
32343W        W48477   0.666   9.450   4.432 -0.1805 -0.2133 -0.1134
32344W        W48478   2.328   3.756   2.434  0.0631  0.1542 -0.2231
32345W        W48479  17.853  13.945  13.374  0.2700  0.0156 -0.3490
32346W        W48480  16.199   1.640  12.742  0.1254 -0.0289  0.3281
32347W        W48481  17.626  11.282  14.477 -0.1246 -0.2703 -0.3294
32348W        W48482   1.957  11.201   3.542 -0.1547 -0.0916 -0.0218
32349W        W48483   2.614   6.069  11.947  0.0723 -0.1648 -0.2080
32350W        W48484   9.229   4.679  15.202 -0.1364  0.3955 -0.0627
32351W        W48485  12.303   7.673  14.193  0.1809  0.0762  0.0481
32352W        W48486   0.258  13.669   0.634 -0.1902  0.2704  0.2930
32353W        W48487   7.270   4.227   5.103  0.1233  0.1829 -0.0342
32354W        W48488  17.567  11.281   2.340 -0.1280  0.3873 -0.0721
32355W        W48489   6.886   5.950   3.231 -0.0443  0.0319  0.0601
32356W        W48490   1.620   4.360  13.611 -0.0974  0.1316  0.0471
32357W        W48491   8.400  11.493  15.752  0.2002  0.1867 -0.0823
32358W        W48492  10.402   3.163   1.359  0.1983 -0.0706  0.1326
32359W        W48493  17.134   6.685  11.479  0.1254 -0.0171  0.2296
32360W        W48494   9.540  13.378   4.252 -0.1297 -0.2177  0.4416
32361W        W48495   7.814   0.648   2.867  0.2944  0.0128  0.1181
32362W        W48496   9.313  15.540   0.029 -0.5354 -0.2898 -0.2054
32363W        W48497  11.955  10.222   5.193  0.3134 -0.2254 -0.2250
32364W        W48498   8.503   4.038  13.515  0.1528 -0.0758 -0.1950
32365W        W48499  17.947   5.153   5.299 -0.2197 -0.0405  0.0048
32366W        W48500   4.610   8.320  13.535  0.2872  0.1019  0.0764
32367W        W48501  10.764  16.696  11.930  0.0285 -0.2025 -0.0359
32368W        W48502  18.166  14.611   1.968 -0.2396 -0.1807 -0.1241
32369W        W48503   4.378  10.465   4.490 -0.0175  0.1074 -0.0798
32370W        W48504   6.975   2.041  11.809 -0.2796  0.2132 -0.1244
32371W        W48505  12.182   8.302   2.346  0.0314  0.0295 -0.3933
32372W        W48506  16.049  17.338  11.277 -0.0239  0.3487 -0.1035
32373W        W48507  17.854   5.975  15.098 -0.4090 -0.0045 -0.2737
32374W        W48508   8.206  13.747   4.885 -0.2831 -0.1458 -0.5257
32375W        W48509   0.318   4.153   2.050 -0.2080  0.1623  0.0325
32376W        W48510   7.347   8.129   3.714  0.0438 -0.0953  0.0796
32377W        W48511   0.001   6.553  11.802  0.1435 -0.1230  0.0817
32378W        W48512  17.480   3.905   1.642 -0.1442  0.0169 -0.1344
32379W        W48513  14.026   5.517  15.529 -0.1884 -0.2779  0.0576
32380W        W48514   2.862   5.301   1.050  0.1517  0.0618 -0.1555
32381W        W48515   9.694  16.299  10.912  0.1431  0.0617  0.0047
32382W        W48516  12.700   9.810  13.702  0.2278 -0.0974  0.0630
32383W        W48517   8.374  13.065  12.906 -0.0061 -0.0151  0.1294
32384W        W48518  12.734  17.309   3.716  0.1186 -0.3456 -0.0511
32385W        W48519   9.075  10.197  11.434  0.1659 -0.1974 -0.1035
32386W        W48520   4.868  18.293   5.024  0.1141 -0.0633  0.1830
32387W        W48521  17.693   2.280  13.156  0.1570  0.2243  0.0524
32388W        W48522   7.293   3.808   4.905 -0.0869  0.4097  0.0524
32389W        W48523  13.071  13.301  11.494  0.1086 -0.0329  0.2733
32390W        W48524  15.511  14.940   0.206 -0.1317 -0.0743  0.2773
32391W        W48525  15.647  12.580  15.502 -0.1477 -0.2204 -0.1025
32392W        W48526   4.558  15.729  14.330 -0.1926 -0.4598 -0.1358
32393W        W48527  11.179   7.137  12.322  0.3023 -0.1522  0.0955
32394W        W48528   4.930   2.656   2.262 -0.2874  0.0169 -0.0443
32395W        W48529   8.075  14.939  10.827  0.2365 -0.1481 -0.1999
32396W        W48530   5.479  17.806  11.679 -0.0230 -0.2500 -0.2535
32397W        W48531   3.460   6.334  15.779  0.0924  0.1613  0.0654
32398W        W48532  13.235   3.667   0.805 -0.0803 -0.2603 -0.1381
32399W        W48533   0.491  15.542  11.416 -0.2145  0.2030 -0.0190
32400W        W48534  15.921  13.616   1.265  0.1585 -0.2545  0.1881
32401W        W48535   7.117   8.137  14.030  0.0330  0.4000 -0.2563
32402W        W48536  14.295  18.343  13.477  0.0878 -0.0033 -0.0790
32403W        W48537   8.893  11.019   5.471 -0.2798 -0.3527  0.2149
32404W        W48538  18.088   7.369   2.536 -0.0920  0.1627 -0.0329
32405W        W48539   4.592   4.236  14.438  0.1135  0.4638  0.0615
32406W        W48540  17.217   1.367  11.410  0.2387  0.0693 -0.1162
32407W        W48541   7.375   4.658   3.311  0.1026 -0.0203  0.2241
32408W        W48542  12.835   5.710   6.388  0.0584  0.1154 -0.0212
32409W        W48543  16.675   2.823   1.348  0.1524 -0.0216 -0.0681
32410W        W48544   2.354   6.668  13.948  0.0112  0.0271 -0.1085
32411W        W48545   9.780  11.746   0.085 -0.1809  0.1074  0.0027
32412W        W48546   5.748  13.965   4.588 -0.0742  0.0035 -0.0029
32413W        W48547   9.802   4.818  15.719 -0.1220 -0.1326  0.1356
32414W        W48548  18.252   1.395   2.016 -0.3400  0.2057 -0.0389
32415W        W48549  14.730  18.022  13.549  0.1238  0.1017 -0.1360
32416W        W48550   4.703   8.592   4.451  0.2786 -0.0234  0.0475
32417W        W48551  12.924   5.912   0.946 -0.4536 -0.0759 -0.1568
32418W        W48552  15.004   2.521   2.330 -0.0385 -0.1076 -0.0770
32419W        W48553  13.226  17.915   1.758 -0.0053  0.1331 -0.0018
32420W        W48554   7.086   2.569   5.530  0.2178 -0.1667  0.1884
32421W        W48555   2.939  17.838  15.128  0.0762  0.1912 -0.0921
32422W        W48556  18.143  13.289   0.832  0.0914  0.0134  0.0721
32423W        W48557   6.428   8.584  13.791  0.2264 -0.0269 -0.0890
32424W        W48558   8.793  17.248   2.976  0.1314  0.0430  0.2657
32425W        W48559  16.769   3.074   4.275 -0.4094 -0.1450 -0.1951
32426W        W48560  11.953   2.165   4.425  0.3644  0.0359 -0.1314
32427W        W48561   6.142  13.335  12.127 -0.2559 -0.1730  0.1454
32428W        W48562  17.045  13.354   4.332  0.1844  0.2374  0.0860
32429W        W48563  10.416   8.889  13.437  0.0357  0.2003 -0.1799
32430W        W48564   5.239   1.753   0.145 -0.3142  0.2480  0.0494
32431W        W48565  10.980  12.145   3.651 -0.0564  0.0922 -0.0376
32432W        W48566   3.456   5.446   2.628 -0.0277 -0.4004  0.2764
32433W        W48567  16.275   4.760   0.056 -0.0408 -0.2428  0.0634
32434W        W48568   6.564   4.930  14.196  0.3534  0.2212  0.0078
32435W        W48569   3.942  10.103  11.513 -0.3521 -0.1104 -0.1573
32436W        W48570  12.723  16.952   0.355  0.2003  0.0718  0.1294
32437W        W48571   3.280   1.798  13.193 -0.0729  0.1835  0.2538
32438W        W48572   4.169   0.986   0.373  0.0147  0.1695  0.1090
32439W        W48573  15.842  13.540  14.406 -0.1758  0.3334  0.1289
32440W        W48574   3.763  13.204  12.338 -0.0921 -0.2353 -0.0709
32441W        W48575  12.276  15.559   3.470 -0.0917 -0.3636 -0.1594
32442W        W48576   4.884  14.152   4.651  0.2698  0.0079 -0.0577
32443W        W48577  13.553   5.172  10.680 -0.1170  0.0217 -0.0201
32444W        W48578  15.820   3.178   4.054 -0.0087  0.2237 -0.3667
32445W        W48579  11.372  11.226   5.811  0.2204  0.0757  0.2096
32446W        W48580  15.624   1.946  14.122 -0.1263 -0.1807  0.1269
32447W        W48581   8.866   2.084   2.927 -0.2612  0.2078 -0.2421
32448W        W48582   6.673  12.409   5.215 -0.0765  0.0561 -0.0480
32449W        W48583  11.926   7.836  12.906 -0.1894  0.1714  0.0594
32450W        W48584   6.080   8.676   2.314 -0.2304  0.1946  0.0686
32451W        W48585  10.861   4.613  12.527  0.2651 -0.3233  0.1064
32452W        W48586   8.229  11.063  11.310 -0.3050 -0.0722 -0.1567
32453W        W48587   2.191   5.015   3.158 -0.0233  0.0013  0.1640
32454W        W48588  14.462  12.985   4.689 -0.0637  0.4021  0.0143
32455W        W48589   8.764  13.249  13.640 -0.1486  0.2369  0.1684
32456W        W48590  13.332   9.979   1.540  0.2191  0.0505  0.0764
32457W        W48591   3.469   0.133  11.257  0.0051  0.0118 -0.2591
32458W        W48592  10.323  10.018  15.311  0.2368 -0.0435  0.1599
32459W        W48593   9.811  15.448  12.563 -0.2298  0.3306  0.1056
32460W        W48594   6.989   2.784   4.436  0.0563 -0.0096  0.1740
32461W        W48595   7.049  13.853  10.086  0.1713  0.1745 -0.0518
32462W        W48596   0.097   1.375   0.536  0.2211 -0.0814  0.2255
32463W        W48597   0.853   4.253  13.075 -0.1770  0.1008 -0.0206
32464W        W48598   9.333   2.931   5.684  0.2116 -0.0970  0.1274
32465W        W48599   3.355   0.512  11.627 -0.2106 -0.0096  0.0080
32466W        W48600   5.120  12.354   5.343 -0.0881 -0.2586 -0.1556
32467W        W48601   2.530   2.121  13.744  0.2820  0.0094 -0.1683
32468W        W48602   6.707   3.907  15.299  0.1697  0.1205  0.1684
32469W        W48603   0.698   6.201   5.020 -0.0906  0.0165 -0.3452
32470W        W48604   1.564   6.728   2.954  0.1521 -0.1325  0.0653
32471ION     NA48605   8.897   3.865  10.440 -0.0110 -0.1886  0.2414
32472ION     NA48606   3.146  17.712   1.100 -0.2039 -0.0935 -0.2581
32473ION     NA48607   2.712   0.302  14.932 -0.2441 -0.1217 -0.5115
32474ION     NA48608  10.515  11.469   4.485  0.2128 -0.2025 -0.0148
32475ION     NA48609  11.567  12.719   2.032 -0.0061  0.2714 -0.1026
32476ION     NA48610  15.047  11.231   5.499  0.0382  0.0079  0.0643
32477ION     NA48611   3.227   1.259  10.117 -0.0743 -0.2376  0.0094
32478ION     NA48612  17.238  13.702   5.796  0.0490 -0.2454 -0.0659
32479ION     NA48613  12.799   6.949   0.198 -0.0175 -0.1030 -0.0831
32480ION     NA48614  16.904  16.467  10.337  0.2305  0.2652 -0.1469
32481ION     NA48615   0.126  16.652  10.217 -0.0671 -0.0688 -0.0659
32482ION     NA48616   1.240   0.225   5.713 -0.0545 -0.1066  0.0070
32483ION     NA48617  11.587   4.554  10.280 -0.3025 -0.2589  0.3940
32484ION     NA48618  16.581  17.946  14.775 -0.1425  0.1237  0.0985
32485ION     NA48619  17.709  15.808  12.579 -0.0457 -0.2676  0.0518
32486ION     NA48620  13.540  11.281  10.331  0.2620  0.0451 -0.0980
32487ION     NA48621  15.633  11.182   3.967  0.1298  0.1336  0.3342
32488ION     NA48622  18.171  17.607  15.750  0.0448  0.1224 -0.0233
32489ION     NA48623   9.237   2.677   0.033 -0.0670  0.1642 -0.0084
32490ION     NA48624   3.745   0.805   1.940 -0.0649 -0.1009  0.2021
32491ION     NA48625   6.992  14.570  11.787 -0.2208 -0.1474  0.0585
32492ION     NA48626  15.704   0.251   0.331  0.0553 -0.3898  0.0208
32493ION     NA48627  16.532   3.993  10.102 -0.1749  0.0881  0.2104
32494ION     NA48628  16.123   3.918   5.456  0.5715 -0.0767  0.1137
32495ION     NA48629  17.204   2.252  11.641 -0.1348  0.2642 -0.1222
32496ION     NA48630  14.583  15.822  15.309 -0.2316  0.0202 -0.2043
32497ION     NA48631   1.115  17.232   0.285 -0.2160  0.0457 -0.1918
32498ION     NA48632   6.537  17.111   3.912 -0.1007  0.1858  0.1486
32499ION     NA48633  15.162   6.829   4.315  0.0001 -0.0171 -0.1648
32500ION     NA48634   0.173  13.103   0.677  0.1798  0.0769 -0.3261
32501ION     NA48635  17.073  17.589   1.979 -0.1976 -0.1652  0.2209
32502ION     NA48636   3.532   7.452  15.558 -0.1048  0.2388  0.1442
32503ION     NA48637  18.399  12.482   5.004 -0.0313 -0.0319 -0.1798
32504ION     NA48638   7.695  12.777   2.185  0.0982  0.0042  0.0543
32505ION     NA48639   3.817   2.147   3.596 -0.1452 -0.2617 -0.1228
32506ION     NA48640  13.967   6.682  14.399 -0.3703  0.0207 -0.1180
32507ION     NA48641   3.368   0.682  10.461  0.0710 -0.0055 -0.0117
32508ION     NA48642   9.952   7.590   5.850  0.3578 -0.0581 -0.0993
32509ION     NA48643  15.993  11.171  13.279  0.0916 -0.0269 -0.0568
32510ION     NA48644  16.533   1.773   4.591  0.0067 -0.1752  0.4977
32511ION     NA48645   7.937   6.153  12.359 -0.0011 -0.0480 -0.0367
32512ION     NA48646  14.849   2.440  10.248 -0.0139 -0.0062  0.2714
32513ION     NA48647   3.439   6.920  10.063 -0.3295 -0.2921 -0.1867
32514ION     NA48648  15.199   7.557  14.736  0.1623  0.0460 -0.0314
32515ION     NA48649  16.515   2.976  13.085 -0.2354 -0.0779  0.0503
32516ION     NA48650   1.321  15.585  10.093  0.1324 -0.1518  0.1159
32517ION     NA48651   9.904  15.817   4.128 -0.0417 -0.0966  0.0875
32518ION     NA48652   3.814   1.090   4.382  0.1771 -0.0066  0.5641
32519ION     NA48653  15.473  17.335   1.869 -0.0476  0.0474  0.2292
32520ION     NA48654  17.262   4.381  15.789 -0.0132 -0.3527 -0.1498
32521ION     NA48655   3.107  16.484  15.633 -0.0878 -0.2660 -0.1519
32522ION     NA48656  16.401  12.768  14.360  0.2027 -0.0005  0.2280
32523ION     NA48657   8.722   5.855  15.503 -0.1133  0.0826  0.0113
32524ION     NA48658   2.330   6.993  13.155 -0.0416 -0.2244 -0.3481
32525ION     NA48659   9.459  13.393  15.128 -0.0471  0.0073 -0.0543
32526ION     NA48660   7.259  13.807   5.713 -0.2470 -0.1622 -0.2103
32527ION     NA48661  13.593   9.422   5.640 -0.0481 -0.2675 -0.1303
32528ION     NA48662   2.381  18.084  10.288  0.1247 -0.0051  0.2961
32529ION     NA48663  17.307   1.466   5.688 -0.1559  0.2572 -0.0537
32530ION     NA48664  11.222   4.967   5.078  0.3131 -0.1672  0.1727
32531ION     NA48665  13.164  17.586   0.396 -0.2602 -0.2751 -0.0444
32532ION     NA48666  18.081  18.121  10.345  0.0936 -0.1880 -0.0622
32533ION     NA48667  14.943   3.955   1.762 -0.3361 -0.1964  0.0939
32534ION     NA48668   7.049  12.917  10.285  0.1483 -0.2082  0.1337
32535ION     NA48669   9.949   7.141  10.557 -0.0862 -0.0669 -0.0486
32536ION     NA48670   4.093   3.566  13.990  0.0776 -0.0628  0.3653
32537ION     NA48671   3.010   2.591   5.749 -0.2724  0.1006 -0.0500
32538ION     NA48672   4.809   4.982  10.077  0.4519  0.2888  0.1034
32539ION     NA48673  17.019   7.887   0.927 -0.3383  0.1073 -0.1402
32540ION     NA48674   0.352   8.569   2.210  0.2629 -0.0674 -0.2876
32541ION     NA48675   8.879   3.182  15.299 -0.0365 -0.1629  0.0904
32542ION     NA48676   8.385   9.271   5.917  0.1682  0.0798  0.2273
32543ION     NA48677  14.842   1.011   5.596 -0.1819  0.0123 -0.1545
32544ION     NA48678  11.537  10.550  10.906 -0.1169 -0.0807  0.0178
32545ION     NA48679   3.173   6.804   0.298  0.2112 -0.3899 -0.0505
32546ION     NA48680   2.985   0.740   3.557 -0.2348  0.2945  0.1761
32547ION     NA48681   7.642   7.246   5.888  0.1689  0.0038 -0.0326
32548ION     NA48682  14.702   9.886   5.676 -0.2100  0.0722  0.0533
32549ION     NA48683   7.256  12.038   5.833  0.0026  0.1232  0.0244
32550ION     NA48684   7.813   8.700   5.743 -0.2786  0.1642 -0.4098
32551ION     NA48685  16.987   7.706   5.444  0.0726 -0.3477 -0.3208
32552ION     NA48686   8.255  16.469   5.853 -0.0393 -0.1282  0.0341
32553ION     NA48687   3.441   0.919   5.964  0.0907 -0.0583 -0.1325
32554ION     NA48688  14.596   6.288   1.886  0.2151 -0.0292 -0.0127
32555ION     NA48689   2.133   7.446   5.453  0.1139  0.0743 -0.1834
32556ION     NA48690  11.395  14.885   2.554 -0.0045 -0.1218 -0.1568
32557ION     NA48691   9.388  13.480   0.237  0.0304  0.2070 -0.0148
32558ION     NA48692  11.698   1.401   1.684 -0.0219 -0.1505 -0.0023
32559ION     NA48693  11.173   7.466  10.578 -0.1502  0.3746  0.0307
32560ION     NA48694  14.932   7.444   5.814 -0.0020 -0.1697  0.1605
32561ION     NA48695   3.592   4.016  11.742  0.1313  0.1147 -0.3583
32562ION     NA48696   0.386  12.268   1.336 -0.0349 -0.1078 -0.2480
32563ION     NA48697   1.373   1.690  10.407  0.0382  0.0796 -0.0705
32564ION     NA48698  12.665  12.232  15.659 -0.1033 -0.0830 -0.2835
32565ION     NA48699  11.060  15.390   5.124 -0.2685  0.1268 -0.0089
32566ION     NA48700   0.356   2.638   5.544 -0.0780 -0.0264  0.0277
32567ION     NA48701  17.018   5.181   5.481 -0.2086  0.1428 -0.0411
32568ION     NA48702   3.309   6.673  14.715 -0.1188 -0.3238 -0.0452
32569ION     NA48703  12.291   8.044  11.751  0.1431  0.4283 -0.1364
32570ION     NA48704   9.948   7.977  10.265  0.0327  0.0326 -0.1384
32571ION     NA48705   6.868  14.642   5.858  0.0573  0.0340 -0.1136
32572ION     NA48706   0.974   5.577  10.584 -0.3695 -0.1661 -0.0076
32573ION     NA48707  17.676   1.335  12.721  0.0450  0.1307  0.1666
32574ION     NA48708   1.443  12.070  13.697 -0.0230 -0.1319  0.0332
32575ION     NA48709  17.273   4.249  12.283 -0.0061 -0.0714  0.0857
32576ION     NA48710  13.424  16.113  10.234 -0.2960 -0.1788  0.0630
32577ION     NA48711   1.417   7.312  15.503  0.0130  0.0021  0.2171
32578ION     NA48712   1.637   1.406   1.899  0.3590  0.3990  0.2491
32579ION     NA48713  12.637  11.955   2.042  0.1094 -0.0039  0.0345
32580ION     NA48714   9.070  16.643  10.434 -0.1825 -0.1201  0.1573
32581ION     NA48715  14.485   7.024   1.348 -0.1723 -0.1527 -0.0931
32582ION     NA48716  17.688  17.182  10.372  0.1085  0.0470  0.0179
32583ION     NA48717  11.232  15.588   1.304 -0.1747 -0.2722  0.1255
32584ION     NA48718   7.205   3.836  14.198  0.3045  0.1023 -0.3135
32585ION     NA48719  15.747  16.493   0.792 -0.0833  0.0634  0.3252
32586ION     NA48720  17.908  11.677  10.475 -0.0241 -0.0141  0.0056
32587ION     NA48721  15.862  14.195  15.008  0.1092 -0.1591 -0.0268
32588ION     NA48722   5.309  10.174   5.872 -0.2427  0.2201  0.1660
32589ION     NA48723   4.852  11.422   5.737 -0.0725 -0.0525 -0.2368
32590ION     NA48724   5.584  10.297   5.354 -0.2205  0.1910 -0.2031
32591ION     NA48725   3.285  14.933  12.337  0.2717 -0.1892 -0.2827
32592ION     NA48726  12.146   4.264  10.072  0.3025 -0.0095  0.0986
32593ION     NA48727  18.324  16.454   3.411  0.1791  0.0377 -0.0812
32594ION     NA48728   4.742   1.534   5.116  0.1488  0.2133  0.1169
32595ION     NA48729   1.262   9.206   2.782  0.0298 -0.2342 -0.1221
32596ION     NA48730   0.431  12.770   2.220 -0.0008  0.2121 -0.2432
32597ION     NA48731   3.706  15.248  13.573 -0.0505 -0.0187 -0.1778
32598ION     NA48732   5.895  13.905   1.701 -0.1612 -0.0412 -0.1648
32599ION     NA48733   1.386   0.749  10.111  0.0747 -0.0379 -0.2668
32600ION     NA48734  11.847  10.645   1.973 -0.1440 -0.0548  0.0640
32601ION     NA48735  16.446  13.215   1.953 -0.1350 -0.0822  0.0610
32602ION     NA48736  15.651  13.254  11.631  0.3547 -0.2337 -0.1088
32603ION     NA48737   3.212  10.724   4.110 -0.0075  0.1458 -0.0533
32604ION     NA48738   3.457  15.190  10.238  0.1560  0.2231  0.0589
32605ION     NA48739  14.224   4.477   5.660  0.0756 -0.1995 -0.0096
32606ION     NA48740   3.707  17.377  14.752 -0.0328  0.1245 -0.4351
32607ION     NA48741  18.183   4.783   0.664  0.0825 -0.0740 -0.2239
32608ION     NA48742   4.313   2.335   5.952 -0.0648 -0.0845  0.5062
32609ION     NA48743   9.745  17.986   2.869 -0.1919 -0.1645  0.2623
32610ION     NA48744  14.257  10.930   5.555 -0.3356 -0.0931  0.3082
32611ION     NA48745   0.410  18.111  10.237 -0.1621 -0.2517  0.0812
32612ION     NA48746   3.038  17.926   3.783  0.2066 -0.2154 -0.2971
32613ION     NA48747  14.622   5.632  10.458  0.2274 -0.0022 -0.0874
32614ION     NA48748  12.146  14.135  13.994  0.2353 -0.0366  0.1455
32615ION     NA48749  10.143   3.537   0.325  0.2150  0.1924 -0.4669
32616ION     NA48750   5.906  10.047   3.370 -0.0608  0.1972  0.0654
32617ION     NA48751   9.732   4.518  10.268 -0.2363  0.0424 -0.0138
32618ION     NA48752   3.736   2.996   5.857  0.3218  0.0631  0.1905
32619ION     NA48753   4.707   6.563   4.570  0.0434  0.0224 -0.2522
32620ION     NA48754  16.709  15.478   5.038  0.1713  0.1812  0.1220
32621ION     NA48755  15.978   0.042   4.020 -0.1847  0.3238 -0.1175
32622ION     NA48756   2.615  16.546  12.385 -0.0117  0.0132 -0.0440
32623ION     NA48757  12.261  13.243   5.570 -0.0146  0.3281  0.1656
32624ION     NA48758  10.735   3.185  13.515  0.0058 -0.2568  0.0224
32625ION     NA48759   3.960  14.881   0.907 -0.2199  0.2282  0.0250
32626ION     NA48760  16.935   0.034   1.235  0.0372 -0.0870 -0.0050
32627ION     NA48761   3.743   2.442   0.748 -0.4086 -0.0381  0.1665
32628ION     NA48762  14.917   9.570   2.134 -0.1035 -0.1757  0.0168
32629ION     NA48763   3.439   1.532   2.034 -0.0406 -0.0594 -0.2479
32630ION     NA48764   7.131  14.719  10.337  0.1236 -0.4262  0.2842
32631ION     NA48765  18.380   4.304  15.824  0.3900  0.0613 -0.2045
32632ION     NA48766  17.632  12.601   2.582  0.0498 -0.4796  0.1294
32633ION     NA48767   7.808   4.852   2.389  0.0566 -0.2464 -0.2403
32634ION     NA48768   8.478   2.614  10.306 -0.1894  0.1604 -0.3122
32635ION     NA48769   2.296   9.927   3.234 -0.4898 -0.0310  0.1307
32636ION     NA48770  16.879   8.105  10.462 -0.0582  0.0644  0.1741
32637ION     NA48771   9.582   4.450   4.906  0.1256 -0.1747  0.3944
32638ION     NA48772  11.345   6.060  15.395 -0.0319  0.1103  0.3190
32639ION     NA48773  15.275   4.586   2.866  0.0690 -0.0861  0.1412
32640ION     NA48774  16.633  12.320   3.345  0.0580 -0.1893 -0.2361
32641ION     NA48775   6.443   1.726   5.961 -0.3798 -0.1173  0.0485
32642ION     NA48776   0.486   2.113  10.351  0.1994 -0.0395 -0.0248
32643ION     NA48777   9.451   8.675   0.325  0.1145 -0.0231 -0.1302
32644ION     NA48778  15.101   4.000   5.920  0.0450 -0.0177 -0.0612
32645ION     NA48779  15.221   6.690  12.740  0.0119  0.0022 -0.1503
32646ION     NA48780   4.818  11.136   3.990  0.2179  0.0764 -0.1420
32647ION     NA48781  13.007   0.893  13.570  0.0979 -0.1404 -0.0423
32648ION     NA48782   3.519  17.335   4.586  0.0976 -0.3209  0.0597
32649ION     NA48783  17.186  10.610  12.672  0.2253 -0.1769 -0.1620
32650ION     NA48784   4.909   6.714  14.677  0.0039 -0.0993  0.0461
32651ION     NA48785  17.234  10.956   4.565  0.1693 -0.0118 -0.1629
32652ION     NA48786  12.619  15.842  15.351 -0.4560 -0.0748  0.2116
32653ION     NA48787  13.539   3.729   9.923 -0.2339  0.1300  0.0082
32654ION     NA48788   1.509   0.468  13.047  0.1822 -0.0707  0.1271
32655ION     NA48789  16.459  15.371  10.388  0.0647  0.1487 -0.0481
32656ION     NA48790  18.355  14.907   2.746 -0.0287 -0.0129  0.0815
32657ION     NA48791  13.369   1.298   5.412 -0.2605 -0.2194 -0.1153
32658ION     NA48792   2.341   9.313   5.297 -0.2674  0.0422 -0.3240
32659ION     NA48793   9.467  12.783   1.930 -0.0008  0.2177  0.2098
32660ION     NA48794   5.312   5.654  10.196  0.3126 -0.2989 -0.3683
32661ION     NA48795  18.247   7.814   2.347 -0.1398 -0.0976 -0.0242
32662ION     NA48796   6.715  11.659  10.362  0.0413 -0.2514 -0.1641
32663ION     NA48797   8.737  16.224  13.982 -0.2163 -0.0236 -0.3282
32664ION     NA48798  14.652   4.399  10.199 -0.2292 -0.2633  0.1394
32665ION     NA48799  12.154   9.553  10.560  0.2902 -0.3629 -0.0253
32666ION     NA48800  16.774  17.848   2.665 -0.3141  0.0958  0.1357
32667ION     NA48801   1.764  13.994   0.041 -0.1364 -0.4951  0.0250
32668ION     NA48802  10.039   2.737   2.730 -0.1156  0.0397  0.2166
32669ION     NA48803  12.598  11.895   5.635 -0.1623 -0.0622 -0.2547
32670ION     NA48804  17.792  18.139   5.788 -0.0485 -0.1002 -0.2165
32671ION     NA48805  13.017   8.747  14.810 -0.2325 -0.1086 -0.0475
32672ION     NA48806   6.064   2.212   4.027  0.1932 -0.2178  0.0762
32673ION     NA48807   8.650   9.375   1.585  0.1074 -0.0266 -0.1674
32674ION     NA48808   9.894  16.404  10.476  0.1660  0.2049 -0.3087
32675ION     NA48809   5.299  16.600   2.993 -0.0983 -0.1763 -0.2334
32676ION     NA48810  15.086  14.899  10.427  0.4915 -0.2505  0.0727
32677ION     NA48811   2.949  12.697   5.726 -0.0492 -0.0728 -0.0201
32678ION     NA48812   2.196   2.199   2.243  0.1486  0.2439 -0.0014
32679ION     NA48813   2.487   9.654   9.541 -0.0812  0.2656 -0.1114
32680ION     NA48814   5.235   5.457   2.915 -0.3264  0.0383  0.0573
32681ION     NA48815  18.430   1.055  12.376 -0.0117 -0.1305 -0.0111
32682ION     NA48816   2.627   3.492   5.851  0.1598  0.3766 -0.0297
32683ION     NA48817   6.958  11.765   2.615 -0.2837  0.0617  0.0675
32684ION     NA48818   4.879   8.467   2.838  0.0238  0.0402 -0.1205
32685ION     NA48819  16.259  15.847  12.711 -0.1282 -0.3120 -0.0027
32686ION     NA48820  11.761  15.391  10.223 -0.1420  0.2812  0.1375
32687ION     NA48821   5.743   8.303   0.369 -0.1270  0.3597 -0.1695
32688ION     NA48822  16.230   6.084  15.894  0.2144 -0.0120 -0.1022
32689ION     NA48823   4.978   1.431  15.721 -0.0434  0.0873 -0.2076
32690ION     NA48824   5.556   9.198   5.719 -0.6341  0.0507  0.1706
32691ION     NA48825   8.371   0.967   5.552  0.2663 -0.4992  0.3449
32692ION     NA48826   5.910  18.242  10.403 -0.1867  0.0874  0.1308
32693ION     NA48827  15.336   8.572  14.319 -0.1843  0.1324 -0.1920
32694ION     NA48828   5.758  15.425   4.086 -0.1069 -0.0827  0.1317
32695ION     NA48829  17.668  18.335   0.749 -0.0653  0.1244 -0.1664
32696ION     NA48830   1.327  14.641  10.144 -0.2257 -0.3096 -0.1311
32697ION     NA48831   9.708  16.175   0.747 -0.0710 -0.1060 -0.2377
32698ION     NA48832   0.262  11.823   0.028  0.2906  0.1789 -0.1361
32699ION     NA48833   9.986   8.250  15.520  0.0065  0.0287 -0.3028
32700ION     NA48834  17.586   8.043   5.925  0.1639  0.2541 -0.0607
32701ION     NA48835   8.983  12.525  12.422  0.1879 -0.1567  0.4130
32702ION     NA48836   9.706   3.002   0.731  0.1021 -0.0081  0.0624
32703ION     NA48837  10.507  13.661   3.245  0.2310  0.0928  0.0291
32704ION     NA48838  13.753   1.359  15.333 -0.1768 -0.0230 -0.2719
32705ION     NA48839   9.595   6.921  15.120  0.1487 -0.1351 -0.1738
32706ION     NA48840   4.740  13.640  10.331  0.1037  0.1538  0.0977
32707ION     NA48841   3.691   7.729   5.193 -0.0957  0.1270  0.1802
32708ION     NA48842  15.562   0.763   5.981  0.1044  0.0043  0.0043
32709ION     NA48843   4.899   9.412  14.225  0.2523 -0.0476  0.0206
32710ION     NA48844  11.274  11.948  15.871 -0.2205  0.0181 -0.3881
32711ION     NA48845   1.026  16.920   2.092 -0.0373 -0.0278 -0.0769
32712ION     NA48846  17.069  15.810  13.224  0.3539  0.0239 -0.0766
32713ION     NA48847  10.556   8.532   6.032 -0.1382  0.0438 -0.1861
32714ION     NA48848   4.935  17.341  13.946  0.1027 -0.1870 -0.1152
32715ION     NA48849   8.963   4.080   1.543 -0.1899  0.0182  0.2871
32716ION     NA48850   3.834   8.365  13.122 -0.5798 -0.2586 -0.3446
32717ION     NA48851   7.926   2.419   2.325 -0.0386  0.1064 -0.1933
32718ION     NA48852  12.511  12.338   5.406  0.1256  0.4043  0.3439
32719ION     NA48853   6.045   0.039  13.104  0.2177  0.3030 -0.1226
32720ION     NA48854  17.531   1.186  10.564 -0.1418  0.0839 -0.0244
32721ION     NA48855   7.024   5.135   0.211  0.0111 -0.2464  0.1947
32722ION     NA48856   2.104   6.446  11.137 -0.0203 -0.3829  0.0545
32723ION     NA48857   6.920  17.873  11.180  0.1044  0.2410 -0.1755
32724ION     NA48858   6.723  16.111  10.325  0.1958 -0.0983  0.3790
32725ION     NA48859   4.428  17.566   3.487 -0.1590 -0.1309  0.1733
32726ION     NA48860  17.364  11.572   3.902  0.1336  0.1909 -0.2093
32727ION     NA48861   2.314   8.025   9.470 -0.0469 -0.0628  0.0583
32728ION     NA48862   9.028   6.699  10.830  0.0498 -0.0487  0.1772
32729ION     NA48863   7.043   8.521   2.248  0.2173 -0.0789  0.0925
32730ION     NA48864  13.077   3.699  13.899  0.2056  0.2846  0.1979
32731ION     NA48865   1.787  11.551   2.703 -0.0986 -0.1179 -0.0872
32732ION     NA48866  17.277   3.674   5.680  0.1903 -0.0808 -0.0632
32733ION     NA48867   9.652   0.578  10.391  0.2020 -0.0451  0.2489
32734ION     NA48868  17.267   8.706  14.381  0.0546 -0.0033 -0.0012
32735ION     NA48869   0.574   7.165  11.792 -0.1776  0.0903 -0.0240
32736ION     NA48870  10.033  16.918  15.569  0.1197  0.2257  0.1171
32737ION     NA48871  17.309   2.503   5.747  0.0422 -0.2571 -0.0654
32738ION     NA48872   1.075   8.365   0.199  0.2648 -0.1324  0.0004
32739ION     NA48873  11.652   5.008   0.421 -0.4292  0.0665 -0.1092
32740ION     NA48874   5.796   2.078   5.998 -0.1079 -0.0190 -0.1198
32741ION     NA48875   5.894  12.285   4.722  0.0394 -0.2986  0.0038
32742ION     NA48876   1.356  14.554  15.685 -0.1834 -0.0234  0.0037
32743ION     NA48877   1.089  10.510   9.869 -0.1360 -0.1959  0.1145
32744ION     NA48878   3.272  12.462  12.748  0.1225 -0.0495  0.0518
32745ION     NA48879  16.554   2.270  14.038 -0.1737  0.0990  0.3324
32746ION     NA48880   2.626  11.800  10.233 -0.1625 -0.0347 -0.0011
32747ION     NA48881   5.091  14.253   6.034 -0.3204  0.0233 -0.3362
32748ION     NA48882  12.008  11.792   1.369 -0.2281  0.2779  0.3603
32749ION     NA48883   3.951  17.156  10.308  0.0669  0.1151 -0.1662
32750ION     NA48884   6.731  11.475   5.370 -0.2237  0.0747  0.1562
32751ION     NA48885   4.938   9.863   1.618  0.1688  0.0326  0.1533
32752ION     NA48886   2.455   0.295   2.363 -0.2046  0.1787  0.0448
32753ION     NA48887   3.932  18.041  10.511  0.0284  0.0727 -0.2381
32754ION     NA48888   1.625   3.266  11.139 -0.0851  0.0065  0.3539
32755ION     NA48889   0.430  14.883   4.643  0.0593 -0.0812  0.0177
32756ION     NA48890   4.597   5.512   0.270 -0.1979 -0.1358 -0.4376
32757ION     NA48891   9.651   5.531   1.408  0.0320 -0.0104 -0.0017
32758ION     NA48892   4.880   8.467   9.972 -0.2318 -0.2026  0.0221
32759ION     NA48893  15.876  12.459  10.232 -0.1898 -0.1249 -0.0018
32760ION     NA48894   3.485   1.797   5.995  0.1313 -0.1629  0.2672
32761ION     NA48895   4.540  17.291   5.792  0.0102 -0.0204 -0.0118
32762ION     NA48896  16.703   0.416  10.226  0.1661 -0.1458  0.0330
32763ION     NA48897   7.477   0.125   2.894  0.2925  0.0215  0.0499
32764ION     NA48898   2.183  15.173  10.101 -0.0685 -0.1106  0.2073
32765ION     NA48899   6.024  11.229  10.325  0.2390 -0.1881  0.1381
32766ION     NA48900  18.385   7.029  10.196 -0.0263  0.3460 -0.1304
32767ION     NA48901   6.601   4.534  10.274 -0.1749 -0.0377  0.1468
32768ION     NA48902  12.758   2.249   0.963 -0.0471  0.2646 -0.0130
32769ION     NA48903   7.187   6.673   0.512  0.2257 -0.1185 -0.0901
32770ION     NA48904  17.115  17.590   5.811 -0.0706  0.0521 -0.1448
32771ION     NA48905   1.507   0.162  15.147  0.1064  0.1182 -0.0403
32772ION     NA48906  10.588   5.772  11.499  0.1767  0.0043 -0.4233
32773ION     NA48907  11.842  16.490  10.192 -0.1381 -0.0001  0.1580
32774ION     NA48908  10.470   9.843   2.283 -0.0682  0.0807  0.0298
32775ION     NA48909  15.188   2.403   2.830 -0.0433 -0.1102  0.4296
32776ION     NA48910   5.104  11.693   1.012 -0.2067 -0.0470  0.0509
32777ION     NA48911   1.125   8.645   9.528 -0.1067 -0.1477 -0.2294
32778ION     NA48912   5.958  18.044   0.447  0.0580  0.1767  0.1200
32779ION     NA48913   5.871   2.305  10.415 -0.3597  0.1529  0.2961
32780ION     NA48914   8.388  10.184  14.275  0.0488  0.3912 -0.0536
32781ION     NA48915   3.683  13.652  12.628  0.0537  0.2682  0.1899
32782ION     NA48916   0.849  12.126  10.017 -0.1455 -0.2047 -0.4460
32783ION     NA48917   5.070   5.006  13.260  0.0736 -0.1236  0.0626
32784ION     NA48918   5.203   3.362  15.590  0.1966  0.2121  0.3905
32785ION     NA48919   1.757   8.179   5.467  0.1733  0.3513  0.1247
32786ION     NA48920   6.851  17.940   6.101 -0.0743 -0.1855 -0.1825
32787ION     NA48921  14.786   1.833  14.883 -0.0426 -0.1219 -0.1813
32788ION     NA48922   6.163  17.923   5.935  0.1822  0.1393  0.3034
32789ION     NA48923   0.204  11.325  13.328  0.0520 -0.0870  0.1441
32790ION     NA48924   8.977  12.511  10.539  0.3344 -0.1106 -0.2714
32791ION     NA48925   2.739  11.357   5.230  0.1052 -0.0905 -0.0337
32792ION     NA48926  10.623   0.058  10.715 -0.1326 -0.1162  0.0584
32793ION     NA48927   2.661   8.579  11.287  0.1119  0.0360 -0.0038
32794ION     NA48928   4.155   3.655  10.593 -0.0532 -0.2318  0.2289
32795ION     NA48929  15.877   6.694   1.437  0.4108 -0.1841 -0.4249
32796ION     NA48930  14.184   0.612   0.596 -0.1726 -0.0321 -0.1037
32797ION     NA48931   6.121   6.151  10.176 -0.0100  0.1961 -0.0252
32798ION     NA48932   9.461   2.306   5.736 -0.1980  0.0025 -0.0277
32799ION     NA48933  18.457   5.207   9.866  0.1844 -0.0303  0.2597
32800ION     NA48934  10.969  13.011   5.500 -0.0798  0.0578 -0.0647
32801ION     NA48935  15.468  17.443  15.188 -0.0025  0.0703  0.1192
32802ION     NA48936   6.734   1.338  10.477 -0.1152  0.2047  0.1714
32803ION     NA48937   3.822   4.493  15.113  0.3071  0.2960 -0.2032
32804ION     NA48938  11.668   0.221   5.873  0.0203 -0.0240  0.1682
32805ION     NA48939   3.843   2.108  11.972 -0.1378 -0.0002  0.0355
32806ION     NA48940  11.614  13.673   5.286 -0.0514  0.3084 -0.0960
32807ION     NA48941  15.246   3.252   5.960 -0.0442  0.1786 -0.0059
32808ION     NA48942  13.014  13.560   5.438  0.0087 -0.3625 -0.0315
32809ION     NA48943   7.919   5.724   5.662  0.2209 -0.3151  0.2112
32810ION     NA48944   4.036   2.371   4.420  0.0496  0.1773 -0.0570
32811ION     NA48945   0.993  18.335  13.597 -0.3612 -0.1116  0.2090
32812ION     NA48946   3.898  12.812   5.747 -0.3594  0.3416  0.1348
32813ION     NA48947   4.051  12.252   0.577  0.0504  0.1694 -0.0851
32814ION     NA48948  13.450   8.063  10.170  0.0010  0.1715 -0.0300
32815ION     NA48949   5.812   6.444  15.484 -0.0443  0.2226 -0.3505
32816ION     NA48950   3.072   7.773  11.607 -0.1858  0.2418  0.0032
32817ION     NA48951  11.303  10.766  11.789  0.0169  0.2870 -0.0618
32818ION     NA48952   1.166  13.176  14.788 -0.0389  0.0476  0.4832
32819ION     NA48953  10.478  16.057  15.321 -0.1286  0.0012 -0.0364
32820ION     NA48954   8.143   3.718  10.165  0.2326 -0.3061 -0.1331
32821ION     NA48955   3.158  15.494   3.546 -0.1174  0.0730 -0.1638
32822ION     NA48956   3.567   5.384  10.133 -0.0654 -0.2240 -0.1114
32823ION     NA48957   0.373   4.341   9.859  0.0385 -0.0584  0.3711
32824ION     NA48958  16.232  11.547   2.894  0.2252 -0.0409  0.3778
32825ION     NA48959   2.620   8.143   5.429  0.2442 -0.2040 -0.0815
32826ION     NA48960   0.097   2.528  15.866 -0.0872 -0.5238  0.0340
32827ION     NA48961   0.015   1.499  15.028  0.0211 -0.1755 -0.0730
32828ION     NA48962  14.262   1.658   5.650  0.1491 -0.0912  0.0215
32829ION     NA48963   7.093  16.248  12.772 -0.1579  0.0019 -0.1242
32830ION     NA48964   6.349   4.530   2.153  0.0752 -0.0149 -0.0003
32831ION     NA48965  17.329   6.662   3.390  0.2503 -0.0145  0.1361
32832ION     NA48966   1.792  11.469   5.071 -0.1329 -0.0081 -0.0959
32833ION     NA48967  15.587   9.727  14.945 -0.0977 -0.2289  0.1943
32834ION     NA48968   9.930   3.036   4.145 -0.1181  0.2167 -0.2409
32835ION     NA48969  16.449   6.578  12.587 -0.5218 -0.3401 -0.2821
32836ION     NA48970  13.770  13.287  12.978 -0.0815 -0.1633 -0.0057
32837ION     NA48971   6.061   3.367   5.998 -0.2636 -0.3992  0.2362
32838ION     NA48972   7.365   1.703  13.643  0.0454  0.3557 -0.1146
32839ION     NA48973  17.685   8.302  10.094 -0.2699  0.1956 -0.0663
32840ION     NA48974   2.260   7.629   1.865  0.0355 -0.2057 -0.0784
32841ION     NA48975  17.255   5.567   1.497 -0.1523  0.0391 -0.0495
32842ION     NA48976   1.311   7.567  12.866 -0.0348  0.0202  0.0029
32843ION     NA48977   6.166  14.759  10.216 -0.1777  0.0204  0.1318
32844ION     NA48978  10.899   3.548  14.805  0.1548 -0.0284 -0.2439
32845ION     NA48979   8.277  16.103  13.278 -0.2592 -0.4422 -0.0807
32846ION     NA48980  13.089   3.899   1.317 -0.1587 -0.1499 -0.0744
32847ION     NA48981  12.715   8.010  13.242 -0.0803  0.1726  0.1744
32848ION     NA48982   0.195   6.651   0.821 -0.0547  0.1237  0.0360
32849ION     NA48983   2.554   1.805  10.342 -0.0948  0.0351 -0.0465
32850ION     NA48984  11.802   1.836  10.175 -0.0043 -0.4616 -0.1875
32851ION     NA48985   9.216  18.401   5.301  0.1807  0.0679 -0.0789
32852ION     NA48986   6.147   0.604  10.553 -0.0065 -0.1316 -0.0337
32853ION     NA48987  15.554   9.815  10.353  0.2166  0.1876 -0.1342
32854ION     NA48988   1.307   7.292   5.457 -0.0835 -0.1310 -0.1358
32855ION     NA48989  18.260  12.523   9.892  0.1024  0.0313 -0.0876
32856ION     NA48990   7.592   4.613  10.004 -0.4110  0.2306  0.1422
32857ION     NA48991  12.697  15.497  10.360  0.0956  0.2377  0.0621
32858ION     NA48992  17.461   4.645  10.220  0.1147  0.2360  0.2806
32859ION     NA48993  11.445   0.553  10.093  0.3857  0.1368  0.1834
32860ION     NA48994   6.066   2.218   0.848  0.0222  0.2217  0.3297
32861ION     NA48995   8.794  11.845   5.438  0.0487 -0.4225 -0.1546
32862ION     NA48996  13.581  13.611   0.431  0.1402  0.2083  0.0189
32863ION     NA48997   9.555   5.942  10.177 -0.0082 -0.1560  0.0001
32864ION     NA48998  13.248  17.877   3.040  0.2058 -0.0211  0.2335
32865ION     NA48999   0.126   8.117  11.625 -0.0192  0.1519  0.0477
32866ION     NA49000   2.218   2.538  10.068  0.0164  0.0665 -0.0004
32867ION     NA49001   6.199   0.279   0.606 -0.0357 -0.3757  0.3377
32868ION     NA49002   1.586   8.423   3.181 -0.1033 -0.0981 -0.2739
32869ION     NA49003   5.300  12.853  15.287  0.0218  0.0631  0.0746
32870ION     NA49004   8.751  15.772  10.751  0.3911  0.0492  0.0087
32871ION     NA49005   7.029   6.562   2.668 -0.0977 -0.0693 -0.0408
32872ION     NA49006  16.661   7.294   1.552  0.1365  0.2296  0.3284
32873ION     NA49007  11.555  12.098  12.636 -0.1139 -0.2128 -0.0117
32874ION     NA49008  15.608   3.826   2.394 -0.1647 -0.0331  0.0710
32875ION     NA49009  12.277   3.734   3.015  0.1835 -0.1623 -0.1330
32876ION     NA49010   4.999   0.089  11.288  0.2497  0.0162  0.0779
32877ION     NA49011   4.351  16.395  10.312 -0.1284  0.0560  0.4186
32878ION     NA49012   2.214  12.451   5.107  0.1446  0.2400 -0.0154
32879ION     NA49013   2.333  17.911   4.605 -0.1600  0.1622  0.1506
32880ION     NA49014   9.731   1.300  14.861  0.2075  0.1174  0.1695
32881ION     NA49015   3.739  16.133   1.565  0.4648 -0.0399 -0.0682
32882ION     NA49016  13.346  14.622   2.467 -0.3335 -0.2089  0.1961
32883ION     NA49017   9.656  11.244   6.052  0.3770 -0.0216 -0.0551
32884ION     NA49018   9.488   1.611   0.663 -0.0133  0.2729 -0.0671
32885ION     NA49019   6.194  12.695   4.004  0.0888 -0.1436  0.1045
32886ION     NA49020  13.182   0.720   5.621  0.0647  0.0600 -0.0201
32887ION     NA49021  12.683   3.625  10.120  0.1067  0.3077 -0.1468
32888ION     NA49022   6.926  14.325   0.367 -0.2135  0.3828 -0.3420
32889ION     NA49023   5.090  15.171   5.802  0.2159 -0.1635 -0.0480
32890ION     NA49024   2.856   5.830   5.363  0.1133  0.0101  0.2354
32891ION     NA49025   9.619   7.562   2.163 -0.1412 -0.1789 -0.0504
32892ION     NA49026   9.275  15.211   0.994 -0.0414 -0.0367  0.3376
32893ION     NA49027   4.013  15.330   4.632  0.1752  0.0544  0.0674
32894ION     NA49028   9.685  11.917  12.383 -0.0167  0.0588  0.1388
32895ION     NA49029  13.535   6.390   2.161 -0.0912  0.1945  0.3323
32896ION     NA49030  15.255  17.761  13.363  0.2122 -0.4143 -0.1912
32897ION     NA49031  10.052   5.518   4.154  0.0331  0.1669  0.0366
32898ION     NA49032   2.564   2.787   1.266 -0.0483  0.0577 -0.0281
32899ION     NA49033   3.287   7.920   3.241 -0.0595  0.0464  0.0104
32900ION     NA49034   7.023   8.346   0.372 -0.3529 -0.2787  0.0988
32901ION     NA49035   5.078   5.020   5.339 -0.0724 -0.1423 -0.2005
32902ION     NA49036   9.592  10.712  10.767 -0.1269  0.0672 -0.0853
32903ION     NA49037   0.898   1.956  13.059  0.2396 -0.3815 -0.1115
32904ION     NA49038  11.125   3.672   5.417 -0.0349 -0.0569 -0.1671
32905ION     NA49039   3.744  11.751  12.612 -0.1541  0.0508 -0.0269
32906ION     NA49040  13.359  12.402   3.652  0.0183  0.2890  0.3813
32907ION     NA49041  10.552  18.096  15.241 -0.0769  0.0566 -0.1830
32908ION     NA49042   2.741  14.400  14.363  0.0161 -0.4848  0.1023
32909ION     NA49043  12.947   9.268   5.773  0.2901 -0.1327 -0.1514
32910ION     NA49044   0.304   1.167  10.061  0.2812 -0.1494 -0.1062
32911ION     NA49045  16.417   1.306  15.592  0.1953  0.0077 -0.2094
32912ION     NA49046  14.846  14.966   5.801  0.1599  0.3039 -0.3173
32913ION     NA49047  17.188  17.998  10.147  0.2867 -0.2907  0.4620
32914ION     NA49048   1.741   8.386   2.205 -0.5628  0.0268 -0.0912
32915ION     NA49049   5.101   1.851   3.908  0.1073 -0.1520 -0.3257
32916ION     NA49050   4.948   1.378  13.413  0.2291 -0.1812  0.2613
32917ION     NA49051   8.540  17.572  10.481  0.1528  0.0682  0.1004
32918ION     NA49052  13.468   8.561  10.863  0.0039  0.3654  0.4201
32919ION     NA49053   3.708   1.234   2.901 -0.1024 -0.0510  0.1781
32920ION     NA49054  16.239  10.732   0.863  0.0082 -0.2762 -0.2183
32921ION     NA49055  18.163  10.753  13.769  0.1342  0.0315  0.1332
32922ION     NA49056  12.569  16.845   5.557 -0.4302 -0.0893 -0.2436
32923ION     NA49057  13.106   5.729   2.604 -0.0559  0.0248  0.0607
32924ION     NA49058   1.430  10.280  14.359  0.0306  0.1907 -0.2283
32925ION     NA49059   8.030   6.408   5.539 -0.0271  0.2857  0.0216
32926ION     NA49060  10.925  10.677   3.150  0.1346  0.0512 -0.0421
32927ION     NA49061   8.713  10.447  10.555 -0.0206 -0.1801 -0.1374
32928ION     NA49062   1.521   4.851   5.372  0.2597 -0.0799 -0.2455
32929ION     NA49063  13.595   0.125  12.890  0.2742  0.1953 -0.0540
32930ION     NA49064   8.303   9.875  15.167  0.1229 -0.0388 -0.1461
32931ION     NA49065  17.813   0.059   2.707 -0.1588  0.1416 -0.2046
32932ION     NA49066   1.650  15.638   5.580  0.1656 -0.1330 -0.0670
32933ION     NA49067   8.492   1.936   3.201 -0.0131  0.0818  0.2396
32934ION     NA49068   6.891   5.867   2.292  0.1986 -0.0724 -0.2948
32935ION     NA49069   8.037   3.463   5.967 -0.0431  0.0721 -0.2549
32936ION     NA49070  13.521  11.451  14.404 -0.2386  0.2877 -0.1235
32937ION     NA49071   4.301   7.699   5.135 -0.0760  0.0836 -0.1060
32938ION     NA49072  17.676   4.335   3.032 -0.1360 -0.1885  0.1154
32939ION     NA49073   2.508   2.403   3.200 -0.1802 -0.0089  0.0229
32940ION     NA49074   2.782   3.063  15.229  0.2589 -0.2013 -0.1474
32941ION     NA49075  16.814  14.588   4.702 -0.0267 -0.0382  0.0372
32942ION     NA49076  10.218  13.015   2.488 -0.0715  0.0638 -0.2688
32943ION     NA49077   6.208  16.795  10.486  0.0277 -0.2751  0.0859
32944ION     NA49078  12.122  17.137   2.488 -0.2041  0.2353 -0.0629
32945ION     NA49079  18.460  15.470  13.109 -0.1053 -0.1793 -0.1305
32946ION     NA49080  11.586   3.364   3.829 -0.0642  0.0499  0.0627
32947ION     NA49081  15.468  10.397   1.171  0.1868 -0.0458  0.1251
32948ION     NA49082   6.112  14.540   0.536  0.0445  0.1876  0.3713
32949ION     NA49083   4.946   1.812  14.843 -0.0925 -0.1846 -0.5517
32950ION     NA49084   5.932   0.757   6.216 -0.2426 -0.3213  0.0421
32951ION     NA49085  17.302  12.811  10.014  0.0550  0.0762 -0.0978
32952ION     NA49086  15.898  12.139  13.875  0.1575 -0.0315 -0.1139
32953ION     NA49087  12.776  10.002   5.642 -0.0084  0.0440  0.0169
32954ION     NA49088  10.749   0.574   0.628  0.0889  0.2534  0.1423
32955ION     NA49089   1.567   3.253  10.136  0.0310  0.1024 -0.0179
32956ION     NA49090  13.660   0.272  14.389  0.1369 -0.0702  0.0458
32957ION     NA49091   5.726  10.351  10.359  0.1546 -0.0341 -0.1505
32958ION     NA49092   0.892  13.070  15.353 -0.0170  0.2737 -0.1355
32959ION     NA49093  10.056  16.811   5.864  0.0064  0.1952  0.1161
32960ION     NA49094  14.655   2.332   4.264 -0.0117  0.0943 -0.1067
32961ION     NA49095  12.279  13.161  15.294  0.1891  0.2915 -0.2602
32962ION     NA49096  13.522  17.062   5.718  0.1334 -0.0993  0.1431
32963ION     NA49097   1.452   8.727   5.669  0.1315  0.0750 -0.2643
32964ION     NA49098   1.155  14.153  14.905  0.1842  0.2981  0.1243
32965ION     NA49099   5.505   7.855  10.084 -0.1540 -0.0679  0.0021
32966ION     NA49100  17.922   9.736  10.093 -0.1615  0.0371  0.1473
32967ION     NA49101   1.057   7.343  14.549  0.0633 -0.2013 -0.2408
32968ION     NA49102  16.468   1.962  10.043 -0.2625  0.0661  0.0448
32969ION     NA49103   7.417   0.093  14.829 -0.2259  0.1684 -0.0938
32970ION     NA49104   1.318  16.888   3.047  0.0173 -0.2673  0.0711
32971ION     NA49105   0.748  14.962  12.910  0.1538 -0.1217  0.2819
32972ION     NA49106  18.464  18.192   3.510  0.1214  0.1533  0.1036
32973ION     NA49107   7.507   0.675   5.344 -0.0939  0.3536 -0.1863
32974ION     NA49108   2.310  10.410   4.180 -0.1216  0.1690  0.1084
32975ION     NA49109  14.335   9.352   1.397  0.1180 -0.3226 -0.4109
32976ION     NA49110   7.583  10.621  13.062 -0.0064 -0.1156  0.0684
32977ION     NA49111  10.328  15.503   0.838 -0.0273 -0.2505  0.3002
32978ION     NA49112   2.870   2.005  11.625 -0.5039 -0.0321 -0.1776
32979ION     NA49113   6.423   9.739  10.485  0.3429 -0.1643  0.3250
32980ION     NA49114   7.148   4.612   6.000 -0.1241 -0.2579 -0.1293
32981ION     NA49115   9.112   6.047   5.588 -0.3253  0.0639 -0.0448
32982ION     NA49116   9.503   8.742   3.393  0.2068 -0.0050  0.1473
32983ION     NA49117  16.584   9.781  10.250 -0.2518 -0.0463  0.0051
32984ION     NA49118  10.086  10.507   6.189  0.1348  0.1448  0.0291
32985ION     NA49119  13.316   2.022  12.197 -0.0019  0.3704 -0.0874
32986ION     NA49120   8.391   0.714  10.456 -0.0601  0.1368 -0.0345
32987ION     NA49121  15.116  13.143  10.182 -0.0067  0.4527 -0.0179
32988ION     NA49122   2.579   9.023   2.586  0.0520 -0.2851  0.0411
32989ION     NA49123   2.415  13.252  12.129 -0.1559 -0.0964 -0.3894
32990ION     NA49124   2.862   4.655   5.473  0.0529  0.2936  0.0807
32991ION     NA49125  15.051   5.307   5.453  0.1505 -0.1709  0.0434
32992ION     NA49126   7.027  17.158  10.429  0.2239 -0.1238  0.2859
32993ION     NA49127  10.783   8.991   3.403  0.2887 -0.1833  0.0374
32994ION     NA49128   0.403  14.046   9.881 -0.3564  0.1522 -0.2193
32995ION     NA49129   5.199   1.924  11.906  0.0207  0.0463  0.0502
32996ION     NA49130  14.763  14.093  10.326 -0.1241  0.2122 -0.2845
32997ION     NA49131   4.597  11.136   1.461  0.0643 -0.2481 -0.0443
32998ION     NA49132   3.713   7.905   9.911 -0.1114 -0.2125 -0.1035
32999ION     NA49133  10.421   9.381   5.982 -0.0667  0.1819  0.2460
33000ION     NA49134   9.271   5.115   5.539  0.1772  0.1605  0.2055
33001ION     NA49135  13.104  14.646  10.087 -0.2639  0.1359  0.0469
33002ION     NA49136   9.807  13.046  10.551 -0.1866  0.3027 -0.1513
33003ION     NA49137  14.489   9.907  10.356  0.0429  0.1592  0.3454
33004ION     NA49138   9.558   6.126   3.798  0.3195 -0.0381 -0.0953
33005ION     NA49139   5.161   2.760  10.490  0.3816  0.1243  0.1934
33006ION     NA49140   2.791   5.109   9.815  0.3536 -0.2081  0.0448
33007ION     NA49141   2.615  18.362   0.908  0.0972  0.0398 -0.3816
33008ION     NA49142   9.847  11.241   0.965  0.1512 -0.3109  0.2278
33009ION     NA49143  18.094  17.676   4.141  0.1937  0.0710 -0.1193
33010ION     NA49144   8.494  16.026  15.635  0.0398 -0.1182  0.0328
33011ION     NA49145   8.085   5.215  10.033 -0.0220 -0.2056 -0.1518
33012ION     NA49146  11.819  12.735  10.436  0.3587 -0.0764 -0.2319
33013ION     NA49147   8.784  15.259   3.700 -0.1981 -0.2676  0.1134
33014ION     NA49148  15.968  11.255   0.058  0.2206 -0.0026 -0.1354
33015ION     NA49149  11.127  17.117  10.767  0.0685  0.1868  0.1153
33016ION     NA49150  11.430   9.058  10.445  0.0263  0.0376 -0.5587
33017ION     NA49151   1.355  16.142  14.532  0.3452 -0.2042  0.0947
33018ION     NA49152   5.665   6.431   5.093 -0.0147  0.1227  0.4043
33019ION     NA49153   4.195   9.378  12.457  0.2122 -0.0969  0.0704
33020ION     NA49154   2.028  11.196   2.009 -0.2042 -0.1142 -0.0777
33021ION     NA49155  14.226  17.658  10.011  0.2794 -0.3234  0.3251
33022ION     NA49156   4.387   5.896  10.186  0.2001  0.1131  0.0355
33023ION     NA49157  11.167  12.211   1.053 -0.0259  0.2082  0.0751
33024ION     NA49158  12.867  13.399  14.244  0.2193 -0.3050  0.1948
33025ION     NA49159  11.962  11.883  13.007 -0.1362  0.1654 -0.1238
33026ION     NA49160  11.714  15.784  13.407 -0.0987 -0.4693  0.1524
33027ION     NA49161  17.017   7.492   5.967 -0.1292 -0.1136  0.1314
33028ION     NA49162   5.206   8.398   5.432  0.3469 -0.1742 -0.1682
33029ION     NA49163   3.293   7.853  12.855  0.1792  0.0997  0.4873
33030ION     NA49164   0.528  18.116   5.355 -0.2922 -0.0447 -0.0627
33031ION     NA49165  15.003  15.639   2.130 -0.2247  0.2831  0.1751
33032ION     NA49166   8.614   8.720  10.763 -0.1329 -0.4109 -0.0908
33033ION     NA49167  12.420  13.299  10.914 -0.1389  0.1063  0.4052
33034ION     NA49168  12.392  12.310   2.618 -0.3969  0.2975 -0.2776
33035ION     NA49169  10.349  16.589  13.352 -0.2916 -0.0748  0.0291
33036ION     NA49170   9.821   4.416  14.549  0.0722 -0.1147  0.2147
33037ION     NA49171  11.283  10.063   2.543 -0.1666 -0.0438 -0.1375
33038ION     NA49172   5.319   4.279  12.736  0.1128  0.1577  0.1232
33039ION     NA49173  18.084  10.596   9.873  0.2427 -0.0446  0.0204
33040ION     NA49174   6.894   5.534  10.058 -0.0062  0.0143 -0.0439
33041ION     NA49175  11.268   2.866  10.531 -0.1123  0.3053 -0.0851
33042ION     NA49176  15.508  14.487   0.415 -0.0237  0.3374 -0.2165
33043ION     NA49177   4.761  13.363   5.740 -0.1868 -0.1302  0.2859
33044ION     NA49178   3.502  14.216  10.081 -0.0998 -0.0185 -0.2649
33045ION     NA49179   1.991   1.824   5.515 -0.2146 -0.0975  0.0202
33046ION     NA49180   7.204   8.038   5.946  0.2071  0.1900 -0.0277
33047ION     NA49181   2.919   5.994  10.161 -0.0144  0.5141  0.1452
33048ION     NA49182   4.739   5.913  12.338 -0.0444  0.0873  0.1446
33049ION     NA49183  13.103  17.851  14.436  0.0615 -0.2974  0.2063
33050ION     NA49184  17.446   1.750  10.381  0.0325  0.0553 -0.0739
33051ION     NA49185   8.091   4.238   1.826  0.0093  0.1518  0.1206
33052ION     NA49186   7.703  10.480  10.389  0.0210  0.1351  0.2917
33053ION     NA49187   8.619   1.563  10.291 -0.0088 -0.1678  0.0322
33054ION     NA49188   3.835   5.266   0.915 -0.1026 -0.0887 -0.1306
33055ION     NA49189   3.407  16.180  10.299  0.0052 -0.1369 -0.1545
33056ION     NA49190  11.869  18.034  12.223 -0.3005  0.1552  0.1857
33057ION     NA49191  17.108   9.497  10.484  0.2136  0.1099  0.0705
33058ION     NA49192  14.007  12.728  14.977 -0.1970 -0.1394  0.1856
33059ION     NA49193   3.685   3.243  15.352  0.0181 -0.0728  0.0574
33060ION     NA49194   4.957   1.138  10.415  0.0126 -0.0360  0.0132
33061ION     NA49195   0.854   3.431  13.532 -0.1638 -0.0724  0.1455
33062ION     NA49196  13.588  15.848   5.178  0.1772 -0.0221  0.1241
33063ION     NA49197  13.160  17.395  13.155  0.0101 -0.0430 -0.0869
33064ION     NA49198  10.510   9.227  12.965  0.1532 -0.1261  0.1827
33065ION     NA49199  16.860  15.157   0.888 -0.1377  0.0731  0.0404
33066ION     NA49200  10.263   1.213  14.037  0.1333  0.1526  0.2828
33067ION     NA49201   9.903  15.403  10.375 -0.0137 -0.1176  0.2131
33068ION     NA49202   8.952   4.794   2.383  0.2659  0.1252 -0.1153
33069ION     NA49203  17.959  10.773  15.424 -0.0735  0.3405  0.1169
33070ION     NA49204   2.192   3.793  15.135  0.1767  0.2092  0.0635
33071ION     NA49205   7.468   5.947   1.499  0.0226  0.1314 -0.0536
33072ION     NA49206   1.303  12.534  12.515  0.1672 -0.0499  0.0766
33073ION     NA49207   8.123   6.202  10.147  0.1445 -0.0181  0.0691
33074ION     NA49208  14.693  12.238   5.827  0.0343  0.0895  0.1003
33075ION     NA49209   9.229  14.744  10.009 -0.0848 -0.0271 -0.1238
33076ION     NA49210   2.679  10.797   1.631 -0.0126 -0.0856 -0.0297
33077ION     NA49211   3.448   1.342   4.643  0.0664  0.2219  0.0589
33078ION     NA49212   9.969   5.209  15.422  0.0562  0.1634 -0.2222
33079ION     NA49213  17.573   1.359  15.642 -0.0791  0.0232  0.1188
33080ION     NA49214  15.419   9.913   5.559  0.3550  0.0126  0.0295
33081ION     NA49215  12.937   6.816  10.783  0.1624  0.0848 -0.1730
33082ION     NA49216   4.304  10.451  13.553 -0.0758 -0.1038  0.1457
33083ION     NA49217  13.808   7.822  15.168 -0.1181  0.0388  0.4391
33084ION     NA49218   6.442  16.999   5.504  0.1169  0.0109  0.2041
33085ION     NA49219  11.231   2.387  15.014  0.0318 -0.0551  0.4539
33086ION     NA49220   6.624   8.257  10.461  0.2605 -0.2489 -0.0882
33087ION     NA49221  15.818   7.339   2.638  0.0932 -0.0809 -0.1731
33088ION     NA49222  13.968  14.507   3.168  0.0944 -0.1141 -0.0010
33089ION     NA49223   7.359   5.769  10.154  0.1413  0.0657  0.0794
33090ION     NA49224  11.816   6.919  10.706 -0.1655  0.0673  0.0086
33091ION     NA49225   7.778  17.723   5.902  0.2163  0.2140  0.1193
33092ION     NA49226   1.930  12.085   0.744  0.1885 -0.0012 -0.0618
33093ION     NA49227  17.039   8.266  14.590 -0.0002  0.0567  0.1333
33094ION     NA49228  18.242  14.056  15.268 -0.1134 -0.1713  0.3916
33095ION     NA49229  17.812  15.941   0.513  0.3732 -0.1347 -0.1467
33096ION     NA49230  16.696  11.902  11.525 -0.1889 -0.2585  0.0225
33097ION     NA49231   3.702   8.566   9.971 -0.1144  0.0659  0.3096
33098ION     NA49232   8.528  16.453   0.104 -0.0240 -0.1353  0.0136
33099ION     NA49233   1.276   2.191  11.733 -0.0161 -0.2478  0.1386
33100ION     NA49234   4.869   7.616  15.783 -0.0398  0.1028 -0.1892
33101ION     NA49235   6.375  15.703  10.437 -0.0707  0.1230 -0.0323
33102ION     NA49236  18.104   2.465  10.267 -0.2282 -0.2152 -0.1848
33103ION     NA49237  16.052  12.124   1.349  0.0292 -0.2760  0.0784
33104ION     NA49238  10.362   2.328   3.539  0.0827  0.1541 -0.0849
33105ION     NA49239  15.724  13.509  12.856 -0.1589  0.3894  0.1310
33106ION     NA49240   2.103   8.113   3.951 -0.1023  0.1048  0.0520
33107ION     NA49241   6.313  15.732   1.997 -0.0687  0.1406 -0.2684
33108ION     NA49242   8.251  13.747   6.021 -0.1378  0.0414 -0.3280
33109ION     NA49243   8.802   9.562  13.913 -0.0833  0.0714  0.0063
33110ION     NA49244  14.060   3.180   5.901 -0.2702 -0.0507  0.2492
33111ION     NA49245   0.728   9.495  15.759  0.0343 -0.0628  0.4428
33112ION     NA49246  16.703   2.885   3.781 -0.1335  0.1968 -0.1628
33113ION     NA49247  15.550   8.101   5.718 -0.1698 -0.1103  0.2728
33114ION     NA49248  11.626   0.306   0.555  0.2107 -0.0588  0.1005
33115ION     NA49249  10.332   7.262  11.289  0.1003 -0.1608  0.3184
33116ION     NA49250   6.693   6.585   5.142  0.0231 -0.3524  0.2095
33117ION     NA49251  12.919  16.439   5.825 -0.1388 -0.2450 -0.0106
33118ION     NA49252  17.933   4.275  12.227 -0.0437 -0.1369  0.4418
33119ION     NA49253  11.290   6.157  10.113 -0.1897  0.0040 -0.0586
33120ION     NA49254  12.660  11.150  10.306  0.0025 -0.3683 -0.0481
33121ION     NA49255   8.948   1.859  10.550 -0.1995 -0.2081  0.1975
33122ION     NA49256   7.799  11.435  14.288  0.0750 -0.3255  0.0672
33123ION     NA49257   2.917   4.062  10.140 -0.0019  0.0174  0.1130
33124ION     NA49258   7.700   2.229  10.390  0.1477  0.1289  0.2328
33125ION     NA49259  10.323  16.637   1.516 -0.0622  0.2436 -0.4127
33126ION     NA49260   3.648   4.608   2.220 -0.0867 -0.0978  0.1134
33127ION     NA49261  14.473  15.849   5.720  0.1706  0.0048  0.0963
33128ION     NA49262   2.782   6.736  12.428  0.2216  0.1274  0.1179
33129ION     NA49263   7.445  12.046   0.132  0.2696  0.0551  0.2346
33130ION     NA49264   4.164  11.976   5.667 -0.0792 -0.3513 -0.1121
33131ION     NA49265  11.990  11.334   4.461 -0.1456  0.0346  0.5676
33132ION     NA49266  11.757   9.394   2.255  0.1593 -0.1603  0.0117
33133ION     NA49267   8.102   8.460  10.587  0.0853  0.0585 -0.1421
33134ION     NA49268  10.803   7.954   1.376  0.1084 -0.0659 -0.0464
33135ION     NA49269  13.432  17.494   1.936  0.2655  0.5699 -0.0081
33136ION     NA49270   3.017  15.028   0.525  0.0078  0.2220 -0.0832
33137ION     NA49271   4.097  17.727  12.893 -0.1161 -0.3585 -0.3336
33138ION     NA49272   1.633   2.556  15.189 -0.2248  0.1011  0.2524
33139ION     NA49273  10.898  12.434   6.117  0.0180 -0.1554  0.1011
33140ION     NA49274   3.165  13.806   3.265  0.1355  0.1378  0.1287
33141ION     NA49275   7.307   3.229  10.390 -0.0964  0.0215  0.1930
33142ION     NA49276  16.605  16.301   3.482  0.1710  0.1837 -0.2851
33143ION     NA49277   4.688   3.112   5.122 -0.0280  0.2700  0.1873
33144ION     NA49278  13.813   4.471   2.581 -0.1177 -0.1712 -0.0694
33145ION     NA49279  10.058  13.952  10.271  0.1621  0.0426 -0.3495
33146ION     NA49280   4.351  12.101  11.939  0.0831 -0.5489 -0.2349
33147ION     NA49281   1.450   3.657   1.845  0.3149  0.0963 -0.0084
33148ION     NA49282   5.379  12.740  10.316  0.1672  0.2426 -0.0809
33149ION     NA49283   9.150   7.524  10.301  0.0332 -0.1658 -0.0237
33150ION     NA49284   2.984   9.621   2.194 -0.1140  0.1020  0.3151
33151ION     NA49285   6.378   3.407   2.066 -0.0315 -0.0836  0.2924
33152ION     NA49286   1.816  10.766  12.339  0.1052 -0.0226  0.0912
33153ION     NA49287   9.812   7.078  12.021  0.3127 -0.0439  0.0116
33154ION     NA49288   5.305  10.049  12.857 -0.1454  0.0504  0.0791
33155ION     NA49289   2.027   6.669   1.503  0.1309 -0.1012  0.1353
33156ION     NA49290  10.520  18.301   2.033 -0.0195  0.1330  0.0745
33157ION     NA49291   0.465  15.007  15.543 -0.0396 -0.1693  0.0061
33158ION     NA49292  13.976  11.184   4.377 -0.1558  0.0965  0.0755
33159ION     NA49293   7.898   4.694   5.625 -0.0720  0.0132 -0.0858
33160ION     NA49294   4.864   8.939  15.106 -0.1874 -0.1026 -0.1807
33161ION     NA49295   8.806  12.124  15.679 -0.0309 -0.3522 -0.0268
33162ION     NA49296  11.182  14.115   5.904 -0.2081  0.1342  0.1379
33163ION     NA49297   5.023  12.517   5.805  0.0648  0.0473 -0.0118
33164ION     NA49298   5.772   8.618   5.478 -0.3485  0.1375 -0.1071
33165ION     NA49299   3.481   7.559  10.654 -0.4634 -0.1211  0.1410
33166ION     NA49300   7.485  11.452  10.282 -0.0501  0.0409 -0.1539
33167ION     NA49301   0.001   7.948   4.132  0.0326 -0.0940 -0.0523
33168ION     NA49302  13.607  11.402   5.957  0.0731  0.0376  0.0647
33169ION     NA49303  11.290   9.453  14.527  0.2888 -0.1185  0.1813
33170ION     NA49304  16.146  13.088   5.594 -0.0563  0.1688  0.2496
33171ION     NA49305   0.737   8.439   5.593  0.1427  0.1104 -0.0821
33172ION     NA49306   0.810  13.626   5.514 -0.0869 -0.0616  0.0798
33173ION     NA49307  13.862  16.536   1.604  0.2034  0.0894  0.0455
33174ION     NA49308   3.187  10.061   5.168 -0.2437  0.0906  0.0429
33175ION     NA49309   6.449  14.234   5.711 -0.0912 -0.3626 -0.0389
33176ION     NA49310  15.736  18.237   3.026  0.1302 -0.0495 -0.1524
33177ION     NA49311   6.599  18.129  13.920  0.2439  0.1519 -0.0753
33178ION     NA49312   2.389  11.825  12.827  0.2668  0.1687  0.4081
33179ION     NA49313  13.420  15.603   6.058  0.2323  0.1573  0.0820
33180ION     NA49314   3.105   5.458   5.046  0.2693  0.1353 -0.1201
33181ION     NA49315  10.860  12.923  13.640  0.0447 -0.0485 -0.1072
33182ION     NA49316   6.267  10.008   0.522 -0.0916 -0.1455 -0.0877
33183ION     NA49317   7.695   3.024   2.990 -0.0994  0.2431  0.0112
33184ION     NA49318  18.173  15.754   1.316 -0.0335 -0.2581 -0.0594
33185ION     NA49319   7.237   1.489   4.219 -0.2147 -0.0109 -0.0803
33186ION     NA49320   9.530  16.390  12.267 -0.0559 -0.2258 -0.2519
33187ION     NA49321   4.294  13.073   1.099 -0.0604  0.0277  0.1094
33188ION     NA49322   1.174   3.729  15.213  0.1481  0.2402  0.2445
33189ION     NA49323  10.012   6.355   5.286 -0.2523 -0.2707  0.0737
33190ION     NA49324  18.277   0.548   0.056 -0.3004  0.2284 -0.1107
33191ION     NA49325   3.126   3.870   1.978 -0.1812 -0.2412 -0.3926
33192ION     NA49326   8.391  11.008  10.394 -0.2950 -0.2644 -0.1903
33193ION     NA49327  15.470   7.193   5.769  0.0972 -0.0635  0.1698
33194ION     NA49328   3.080  14.884  15.104 -0.3471  0.2688  0.3165
33195ION     NA49329  15.198   8.124   0.428 -0.1435 -0.0838 -0.3079
33196ION     NA49330  16.515   4.844  10.109  0.0233  0.3022 -0.2066
33197ION     NA49331   4.151  10.394   9.747 -0.0473  0.3006  0.0930
33198ION     NA49332   4.331   1.917  10.339 -0.0166 -0.0508  0.0609
33199ION     NA49333   7.078   5.077  14.348  0.2770  0.1703 -0.1399
33200ION     NA49334   9.534   9.790   3.572  0.0195 -0.1373  0.1276
33201ION     NA49335  11.652  17.513   5.371  0.1595  0.4071 -0.0529
33202ION     NA49336   4.937  17.899   4.737 -0.3200 -0.0662 -0.2300
33203ION     NA49337   1.281  18.441   3.349 -0.0091 -0.0696  0.0086
33204ION     NA49338  10.926   6.711   5.531 -0.0792 -0.0203  0.1359
33205ION     NA49339  10.209   5.416  10.278 -0.0859 -0.0422 -0.1828
33206ION     NA49340  10.438   9.964  15.795  0.1186  0.1027 -0.0588
33207ION     NA49341   0.830  11.428   1.199  0.0522 -0.1739 -0.1462
33208ION     NA49342  12.603   6.375  14.726 -0.0320  0.1479 -0.1908
33209ION     NA49343  14.365  12.121  15.712  0.0669 -0.1209  0.1601
33210ION     NA49344   2.037   5.804  14.494 -0.1786  0.1568  0.0411
33211ION     NA49345   3.420   5.920  13.471  0.2448 -0.5527  0.2804
33212ION     NA49346  18.263  13.359  14.573  0.3595  0.0434  0.1123
33213ION     NA49347  18.051  10.175  15.625  0.2314 -0.1466  0.2017
33214ION     NA49348  14.900  15.655  14.138  0.0515  0.0922 -0.1592
33215ION     NA49349  12.282   2.629   0.205  0.0590 -0.1995 -0.2133
33216ION     NA49350   7.168   6.540  14.570  0.0180 -0.0660 -0.3906
33217ION     NA49351   0.447  16.603   2.838  0.1362 -0.0910 -0.0113
33218ION     NA49352  17.293  10.282  15.121 -0.0182 -0.1046 -0.3758
33219ION     NA49353   2.068   4.221  10.352  0.0998 -0.1377  0.2418
33220ION     NA49354   5.961  11.155  11.973  0.1888  0.1293  0.4434
33221ION     NA49355   9.483   4.005  13.329  0.1915  0.2372  0.1578
33222ION     NA49356   8.323  12.843  14.595  0.0101 -0.1405 -0.1475
33223ION     NA49357  14.836  18.308  10.253  0.0521  0.0064  0.2485
33224ION     NA49358  13.533   1.466   2.203 -0.3503 -0.1607  0.2351
33225ION     NA49359  11.646  14.873  14.396 -0.2046 -0.1271  0.0152
33226ION     NA49360   7.944  11.370   6.109  0.2165  0.0744 -0.2072
33227ION     NA49361   3.970  12.685  14.743  0.2290 -0.0683 -0.0448
33228ION     NA49362  12.415  18.070   5.658 -0.0497  0.1662 -0.2155
33229ION     NA49363   4.357  18.287  10.411 -0.0311  0.0318  0.0572
33230ION     NA49364  16.454  14.504  13.114  0.0160  0.0491 -0.1307
33231ION     NA49365   7.929  17.987   3.956 -0.1912 -0.5280 -0.1740
33232ION     NA49366  17.584  11.545   5.645  0.3841 -0.2755  0.0272
33233ION     NA49367   8.030  14.575  10.358 -0.0040 -0.2630 -0.1190
33234ION     NA49368   2.812  14.891   5.484  0.3859  0.1177  0.2210
33235ION     NA49369   0.161  15.235   5.443 -0.1084 -0.1599 -0.2366
33236ION     NA49370  10.793   5.516   4.710  0.1550 -0.1654 -0.0097
33237ION     NA49371  18.142   5.861   0.260  0.2942 -0.3599 -0.0532
33238ION     NA49372  11.215   5.594   5.447 -0.3836 -0.0252  0.3867
33239ION     NA49373   0.785   5.667   3.174  0.2206  0.1362  0.6260
33240ION     NA49374   0.686  17.607   3.836  0.2877 -0.1110  0.0198
33241ION     NA49375  12.029   5.093   3.273  0.1216  0.3362 -0.1219
33242ION     NA49376  12.048  17.801   4.210  0.0467 -0.0451 -0.1413
33243ION     NA49377  11.042   0.655   5.880  0.1702  0.3169  0.1090
  18.46919  18.46919  15.91175
